INSANE! Membrane UpperLeaflet>loPI:POPI:DPPI:PYPI:ERGO=80.0:5.0:3.0:2.0:10.0 LowerLeaflet>PSPI:POPI:POPS:YOPS:POPE:YOPE:POPC:YOPC:ERGO=6.0:14.0:21.0:9.0:9.0:21.0:12.0:48.0:60.0
49377
    1loPI    C1    1  14.564   0.644  10.646  0.0109  0.3206  0.1044
    1loPI    C2    2  14.908   0.540  10.820 -0.0256  0.0537  0.0205
    1loPI    C3    3  14.570   0.547  11.033  0.0043  0.1608  0.0649
    1loPI   PO4    4  14.496   0.506  10.479  0.3089  0.0407  0.1570
    1loPI   GL1    5  14.513   0.579  10.112 -0.0512 -0.0954  0.1626
    1loPI   GL2    6  14.385   0.670   9.971  0.2036 -0.1362  0.0461
    1loPI   C1A    7  14.672   0.299   9.826 -0.3031  0.1576 -0.2170
    1loPI   C2A    8  14.701   0.189   9.379 -0.2189  0.1990  0.2382
    1loPI   C3A    9  14.967   0.209   9.055  0.1533 -0.0512  0.3222
    1loPI   C4A   10  15.359   0.207   8.750  0.1550 -0.3719  0.0278
    1loPI   C5A   11  15.812   0.236   8.501  0.0339 -0.2191  0.1027
    1loPI   C6A   12  16.028   0.714   8.287  0.2587 -0.1205  0.0274
    1loPI   C1B   13  14.417   0.635   9.539  0.1031 -0.1200  0.0717
    1loPI   C2B   14  14.561   0.614   9.158  0.1955 -0.1182  0.1755
    1loPI   C3B   15  14.641   0.327   8.698  0.1025 -0.2995 -0.0922
    1loPI   C4B   16  14.892   0.066   8.424 -0.1856 -0.1821  0.2640
    2loPI    C1   17  16.470  13.663   9.782 -0.2150 -0.0600 -0.0160
    2loPI    C2   18  16.241  13.379   9.946 -0.1107 -0.1699 -0.0587
    2loPI    C3   19  16.628  13.308   9.877 -0.1564 -0.1308 -0.3667
    2loPI   PO4   20  16.333  13.804   9.568 -0.2711 -0.1982  0.0502
    2loPI   GL1   21  16.469  14.075   9.272  0.0133  0.2970  0.0947
    2loPI   GL2   22  16.336  14.327   9.282 -0.1174 -0.1017  0.2455
    2loPI   C1A   23  16.248  14.045   8.839  0.0471 -0.3550 -0.0885
    2loPI   C2A   24  15.920  13.935   8.606  0.0598  0.1616  0.4125
    2loPI   C3A   25  15.670  13.991   8.248 -0.1161 -0.2785 -0.0544
    2loPI   C4A   26  15.539  14.020   7.731 -0.1350 -0.0130 -0.1106
    2loPI   C5A   27  15.092  13.945   7.414  0.1013  0.0280 -0.0824
    2loPI   C6A   28  14.738  13.696   7.260  0.5175  0.1502  0.1322
    2loPI   C1B   29  16.562  14.429   8.894  0.2001  0.0729 -0.3116
    2loPI   C2B   30  16.630  14.368   8.494 -0.1632 -0.1306 -0.0036
    2loPI   C3B   31  16.558  14.520   8.119 -0.1323  0.2806  0.1180
    2loPI   C4B   32  16.355  14.582   7.692 -0.1317 -0.1439  0.0126
    3loPI    C1   33   0.748   8.195   9.159  0.1343  0.0176  0.0384
    3loPI    C2   34   0.729   7.814   9.279  0.0714 -0.0141 -0.0713
    3loPI    C3   35   1.015   8.054   9.422  0.0567 -0.0777  0.0666
    3loPI   PO4   36   0.841   8.237   8.939 -0.2094 -0.0669  0.0177
    3loPI   GL1   37   1.019   8.196   8.573 -0.1045  0.1628 -0.2875
    3loPI   GL2   38   0.987   8.459   8.414 -0.1495  0.1113 -0.0940
    3loPI   C1A   39   1.311   8.158   8.127 -0.0818 -0.1939  0.0063
    3loPI   C2A   40   1.395   8.133   7.756  0.0693  0.0527  0.0445
    3loPI   C3A   41   1.668   8.034   7.366 -0.0079  0.0114 -0.0634
    3loPI   C4A   42   1.674   7.928   6.945 -0.2310 -0.1339 -0.1523
    3loPI   C5A   43   1.574   7.460   6.857 -0.3903  0.3651 -0.2470
    3loPI   C6A   44   1.744   7.060   6.871 -0.1059 -0.0588  0.0552
    3loPI   C1B   45   1.184   8.876   8.259  0.1753  0.0543  0.3176
    3loPI   C2B   46   1.408   9.059   7.910  0.0827  0.0094  0.1415
    3loPI   C3B   47   1.599   9.180   7.560  0.3906  0.0951 -0.2756
    3loPI   C4B   48   1.810   9.273   7.225 -0.1411 -0.1190 -0.4023
    4loPI    C1   49   5.019  14.818   9.956  0.0110 -0.3300  0.3333
    4loPI    C2   50   5.345  14.658  10.125  0.2181 -0.1916  0.0716
    4loPI    C3   51   5.186  14.994  10.275  0.3198 -0.1446  0.0752
    4loPI   PO4   52   5.084  14.811   9.698  0.1036  0.0157  0.1685
    4loPI   GL1   53   5.114  14.660   9.267 -0.1927  0.0769 -0.0045
    4loPI   GL2   54   5.360  14.736   9.170  0.1965 -0.1320  0.2319
    4loPI   C1A   55   4.894  14.942   9.006  0.2370  0.0925 -0.0522
    4loPI   C2A   56   4.880  15.243   8.815  0.3076  0.0643  0.1956
    4loPI   C3A   57   5.116  15.528   8.543 -0.2371 -0.0469 -0.1580
    4loPI   C4A   58   5.488  15.670   8.502 -0.1562  0.0479  0.3542
    4loPI   C5A   59   5.680  15.988   8.406  0.1160 -0.2476  0.0657
    4loPI   C6A   60   5.744  16.362   8.194 -0.0429 -0.0881 -0.3696
    4loPI   C1B   61   5.257  14.695   8.751 -0.0788 -0.1091  0.0330
    4loPI   C2B   62   5.144  14.992   8.491 -0.1387  0.0044 -0.0248
    4loPI   C3B   63   5.352  15.265   8.199  0.0219 -0.4590 -0.2287
    4loPI   C4B   64   5.436  15.698   7.921  0.3668  0.0124 -0.2719
    5loPI    C1   65  14.135   1.819  10.631  0.1054  0.0175 -0.1001
    5loPI    C2   66  13.937   2.058  10.884  0.4015  0.1805 -0.0183
    5loPI    C3   67  14.327   1.986  10.939  0.3076 -0.3669 -0.0113
    5loPI   PO4   68  14.054   1.894  10.365  0.2112 -0.0210  0.0663
    5loPI   GL1   69  14.114   1.840   9.940 -0.3906 -0.2920 -0.1246
    5loPI   GL2   70  13.931   1.527  10.106  0.0529  0.1582 -0.1098
    5loPI   C1A   71  13.777   2.051   9.569  0.2769  0.1850  0.0128
    5loPI   C2A   72  13.638   2.262   9.124  0.0008 -0.0687  0.1358
    5loPI   C3A   73  13.662   2.438   8.605 -0.3012  0.2410  0.1753
    5loPI   C4A   74  13.986   2.646   8.282  0.0179  0.0730 -0.0417
    5loPI   C5A   75  14.307   2.922   8.063  0.1258 -0.1448  0.3075
    5loPI   C6A   76  14.690   2.959   7.821  0.1156 -0.1982  0.2612
    5loPI   C1B   77  13.758   1.467   9.662 -0.1403 -0.0717  0.2894
    5loPI   C2B   78  13.423   1.344   9.329  0.0743  0.0546  0.0571
    5loPI   C3B   79  13.248   1.272   8.941 -0.1833  0.0118  0.0859
    5loPI   C4B   80  13.278   1.460   8.498 -0.3201  0.1581  0.2742
    6loPI    C1   81   0.636   0.975   9.515 -0.0146 -0.1378 -0.0450
    6loPI    C2   82   0.780   0.656   9.708  0.2382  0.0007  0.0001
    6loPI    C3   83   0.600   0.948   9.913  0.3130  0.0465  0.0009
    6loPI   PO4   84   0.814   0.950   9.321  0.1836  0.0256  0.2547
    6loPI   GL1   85   0.901   0.627   9.043 -0.4374  0.1130 -0.3977
    6loPI   GL2   86   1.081   0.469   9.148 -0.0120  0.1402 -0.1155
    6loPI   C1A   87   0.795   0.689   8.562 -0.0432 -0.4492 -0.2049
    6loPI   C2A   88   0.672   0.500   8.180  0.1067  0.1388  0.0651
    6loPI   C3A   89   0.582   0.434   7.811 -0.2182 -0.3313  0.0691
    6loPI   C4A   90   0.210   0.485   7.408  0.2512 -0.3125 -0.2868
    6loPI   C5A   91  -0.077   0.934   7.473  0.2714  0.1234  0.0282
    6loPI   C6A   92  -0.466   1.232   7.440 -0.0582  0.1856  0.1080
    6loPI   C1B   93   1.031   0.148   8.808 -0.3089  0.3776 -0.1164
    6loPI   C2B   94   0.958   0.097   8.357 -0.0963 -0.0455 -0.0820
    6loPI   C3B   95   1.022  -0.126   8.016  0.3608 -0.0386 -0.1256
    6loPI   C4B   96   0.819  -0.072   7.713  0.0663 -0.0338 -0.0341
    7loPI    C1   97   6.276   2.249   8.991 -0.2250 -0.2112 -0.1393
    7loPI    C2   98   6.070   2.574   8.885 -0.3890 -0.2213  0.1372
    7loPI    C3   99   5.878   2.255   9.031 -0.1786 -0.2275  0.4077
    7loPI   PO4  100   6.509   2.239   9.134 -0.3072  0.1525 -0.0479
    7loPI   GL1  101   6.949   2.270   9.034  0.3199 -0.0458 -0.1346
    7loPI   GL2  102   7.032   2.609   9.115  0.1038  0.2428 -0.2059
    7loPI   C1A  103   6.989   2.067   8.619 -0.0628  0.0834  0.0659
    7loPI   C2A  104   7.041   1.976   8.342  0.3395  0.0170 -0.3451
    7loPI   C3A  105   7.042   1.717   7.990 -0.0962  0.0614 -0.1093
    7loPI   C4A  106   6.882   1.536   7.634  0.0669  0.0646  0.0051
    7loPI   C5A  107   6.663   1.170   7.471  0.2653 -0.0332  0.0039
    7loPI   C6A  108   6.204   1.248   7.376 -0.0388  0.0930 -0.1644
    7loPI   C1B  109   7.135   2.584   8.600 -0.0281 -0.1899 -0.0464
    7loPI   C2B  110   7.015   2.510   8.224  0.0632  0.1841 -0.2744
    7loPI   C3B  111   7.020   2.685   7.852  0.1570  0.0214  0.1726
    7loPI   C4B  112   7.330   2.803   7.546 -0.1039  0.0221  0.0025
    8loPI    C1  113  14.768  15.596  10.413  0.0508  0.0012  0.0191
    8loPI    C2  114  14.647  15.685  10.784 -0.0416 -0.1802  0.0336
    8loPI    C3  115  14.908  15.388  10.724  0.0917 -0.0505 -0.0337
    8loPI   PO4  116  14.845  15.819  10.264  0.2993 -0.1730 -0.2440
    8loPI   GL1  117  14.784  15.825   9.845  0.1745  0.1040  0.0076
    8loPI   GL2  118  14.623  15.499   9.853 -0.0091 -0.0847 -0.3043
    8loPI   C1A  119  14.658  16.058   9.536 -0.2213  0.2256  0.2955
    8loPI   C2A  120  14.363  16.340   9.492  0.1797 -0.2465 -0.2095
    8loPI   C3A  121  14.210  16.487   9.038  0.2180 -0.1904  0.2942
    8loPI   C4A  122  14.149  16.753   8.688  0.1946 -0.0447 -0.2017
    8loPI   C5A  123  14.210  16.796   8.294  0.1793  0.3562 -0.0511
    8loPI   C6A  124  14.006  16.698   7.928 -0.1331 -0.2962 -0.2717
    8loPI   C1B  125  14.626  15.584   9.358  0.0770  0.0304  0.1145
    8loPI   C2B  126  14.509  15.482   8.890  0.0706  0.2314 -0.1215
    8loPI   C3B  127  14.498  15.627   8.455 -0.0258 -0.0609 -0.1676
    8loPI   C4B  128  14.065  15.671   8.186  0.1705 -0.1875 -0.2439
    9loPI    C1  129  18.741  17.924  10.140  0.0841 -0.1869  0.0815
    9loPI    C2  130  18.688  17.568  10.315 -0.1759 -0.0899  0.2062
    9loPI    C3  131  19.040  17.658  10.146 -0.0950 -0.3885  0.2099
    9loPI   PO4  132  18.503  17.990   9.885  0.3355 -0.0356 -0.1146
    9loPI   GL1  133  18.409  18.247   9.465 -0.3194 -0.2510  0.0298
    9loPI   GL2  134  18.602  18.008   9.274  0.0306 -0.3353 -0.0406
    9loPI   C1A  135  18.192  18.421   9.086 -0.1946  0.0249  0.1931
    9loPI   C2A  136  18.115  18.292   8.675  0.1912 -0.1258  0.0302
    9loPI   C3A  137  18.332  18.058   8.421  0.3398  0.2367  0.2111
    9loPI   C4A  138  18.351  17.795   8.040 -0.2077 -0.2468 -0.0967
    9loPI   C5A  139  18.231  17.809   7.537 -0.2702  0.0882  0.1035
    9loPI   C6A  140  18.105  18.009   7.164 -0.0258 -0.1455 -0.1917
    9loPI   C1B  141  18.661  18.103   8.898 -0.1546 -0.0573  0.1945
    9loPI   C2B  142  18.859  18.125   8.511  0.1491  0.1976 -0.1091
    9loPI   C3B  143  18.747  18.089   8.033  0.1386 -0.1023  0.0775
    9loPI   C4B  144  18.567  18.116   7.588 -0.1851  0.5705 -0.0832
   10loPI    C1  145   0.720   6.658   9.530 -0.1913  0.0522 -0.0458
   10loPI    C2  146   0.849   6.900   9.821 -0.1363  0.0071 -0.0324
   10loPI    C3  147   0.600   6.598   9.907 -0.1676  0.0302 -0.0417
   10loPI   PO4  148   0.653   6.806   9.281 -0.1824 -0.0931  0.3058
   10loPI   GL1  149   0.806   6.848   8.898 -0.2354 -0.1433 -0.2122
   10loPI   GL2  150   0.484   6.667   8.837 -0.0860 -0.0648  0.1929
   10loPI   C1A  151   0.862   7.099   8.550 -0.0274  0.3050 -0.0594
   10loPI   C2A  152   1.085   7.281   8.265 -0.0050  0.7216  0.3987
   10loPI   C3A  153   0.978   7.203   7.880  0.0665  0.1268  0.0737
   10loPI   C4A  154   0.946   7.312   7.471 -0.0497  0.0281  0.1884
   10loPI   C5A  155   0.631   7.397   7.348  0.1901  0.0837  0.1967
   10loPI   C6A  156   0.168   7.170   7.307  0.0895 -0.4016  0.0124
   10loPI   C1B  157   0.550   6.770   8.440 -0.0672 -0.0858  0.4286
   10loPI   C2B  158   0.566   6.791   8.010  0.1340  0.1039  0.1904
   10loPI   C3B  159   0.706   6.890   7.521  0.0579 -0.4401  0.1218
   10loPI   C4B  160   0.823   6.787   7.172 -0.2979  0.0427 -0.4145
   11loPI    C1  161   0.831   1.866   9.807 -0.0672  0.1437  0.2154
   11loPI    C2  162   1.120   1.940  10.074  0.0820  0.0340  0.0861
   11loPI    C3  163   1.162   1.641   9.811 -0.0874  0.1076 -0.0261
   11loPI   PO4  164   0.590   1.939   9.553 -0.2032  0.0057  0.1065
   11loPI   GL1  165   0.854   1.941   9.123 -0.2372 -0.1046  0.3698
   11loPI   GL2  166   0.767   2.205   8.842  0.0707 -0.0968  0.0945
   11loPI   C1A  167   0.945   1.727   8.748  0.0391 -0.1266  0.1975
   11loPI   C2A  168   0.959   1.638   8.318  0.1004  0.0836 -0.1137
   11loPI   C3A  169   0.802   1.711   7.886 -0.1789 -0.0008  0.2536
   11loPI   C4A  170   0.716   1.718   7.500 -0.0020 -0.1381 -0.1205
   11loPI   C5A  171   0.901   1.915   7.070  0.0584 -0.2925  0.0145
   11loPI   C6A  172   1.206   2.231   6.863 -0.0566  0.1039  0.1491
   11loPI   C1B  173   0.831   2.364   8.505  0.0101  0.2756 -0.0012
   11loPI   C2B  174   0.943   2.210   8.042  0.0225  0.1446 -0.0325
   11loPI   C3B  175   1.225   2.240   7.661 -0.0365 -0.3079 -0.2586
   11loPI   C4B  176   1.325   2.058   7.303 -0.1673 -0.1548  0.1310
   12loPI    C1  177   4.989   0.426  10.067  0.0999 -0.0412  0.1905
   12loPI    C2  178   4.636   0.431   9.879  0.2429 -0.1547 -0.0859
   12loPI    C3  179   4.652   0.369  10.274 -0.0846  0.4059  0.0251
   12loPI   PO4  180   5.117   0.192   9.813 -0.0303  0.0040 -0.2579
   12loPI   GL1  181   4.747  -0.007   9.515  0.1687  0.0888  0.0113
   12loPI   GL2  182   4.528   0.121   9.287 -0.0790 -0.0998  0.3252
   12loPI   C1A  183   4.987  -0.056   9.170  0.0394 -0.0484  0.1835
   12loPI   C2A  184   5.395  -0.205   8.842  0.0208 -0.3904  0.2207
   12loPI   C3A  185   5.720  -0.466   8.591  0.1232  0.0171 -0.1033
   12loPI   C4A  186   5.943  -0.461   8.231 -0.0160  0.0942 -0.0417
   12loPI   C5A  187   6.161  -0.591   7.821 -0.3171  0.0262  0.3044
   12loPI   C6A  188   6.451  -0.395   7.536 -0.1942 -0.2805  0.2795
   12loPI   C1B  189   4.467  -0.115   8.881  0.0755  0.2644  0.2077
   12loPI   C2B  190   4.372  -0.242   8.437  0.3744  0.0874 -0.1555
   12loPI   C3B  191   4.673  -0.407   8.080  0.0650 -0.2226  0.1162
   12loPI   C4B  192   4.942  -0.741   8.042 -0.0130 -0.0682  0.1875
   13loPI    C1  193  13.146   9.040   9.762 -0.0678 -0.2807 -0.0644
   13loPI    C2  194  12.843   9.189   9.548  0.1337  0.0191 -0.1472
   13loPI    C3  195  12.895   9.303   9.929 -0.1027 -0.3560  0.0026
   13loPI   PO4  196  13.307   8.989   9.571  0.1026  0.0805 -0.0883
   13loPI   GL1  197  13.480   9.193   9.208 -0.0230  0.0791 -0.1684
   13loPI   GL2  198  13.680   9.553   9.129  0.1842 -0.0047 -0.1835
   13loPI   C1A  199  13.202   9.110   8.839 -0.1925 -0.1462  0.1821
   13loPI   C2A  200  13.116   9.139   8.384  0.3412  0.0428 -0.1196
   13loPI   C3A  201  12.912   9.371   8.166 -0.1737  0.2898  0.1794
   13loPI   C4A  202  13.055   9.323   7.630  0.0742 -0.5231  0.0995
   13loPI   C5A  203  13.151   9.784   7.482  0.3710 -0.2813  0.0046
   13loPI   C6A  204  13.504   9.939   7.387 -0.1788 -0.2146  0.0526
   13loPI   C1B  205  13.766   9.289   8.687  0.2650  0.1870 -0.0671
   13loPI   C2B  206  13.715   9.046   8.279  0.2630  0.0017 -0.4088
   13loPI   C3B  207  13.842   8.634   8.000  0.1395 -0.1666 -0.1676
   13loPI   C4B  208  13.824   8.312   7.777  0.1197  0.0254  0.3419
   14loPI    C1  209   0.779  13.284   9.209  0.1586 -0.2523 -0.1658
   14loPI    C2  210   0.679  12.918   9.336 -0.1064 -0.0819  0.1309
   14loPI    C3  211   0.756  13.208   9.601  0.2496  0.0425 -0.1009
   14loPI   PO4  212   0.999  13.254   8.919 -0.1203 -0.2615 -0.0299
   14loPI   GL1  213   1.035  13.035   8.491  0.3420 -0.1239 -0.2551
   14loPI   GL2  214   1.163  12.781   8.439 -0.0991  0.2294  0.4125
   14loPI   C1A  215   0.734  13.047   8.171  0.0545  0.2804 -0.2765
   14loPI   C2A  216   0.713  12.961   7.707  0.0290 -0.2845  0.3559
   14loPI   C3A  217   0.750  12.717   7.331  0.2449 -0.2905  0.2070
   14loPI   C4A  218   0.845  12.404   7.145  0.1929  0.0724  0.2439
   14loPI   C5A  219   1.109  12.251   6.791 -0.2399 -0.3045  0.0353
   14loPI   C6A  220   1.251  11.891   6.562 -0.0500 -0.2229  0.2483
   14loPI   C1B  221   1.146  12.785   7.978  0.1477  0.0172  0.2542
   14loPI   C2B  222   1.283  12.898   7.631 -0.2857 -0.1045 -0.1840
   14loPI   C3B  223   1.551  13.132   7.305 -0.0708  0.2103 -0.1080
   14loPI   C4B  224   1.488  13.180   6.903  0.0908  0.2001  0.1382
   15loPI    C1  225  13.950  15.480  10.622 -0.0595  0.2408  0.0262
   15loPI    C2  226  14.238  15.440  10.896  0.0922 -0.0151 -0.1658
   15loPI    C3  227  13.857  15.483  11.011  0.1399 -0.2325  0.0845
   15loPI   PO4  228  14.008  15.337  10.414 -0.0884 -0.1863 -0.0850
   15loPI   GL1  229  13.790  15.228  10.088  0.1816 -0.2662  0.3646
   15loPI   GL2  230  13.913  15.515   9.979  0.0449 -0.0386 -0.0437
   15loPI   C1A  231  13.877  15.021   9.682  0.3403 -0.2972 -0.1772
   15loPI   C2A  232  13.657  14.859   9.376  0.2171  0.1295  0.3163
   15loPI   C3A  233  13.540  14.804   8.958  0.1371  0.1900 -0.1417
   15loPI   C4A  234  13.616  14.941   8.536  0.2090  0.0681  0.4122
   15loPI   C5A  235  13.464  14.976   8.092 -0.4078 -0.2302 -0.0360
   15loPI   C6A  236  13.590  14.954   7.672 -0.3427 -0.0936  0.0594
   15loPI   C1B  237  14.191  15.738   9.602 -0.2884  0.2902  0.0468
   15loPI   C2B  238  14.187  15.902   9.188  0.1420 -0.0914 -0.0666
   15loPI   C3B  239  14.087  15.823   8.680  0.1669  0.2649 -0.1797
   15loPI   C4B  240  13.744  15.871   8.444  0.2200 -0.2260 -0.0981
   16loPI    C1  241  13.540  18.194  10.638 -0.2439  0.3775  0.0797
   16loPI    C2  242  13.389  17.866  10.466  0.2269  0.2406 -0.0891
   16loPI    C3  243  13.218  18.016  10.795 -0.0223 -0.1441 -0.0370
   16loPI   PO4  244  13.780  18.234  10.601 -0.0682  0.2903 -0.0048
   16loPI   GL1  245  13.888  17.928  10.190  0.0243 -0.0606  0.1899
   16loPI   GL2  246  13.681  17.628  10.100  0.1031 -0.0398  0.0759
   16loPI   C1A  247  13.943  17.912   9.680 -0.2123  0.0593  0.1197
   16loPI   C2A  248  14.020  18.103   9.367 -0.1715  0.0736 -0.1224
   16loPI   C3A  249  14.202  18.182   8.992  0.0093 -0.2253  0.0882
   16loPI   C4A  250  14.176  18.119   8.612 -0.2169 -0.2125  0.0670
   16loPI   C5A  251  13.826  18.021   8.265 -0.1054 -0.0702 -0.1565
   16loPI   C6A  252  13.435  17.804   8.342  0.3535 -0.0280 -0.0916
   16loPI   C1B  253  13.476  18.048   9.977  0.2519 -0.1551 -0.1947
   16loPI   C2B  254  13.555  18.218   9.605 -0.1088  0.4332  0.2854
   16loPI   C3B  255  13.453  18.561   9.271  0.0001 -0.3372  0.2374
   16loPI   C4B  256  13.531  18.714   8.912  0.0902  0.2147  0.2129
   17loPI    C1  257   0.982  10.430   9.116 -0.2708 -0.0486  0.0915
   17loPI    C2  258   1.293  10.236   8.955 -0.1854 -0.0202  0.2203
   17loPI    C3  259   0.982  10.341   8.726 -0.0877 -0.0239  0.0847
   17loPI   PO4  260   1.185  10.606   9.224 -0.0456  0.2237  0.2034
   17loPI   GL1  261   1.484  10.764   8.995 -0.1120  0.0507 -0.2935
   17loPI   GL2  262   1.671  10.698   8.847  0.1694 -0.2924  0.1328
   17loPI   C1A  263   1.431  11.081   8.625 -0.1631  0.0966 -0.1028
   17loPI   C2A  264   1.506  11.374   8.320 -0.2800 -0.2368  0.1907
   17loPI   C3A  265   1.708  11.645   7.947 -0.1755  0.0150 -0.0437
   17loPI   C4A  266   1.644  11.546   7.477 -0.0146 -0.2339  0.3352
   17loPI   C5A  267   1.459  11.559   7.008  0.1768  0.1429  0.1557
   17loPI   C6A  268   1.004  11.749   6.981 -0.0456  0.2636 -0.2966
   17loPI   C1B  269   1.708  10.716   8.332  0.0653 -0.2937 -0.1285
   17loPI   C2B  270   1.664  10.383   7.964 -0.0289  0.1766 -0.2142
   17loPI   C3B  271   1.743  10.159   7.597  0.0853  0.1926  0.0151
   17loPI   C4B  272   1.901   9.895   7.356 -0.1912 -0.2696 -0.1218
   18loPI    C1  273   7.619  16.302  10.384 -0.0735  0.0008 -0.0236
   18loPI    C2  274   7.900  16.118  10.602 -0.0223  0.0657 -0.0345
   18loPI    C3  275   7.528  16.155  10.745 -0.0157  0.0143 -0.0034
   18loPI   PO4  276   7.848  16.524  10.208 -0.1298  0.2973 -0.3441
   18loPI   GL1  277   8.193  16.485  10.029 -0.0734  0.0987 -0.0577
   18loPI   GL2  278   8.245  16.136   9.792  0.0123  0.0642 -0.3012
   18loPI   C1A  279   8.299  16.681   9.643  0.0078  0.1139  0.0230
   18loPI   C2A  280   8.762  16.846   9.510  0.2137  0.2014 -0.0358
   18loPI   C3A  281   8.944  16.850   9.085 -0.1038  0.0489  0.1299
   18loPI   C4A  282   9.175  16.830   8.751 -0.1839 -0.0926  0.0397
   18loPI   C5A  283   9.169  16.821   8.381 -0.1353  0.0268 -0.0332
   18loPI   C6A  284   9.083  16.844   7.897  0.1690 -0.0193 -0.0753
   18loPI   C1B  285   8.238  16.222   9.394  0.2315 -0.0017  0.3153
   18loPI   C2B  286   8.131  16.245   8.910 -0.0182 -0.0948 -0.1183
   18loPI   C3B  287   8.207  16.248   8.448  0.5038 -0.0156  0.0177
   18loPI   C4B  288   8.435  16.121   8.014  0.0059 -0.0782  0.1195
   19loPI    C1  289  14.408   8.143   9.677  0.0268 -0.2096 -0.0565
   19loPI    C2  290  14.052   8.323   9.701  0.2132  0.1218  0.3744
   19loPI    C3  291  14.145   8.030   9.957  0.1115 -0.2356  0.0133
   19loPI   PO4  292  14.502   8.154   9.448 -0.0911  0.2051 -0.0161
   19loPI   GL1  293  14.454   8.011   9.143 -0.1878  0.0100  0.1989
   19loPI   GL2  294  14.147   7.936   9.186  0.1632 -0.3013 -0.0750
   19loPI   C1A  295  14.367   7.968   8.695 -0.1123  0.0433 -0.0297
   19loPI   C2A  296  14.503   7.812   8.298  0.2302  0.2065  0.0095
   19loPI   C3A  297  14.704   7.632   8.034 -0.2946  0.3313  0.3184
   19loPI   C4A  298  15.204   7.467   7.815  0.3342 -0.0702 -0.0878
   19loPI   C5A  299  15.496   7.666   7.704  0.1180  0.3751 -0.3108
   19loPI   C6A  300  15.679   8.076   7.725 -0.1094 -0.0725 -0.1714
   19loPI   C1B  301  14.238   7.532   8.884  0.2452 -0.3495  0.2883
   19loPI   C2B  302  14.231   7.355   8.384 -0.0317 -0.0642  0.1312
   19loPI   C3B  303  14.115   7.377   7.948 -0.2105  0.2774  0.0567
   19loPI   C4B  304  14.024   7.344   7.506 -0.1078 -0.0006  0.1015
   20loPI    C1  305  10.721   4.701   9.762  0.1421 -0.2171 -0.2374
   20loPI    C2  306  10.401   4.481   9.665 -0.0609  0.0223 -0.1210
   20loPI    C3  307  10.561   4.452  10.031  0.0857 -0.1368 -0.1963
   20loPI   PO4  308  10.689   4.890   9.667  0.1261 -0.1018 -0.2220
   20loPI   GL1  309  10.883   4.951   9.314 -0.0947  0.1426  0.0008
   20loPI   GL2  310  10.670   5.190   9.154  0.1535  0.1949  0.0416
   20loPI   C1A  311  10.969   4.840   8.904  0.2447 -0.1922  0.0373
   20loPI   C2A  312  10.772   4.943   8.472  0.0849 -0.2231 -0.0760
   20loPI   C3A  313  10.819   4.758   8.118 -0.2704  0.1203 -0.1039
   20loPI   C4A  314  10.753   4.622   7.722  0.2394  0.1350  0.0067
   20loPI   C5A  315  10.793   4.205   7.550  0.2534  0.0892  0.0708
   20loPI   C6A  316  11.108   3.979   7.319 -0.1502 -0.0998 -0.1524
   20loPI   C1B  317  10.555   5.342   8.762  0.1155  0.1479 -0.2992
   20loPI   C2B  318  10.478   5.379   8.319 -0.0684 -0.0374 -0.1268
   20loPI   C3B  319  10.438   5.270   7.887 -0.1854  0.1354 -0.3526
   20loPI   C4B  320  10.393   5.407   7.463 -0.0545 -0.0182  0.0525
   21loPI    C1  321  17.589  10.229   9.508 -0.0634 -0.3868 -0.0954
   21loPI    C2  322  17.246  10.026   9.470 -0.0627 -0.4187  0.0599
   21loPI    C3  323  17.336  10.203   9.817 -0.0787 -0.1232 -0.0837
   21loPI   PO4  324  17.582  10.357   9.138  0.0528  0.0567 -0.0001
   21loPI   GL1  325  17.795  10.419   8.738 -0.2020  0.1223  0.0989
   21loPI   GL2  326  17.517  10.467   8.658  0.0524 -0.1786  0.2554
   21loPI   C1A  327  18.018  10.417   8.348 -0.0850  0.2144 -0.1864
   21loPI   C2A  328  18.010  10.292   7.903  0.0223  0.0461  0.1288
   21loPI   C3A  329  17.919  10.274   7.442  0.1814  0.3320  0.2340
   21loPI   C4A  330  17.804  10.056   7.212  0.1646  0.0889 -0.2647
   21loPI   C5A  331  18.058   9.715   7.032 -0.0812 -0.1547  0.3243
   21loPI   C6A  332  18.121   9.578   6.699 -0.0705 -0.2854  0.2603
   21loPI   C1B  333  17.541  10.364   8.247 -0.0142 -0.0895  0.0462
   21loPI   C2B  334  17.527  10.406   7.698  0.1603 -0.2406  0.2031
   21loPI   C3B  335  17.180  10.688   7.444  0.2140 -0.2295  0.1272
   21loPI   C4B  336  16.776  10.581   7.175  0.0396  0.0014  0.0479
   22loPI    C1  337   1.630  11.441   9.376  0.0665  0.3611 -0.3104
   22loPI    C2  338   1.278  11.381   9.197 -0.1117  0.3828  0.0239
   22loPI    C3  339   1.448  11.086   9.406  0.2020  0.2872 -0.3549
   22loPI   PO4  340   1.831  11.651   9.261 -0.0605  0.0586  0.0233
   22loPI   GL1  341   2.078  11.630   8.878 -0.0013 -0.2093  0.5109
   22loPI   GL2  342   2.114  11.342   8.881  0.0295 -0.1472  0.0803
   22loPI   C1A  343   2.061  11.550   8.394 -0.1262  0.1054 -0.1410
   22loPI   C2A  344   2.194  11.677   7.958 -0.1592 -0.0080 -0.1513
   22loPI   C3A  345   2.110  11.512   7.484 -0.2295 -0.0108  0.0982
   22loPI   C4A  346   2.047  11.279   7.220  0.0230 -0.1646 -0.1509
   22loPI   C5A  347   1.922  10.823   7.209 -0.0048 -0.0088  0.1461
   22loPI   C6A  348   1.925  10.378   7.194 -0.1930 -0.4003  0.2535
   22loPI   C1B  349   1.980  11.071   8.560 -0.1310 -0.2260 -0.2226
   22loPI   C2B  350   1.960  11.133   8.086  0.0462  0.0803 -0.2231
   22loPI   C3B  351   1.822  11.081   7.643 -0.1387 -0.1907 -0.0018
   22loPI   C4B  352   1.432  11.092   7.475 -0.3518 -0.2847 -0.1447
   23loPI    C1  353  18.260  17.359  10.166  0.1127  0.0804  0.1600
   23loPI    C2  354  18.205  17.754  10.135  0.0887  0.0433 -0.3744
   23loPI    C3  355  17.964  17.536  10.368  0.0190  0.3221 -0.1798
   23loPI   PO4  356  18.173  17.249   9.865  0.2388  0.1515 -0.2445
   23loPI   GL1  357  17.953  17.231   9.454 -0.1465  0.0121  0.0127
   23loPI   GL2  358  18.156  17.045   9.261 -0.0142  0.1743  0.2087
   23loPI   C1A  359  17.792  17.538   9.094 -0.1097 -0.1163 -0.2099
   23loPI   C2A  360  17.803  17.795   8.738 -0.0055 -0.1708  0.2910
   23loPI   C3A  361  17.792  17.765   8.309  0.0432  0.0881 -0.2042
   23loPI   C4A  362  17.546  17.636   8.003 -0.2355 -0.1072  0.0424
   23loPI   C5A  363  17.242  17.637   7.699  0.4337 -0.0541 -0.3000
   23loPI   C6A  364  16.951  17.802   7.458  0.1134  0.1778  0.3380
   23loPI   C1B  365  18.296  17.294   9.018  0.1215  0.2308  0.1433
   23loPI   C2B  366  18.384  17.629   8.995 -0.1211  0.1934  0.1154
   23loPI   C3B  367  18.084  17.927   9.130 -0.0586 -0.1006  0.0522
   23loPI   C4B  368  17.722  18.060   9.347 -0.0569  0.0160  0.0821
   24loPI    C1  369   1.187   6.474   9.579 -0.0755  0.0714 -0.0742
   24loPI    C2  370   1.285   6.122   9.741 -0.3238 -0.0376 -0.1570
   24loPI    C3  371   1.520   6.440   9.798 -0.1205 -0.2054 -0.0455
   24loPI   PO4  372   1.123   6.447   9.334 -0.0256 -0.0733  0.0656
   24loPI   GL1  373   0.969   6.393   8.914 -0.3878  0.0441  0.0957
   24loPI   GL2  374   1.255   6.169   8.837 -0.0379 -0.2774 -0.2977
   24loPI   C1A  375   0.707   6.277   8.622 -0.1979 -0.3873  0.0085
   24loPI   C2A  376   0.656   6.347   8.241  0.0292  0.1270  0.0781
   24loPI   C3A  377   0.694   6.328   7.869  0.4405 -0.2010  0.3543
   24loPI   C4A  378   0.985   6.306   7.471 -0.0879 -0.0607  0.2817
   24loPI   C5A  379   0.917   6.327   7.008  0.2515  0.1219 -0.1554
   24loPI   C6A  380   1.251   6.090   6.753  0.3372 -0.2485 -0.3929
   24loPI   C1B  381   1.106   6.034   8.466  0.0782  0.2364  0.4074
   24loPI   C2B  382   1.108   6.075   7.975 -0.3933 -0.1983  0.0984
   24loPI   C3B  383   1.354   6.011   7.652 -0.0847 -0.0293 -0.2786
   24loPI   C4B  384   1.457   6.111   7.261 -0.0837  0.1503  0.0271
   25loPI    C1  385  15.935  11.166   9.591 -0.0843  0.0697  0.0359
   25loPI    C2  386  15.851  11.440   9.312 -0.2211 -0.1102 -0.1016
   25loPI    C3  387  15.810  11.530   9.699 -0.1380  0.1049 -0.1417
   25loPI   PO4  388  15.886  10.938   9.296  0.2049  0.2623 -0.1998
   25loPI   GL1  389  16.005  11.138   8.919  0.0101 -0.2983 -0.0315
   25loPI   GL2  390  15.880  10.945   8.658 -0.0747  0.2175  0.5078
   25loPI   C1A  391  15.887  11.580   8.665  0.0279  0.4232 -0.1378
   25loPI   C2A  392  15.703  11.707   8.351 -0.0188  0.2524  0.1059
   25loPI   C3A  393  15.692  11.901   7.967 -0.4697  0.1447 -0.1368
   25loPI   C4A  394  15.804  11.788   7.592 -0.0629  0.0480  0.3299
   25loPI   C5A  395  15.641  11.821   7.218 -0.2166  0.2737  0.0904
   25loPI   C6A  396  15.688  11.359   7.157 -0.2255 -0.0490 -0.0007
   25loPI   C1B  397  15.867  10.757   8.341  0.2746 -0.1252 -0.0622
   25loPI   C2B  398  15.661  10.717   7.925 -0.1664  0.0024  0.2045
   25loPI   C3B  399  15.652  10.564   7.503  0.0720  0.3193 -0.1233
   25loPI   C4B  400  15.565  10.175   7.433  0.1807  0.0600 -0.0020
   26loPI    C1  401   7.883   2.319  10.004  0.1148  0.1761  0.0281
   26loPI    C2  402   8.283   2.317  10.010  0.1237 -0.3616 -0.2068
   26loPI    C3  403   8.077   2.115  10.288  0.0090 -0.0386 -0.0517
   26loPI   PO4  404   7.834   2.433   9.683 -0.2232 -0.0356  0.1172
   26loPI   GL1  405   7.650   2.406   9.326 -0.1773 -0.2943 -0.1850
   26loPI   GL2  406   7.990   2.526   9.231 -0.1392 -0.0142 -0.0734
   26loPI   C1A  407   7.450   2.426   8.990  0.0122  0.0839 -0.1172
   26loPI   C2A  408   7.500   2.256   8.598  0.0445  0.1118 -0.2772
   26loPI   C3A  409   7.433   2.254   8.205 -0.2905 -0.0636  0.0463
   26loPI   C4A  410   7.188   2.186   7.790  0.0333  0.1319 -0.3385
   26loPI   C5A  411   7.236   1.894   7.382 -0.2212  0.2410  0.1958
   26loPI   C6A  412   6.850   2.093   7.046 -0.1877 -0.1585  0.2033
   26loPI   C1B  413   7.920   2.627   8.807  0.1501  0.0853 -0.0373
   26loPI   C2B  414   7.909   2.517   8.419 -0.0702 -0.1250 -0.0989
   26loPI   C3B  415   8.053   2.371   8.079 -0.0011 -0.2236  0.1269
   26loPI   C4B  416   8.249   2.277   7.638 -0.1025  0.0942 -0.1692
   27loPI    C1  417   9.176   0.482  10.369 -0.1064  0.2333 -0.0872
   27loPI    C2  418   9.458   0.674  10.577 -0.0460 -0.0495  0.0982
   27loPI    C3  419   9.485   0.279  10.522 -0.2603 -0.0352 -0.1256
   27loPI   PO4  420   9.193   0.550  10.134  0.1441  0.3236 -0.1736
   27loPI   GL1  421   9.156   0.442   9.811  0.0083  0.2891 -0.4010
   27loPI   GL2  422   9.076   0.734   9.667 -0.4384  0.0826  0.1561
   27loPI   C1A  423   9.133   0.287   9.317 -0.0110 -0.0998  0.0571
   27loPI   C2A  424   9.371  -0.043   9.099 -0.0098  0.2899  0.3079
   27loPI   C3A  425   9.374  -0.234   8.708 -0.5603  0.2195  0.3209
   27loPI   C4A  426   9.355  -0.165   8.337 -0.1119  0.2268 -0.1319
   27loPI   C5A  427   9.016  -0.214   8.016  0.2017 -0.1958 -0.1215
   27loPI   C6A  428   8.671  -0.536   7.961  0.2194  0.2307  0.2270
   27loPI   C1B  429   9.126   0.845   9.240 -0.3684 -0.0915  0.0285
   27loPI   C2B  430   9.354   0.880   8.764  0.0258  0.0196 -0.1227
   27loPI   C3B  431   9.301   0.671   8.277 -0.2286  0.2013 -0.1311
   27loPI   C4B  432   9.200   0.292   8.031 -0.1255 -0.1116 -0.0561
   28loPI    C1  433   9.046  12.973  10.329  0.2536  0.0327  0.4521
   28loPI    C2  434   8.701  13.164  10.399  0.0038 -0.2460  0.0259
   28loPI    C3  435   8.766  12.803  10.559 -0.0033 -0.2963 -0.0834
   28loPI   PO4  436   9.004  13.151  10.017 -0.0702 -0.0791 -0.1241
   28loPI   GL1  437   9.117  13.026   9.546 -0.1317 -0.3237 -0.4011
   28loPI   GL2  438   8.920  13.252   9.570  0.3266  0.1150 -0.0249
   28loPI   C1A  439   9.168  12.888   9.169  0.2388 -0.2339  0.0614
   28loPI   C2A  440   9.289  13.052   8.698  0.1573  0.2576 -0.0383
   28loPI   C3A  441   9.295  13.363   8.289 -0.3201  0.0658  0.0766
   28loPI   C4A  442   9.057  13.432   7.994 -0.0645  0.1857 -0.1339
   28loPI   C5A  443   8.759  13.460   7.747 -0.0390 -0.6503 -0.1354
   28loPI   C6A  444   8.437  13.275   7.514 -0.0191  0.2461  0.1254
   28loPI   C1B  445   9.072  13.429   9.155  0.3216  0.1883  0.2405
   28loPI   C2B  446   9.034  13.621   8.818 -0.1315  0.0404  0.2921
   28loPI   C3B  447   8.880  13.805   8.338 -0.1684  0.0554  0.2174
   28loPI   C4B  448   8.814  14.146   8.035 -0.2643  0.0802 -0.2661
   29loPI    C1  449   4.141  10.801   9.335  0.0039 -0.2365  0.0275
   29loPI    C2  450   3.951  10.490   9.499  0.1789 -0.1336  0.4368
   29loPI    C3  451   4.056  10.803   9.726  0.0683  0.1958  0.0448
   29loPI   PO4  452   4.324  10.753   9.188  0.3249 -0.0249  0.0297
   29loPI   GL1  453   4.538  10.703   8.819  0.1081  0.1506 -0.2131
   29loPI   GL2  454   4.250  11.022   8.795 -0.1626  0.0945  0.0458
   29loPI   C1A  455   4.462  10.624   8.324  0.1235 -0.0814  0.0980
   29loPI   C2A  456   4.397  10.729   7.818 -0.0071  0.2434 -0.1211
   29loPI   C3A  457   4.178  10.510   7.506  0.1727  0.2181  0.0758
   29loPI   C4A  458   4.267  10.073   7.502  0.0596 -0.0097  0.2500
   29loPI   C5A  459   4.594   9.756   7.293  0.0645  0.3300 -0.1508
   29loPI   C6A  460   4.823   9.577   6.931 -0.2773  0.2562  0.0169
   29loPI   C1B  461   4.186  11.006   8.363  0.4083 -0.0314 -0.0020
   29loPI   C2B  462   4.047  10.935   8.019 -0.1087 -0.2295  0.0258
   29loPI   C3B  463   4.011  11.004   7.591  0.1130 -0.2364 -0.1106
   29loPI   C4B  464   4.156  11.012   7.222 -0.2258  0.2696  0.0673
   30loPI    C1  465  11.550   5.399   9.943 -0.0546 -0.0458  0.1120
   30loPI    C2  466  11.370   5.657   9.695 -0.0832  0.0473  0.2289
   30loPI    C3  467  11.229   5.604  10.066  0.1374  0.1314  0.3266
   30loPI   PO4  468  11.839   5.452   9.853 -0.4511 -0.0753  0.0300
   30loPI   GL1  469  12.140   5.642   9.579 -0.1575 -0.1168 -0.2811
   30loPI   GL2  470  11.828   5.811   9.483 -0.1298 -0.0172  0.1351
   30loPI   C1A  471  12.492   5.755   9.325  0.0450 -0.1035 -0.2243
   30loPI   C2A  472  12.558   5.632   8.910  0.2676 -0.0268 -0.3479
   30loPI   C3A  473  12.762   5.739   8.439  0.0121  0.4792  0.1404
   30loPI   C4A  474  12.913   5.541   8.079  0.4940  0.1884 -0.0987
   30loPI   C5A  475  13.089   5.300   7.790  0.1288 -0.0177  0.0718
   30loPI   C6A  476  12.820   5.026   7.626 -0.1358 -0.2615 -0.1150
   30loPI   C1B  477  12.012   5.591   9.107 -0.1440 -0.1728 -0.3405
   30loPI   C2B  478  12.165   5.480   8.676  0.0520 -0.1063 -0.4514
   30loPI   C3B  479  12.395   5.382   8.424 -0.1128  0.0219 -0.1435
   30loPI   C4B  480  12.448   5.328   8.047 -0.1295 -0.1487 -0.1336
   31loPI    C1  481  15.620  14.808  10.308 -0.0625 -0.0928  0.2012
   31loPI    C2  482  15.679  14.452  10.480 -0.1939 -0.1793  0.0690
   31loPI    C3  483  15.434  14.717  10.650 -0.0809 -0.1435  0.1778
   31loPI   PO4  484  15.886  14.799  10.144  0.3537 -0.0734  0.0311
   31loPI   GL1  485  15.888  15.031   9.729 -0.2682  0.0572  0.0374
   31loPI   GL2  486  15.789  15.367   9.632  0.2948  0.1325 -0.1229
   31loPI   C1A  487  15.596  14.847   9.400  0.0432 -0.0157  0.0223
   31loPI   C2A  488  15.289  14.816   9.135  0.0450 -0.0097  0.6131
   31loPI   C3A  489  14.942  14.597   8.833 -0.0202  0.1138  0.1549
   31loPI   C4A  490  15.076  14.753   8.414  0.2611  0.2230  0.2317
   31loPI   C5A  491  14.875  14.818   8.053  0.1060  0.1068  0.0076
   31loPI   C6A  492  14.503  14.685   7.934 -0.0403 -0.2189  0.3836
   31loPI   C1B  493  15.390  15.266   9.415  0.0940  0.0585 -0.0087
   31loPI   C2B  494  15.322  15.406   9.000  0.0491 -0.0388  0.3689
   31loPI   C3B  495  15.476  15.669   8.648 -0.1701 -0.0423 -0.1639
   31loPI   C4B  496  15.494  15.978   8.201  0.0909  0.1358 -0.2237
   32loPI    C1  497  14.916   4.067  10.284  0.1078 -0.2850  0.0908
   32loPI    C2  498  15.162   4.359  10.403 -0.1723 -0.1191  0.2749
   32loPI    C3  499  15.076   4.056  10.650  0.1063 -0.3543  0.0895
   32loPI   PO4  500  15.006   3.985  10.047 -0.1314  0.1333 -0.1288
   32loPI   GL1  501  15.095   3.987   9.570 -0.0333 -0.0946 -0.3089
   32loPI   GL2  502  15.454   3.905   9.494  0.2808 -0.1558  0.3188
   32loPI   C1A  503  15.121   3.681   9.266  0.2311  0.1301 -0.0654
   32loPI   C2A  504  15.183   3.740   8.795  0.2411 -0.0842  0.0919
   32loPI   C3A  505  15.248   3.722   8.303 -0.0036 -0.1314 -0.2464
   32loPI   C4A  506  15.196   3.725   7.862  0.1872  0.0621 -0.0844
   32loPI   C5A  507  15.191   3.744   7.484 -0.1982  0.0303  0.2181
   32loPI   C6A  508  15.033   3.937   7.143 -0.0983 -0.4353  0.1674
   32loPI   C1B  509  15.623   3.725   9.088  0.3252 -0.2777  0.3168
   32loPI   C2B  510  15.726   3.795   8.738  0.2160 -0.1690  0.2620
   32loPI   C3B  511  15.600   4.060   8.439  0.1043 -0.3350  0.0782
   32loPI   C4B  512  15.564   4.043   8.043  0.1876  0.1013 -0.1682
   33loPI    C1  513   3.215  17.691   9.985  0.1624 -0.0397  0.1303
   33loPI    C2  514   2.874  17.487   9.939  0.0746  0.1023  0.1462
   33loPI    C3  515   3.006  17.573  10.306  0.1310  0.0422  0.1401
   33loPI   PO4  516   3.378  17.579   9.881 -0.0339 -0.0663 -0.0147
   33loPI   GL1  517   3.147  17.348   9.510  0.1690  0.2583 -0.0747
   33loPI   GL2  518   3.156  17.007   9.615  0.0466  0.1825  0.0469
   33loPI   C1A  519   3.139  17.462   9.163 -0.0505  0.1284 -0.2422
   33loPI   C2A  520   2.777  17.772   8.990 -0.1060  0.1513 -0.4116
   33loPI   C3A  521   2.593  18.140   9.017  0.1702 -0.0120 -0.2906
   33loPI   C4A  522   2.577  18.380   8.666 -0.0028 -0.3658 -0.2468
   33loPI   C5A  523   2.681  18.471   8.196 -0.0046 -0.0468  0.1093
   33loPI   C6A  524   2.963  18.533   7.856 -0.0373  0.0736  0.2347
   33loPI   C1B  525   3.081  16.935   9.164 -0.1880  0.1668 -0.2876
   33loPI   C2B  526   3.134  16.845   8.686  0.0790 -0.0501 -0.2692
   33loPI   C3B  527   3.180  17.119   8.433 -0.1304  0.1947 -0.0329
   33loPI   C4B  528   3.114  17.388   8.058 -0.0015  0.0959  0.1419
   34loPI    C1  529   9.935   2.862  10.107  0.0499  0.3311  0.1299
   34loPI    C2  530  10.285   2.806  10.293 -0.0234  0.1925  0.2276
   34loPI    C3  531   9.975   2.565  10.372  0.0117 -0.0203 -0.2490
   34loPI   PO4  532   9.967   2.891   9.864  0.0507  0.2500 -0.0050
   34loPI   GL1  533  10.211   3.200   9.593  0.0824 -0.1255 -0.1557
   34loPI   GL2  534  10.489   2.988   9.488 -0.1881  0.0593 -0.3218
   34loPI   C1A  535  10.165   3.196   9.183 -0.0268  0.1690 -0.0421
   34loPI   C2A  536  10.302   3.295   8.812  0.2607 -0.2867 -0.1227
   34loPI   C3A  537  10.382   3.373   8.414  0.0825  0.1802 -0.0955
   34loPI   C4A  538  10.509   3.309   7.999 -0.0176 -0.0339  0.2052
   34loPI   C5A  539  10.560   3.059   7.671  0.1514 -0.1774 -0.2252
   34loPI   C6A  540  10.330   2.834   7.318 -0.0484 -0.0626  0.0077
   34loPI   C1B  541  10.341   2.741   9.272  0.0816  0.0670 -0.1423
   34loPI   C2B  542  10.281   2.472   8.863 -0.0484 -0.1584 -0.2125
   34loPI   C3B  543  10.316   2.496   8.427 -0.0796 -0.0793  0.0315
   34loPI   C4B  544   9.921   2.411   8.263 -0.1522 -0.0260  0.4504
   35loPI    C1  545  15.611   7.860   9.980 -0.0709  0.1237  0.0119
   35loPI    C2  546  15.893   8.113   9.854 -0.2631  0.2071 -0.2605
   35loPI    C3  547  15.836   8.057  10.246  0.0301  0.3009 -0.2018
   35loPI   PO4  548  15.429   7.936   9.859  0.0465  0.0228  0.3486
   35loPI   GL1  549  15.436   8.371   9.582  0.1521  0.2883 -0.2666
   35loPI   GL2  550  15.661   8.583   9.505 -0.2186  0.1535 -0.1264
   35loPI   C1A  551  15.383   8.512   9.150 -0.1251  0.0185  0.0107
   35loPI   C2A  552  15.361   8.877   8.899  0.0437  0.0594  0.2390
   35loPI   C3A  553  15.423   9.130   8.553 -0.1761 -0.6040  0.3966
   35loPI   C4A  554  15.191   9.311   8.159  0.0864 -0.0040 -0.0610
   35loPI   C5A  555  15.371   9.173   7.768  0.0865  0.0233 -0.6025
   35loPI   C6A  556  15.329   9.184   7.316 -0.0220 -0.0816 -0.1178
   35loPI   C1B  557  15.533   8.980   9.375 -0.3480 -0.2721  0.0049
   35loPI   C2B  558  15.247   9.311   9.193 -0.0285 -0.0601 -0.1086
   35loPI   C3B  559  14.903   9.245   8.864 -0.3205 -0.2017 -0.0836
   35loPI   C4B  560  14.833   9.078   8.441 -0.0702 -0.0530 -0.1087
   36loPI    C1  561   5.776   2.487   9.476  0.0478 -0.1271 -0.0548
   36loPI    C2  562   5.970   2.749   9.708 -0.1680  0.0017 -0.0159
   36loPI    C3  563   6.175   2.510   9.460  0.0207  0.3394 -0.1923
   36loPI   PO4  564   5.545   2.631   9.300 -0.0274 -0.2457 -0.3481
   36loPI   GL1  565   5.434   2.507   8.831  0.2782 -0.3011 -0.2101
   36loPI   GL2  566   5.610   2.778   8.734  0.3947 -0.0467 -0.1128
   36loPI   C1A  567   5.361   2.534   8.403  0.0649  0.0174 -0.1460
   36loPI   C2A  568   5.417   2.458   7.917  0.0573 -0.0976 -0.0454
   36loPI   C3A  569   5.313   2.458   7.382  0.1251  0.1888  0.0245
   36loPI   C4A  570   5.261   2.190   7.070  0.0340  0.1673 -0.2511
   36loPI   C5A  571   5.372   1.763   6.924  0.1226 -0.1598  0.0156
   36loPI   C6A  572   5.237   1.471   6.741  0.3066 -0.0119 -0.2369
   36loPI   C1B  573   5.720   2.971   8.357 -0.2548 -0.3305 -0.1758
   36loPI   C2B  574   5.523   2.991   7.877  0.2524  0.0323  0.1888
   36loPI   C3B  575   5.535   2.937   7.429  0.2268 -0.0715 -0.1852
   36loPI   C4B  576   5.663   2.717   7.081 -0.0628  0.0446 -0.1377
   37loPI    C1  577  17.934  11.554   9.295 -0.0799  0.0140 -0.0485
   37loPI    C2  578  17.682  11.611   9.600  0.1004  0.1675  0.0741
   37loPI    C3  579  17.730  11.245   9.446 -0.2858  0.1564 -0.0314
   37loPI   PO4  580  17.795  11.799   9.146  0.0092 -0.0419 -0.1512
   37loPI   GL1  581  17.823  12.043   8.773 -0.3240 -0.2369 -0.0871
   37loPI   GL2  582  17.933  11.685   8.700 -0.0354 -0.0594 -0.2330
   37loPI   C1A  583  17.489  12.280   8.783  0.0933  0.2792  0.0876
   37loPI   C2A  584  17.276  12.399   8.242  0.1614 -0.1394 -0.1245
   37loPI   C3A  585  17.081  12.463   7.834  0.3671 -0.5098 -0.0744
   37loPI   C4A  586  16.988  12.654   7.445  0.0104  0.1399  0.0504
   37loPI   C5A  587  16.730  12.845   7.176  0.0371  0.0718 -0.5680
   37loPI   C6A  588  16.564  13.187   6.993  0.2395  0.2374  0.0114
   37loPI   C1B  589  17.894  11.720   8.352 -0.0020 -0.0041 -0.2057
   37loPI   C2B  590  17.818  11.488   7.900  0.0331  0.1752 -0.0827
   37loPI   C3B  591  17.469  11.620   7.654  0.0412 -0.0975  0.0025
   37loPI   C4B  592  17.254  11.559   7.388  0.1366 -0.0929  0.0751
   38loPI    C1  593   2.725   5.210   9.614  0.1725  0.1434 -0.0918
   38loPI    C2  594   3.118   5.248   9.677  0.1419  0.2895  0.0177
   38loPI    C3  595   2.859   5.358   9.961  0.0251  0.0446  0.0085
   38loPI   PO4  596   2.675   4.993   9.512 -0.1775  0.4286 -0.0038
   38loPI   GL1  597   2.604   4.971   9.084 -0.0337 -0.2576 -0.0376
   38loPI   GL2  598   2.703   4.947   8.830  0.1611  0.2568 -0.2474
   38loPI   C1A  599   2.311   5.241   8.768 -0.0066  0.0660 -0.1860
   38loPI   C2A  600   2.276   5.207   8.334  0.3334 -0.3579 -0.0898
   38loPI   C3A  601   2.256   4.990   7.989  0.0743 -0.2268  0.0112
   38loPI   C4A  602   2.162   4.688   7.710 -0.4834  0.1770  0.1853
   38loPI   C5A  603   1.961   4.499   7.299  0.1651 -0.2539 -0.0739
   38loPI   C6A  604   1.499   4.326   7.355 -0.0788 -0.0088  0.2060
   38loPI   C1B  605   2.711   5.199   8.521  0.2385 -0.0941 -0.2538
   38loPI   C2B  606   2.820   5.249   8.133 -0.1295  0.1220  0.1132
   38loPI   C3B  607   2.671   5.225   7.705  0.1798 -0.2005  0.2574
   38loPI   C4B  608   2.476   5.359   7.328  0.0156  0.1684 -0.5570
   39loPI    C1  609  16.356   6.722   9.165 -0.0590 -0.1120  0.0224
   39loPI    C2  610  16.106   6.550   9.425 -0.0558 -0.0578  0.0614
   39loPI    C3  611  16.489   6.435   9.410 -0.0790 -0.1293  0.0130
   39loPI   PO4  612  16.193   6.750   8.997  0.0342 -0.1831 -0.0897
   39loPI   GL1  613  16.181   6.607   8.633 -0.1074  0.3223  0.0052
   39loPI   GL2  614  16.481   6.847   8.634  0.2278 -0.2103  0.1818
   39loPI   C1A  615  16.234   6.229   8.417 -0.0531 -0.0849  0.1315
   39loPI   C2A  616  16.342   6.011   8.005  0.1965 -0.1904  0.1655
   39loPI   C3A  617  16.066   5.886   7.656 -0.0178 -0.1015  0.1997
   39loPI   C4A  618  15.755   5.827   7.418  0.6067  0.2585 -0.1502
   39loPI   C5A  619  15.307   5.753   7.314  0.0528  0.2102  0.0096
   39loPI   C6A  620  15.035   5.762   7.608  0.0403  0.0002 -0.1993
   39loPI   C1B  621  16.452   7.006   8.249 -0.2305 -0.0525  0.4679
   39loPI   C2B  622  16.454   6.937   7.738  0.2925 -0.0690  0.1968
   39loPI   C3B  623  16.239   7.218   7.486  0.1013  0.0385 -0.2505
   39loPI   C4B  624  15.776   7.340   7.482  0.3415  0.1002 -0.1483
   40loPI    C1  625   9.683  19.182  10.240 -0.1648 -0.3470 -0.0042
   40loPI    C2  626  10.005  18.974  10.352  0.1509  0.1710  0.0845
   40loPI    C3  627   9.734  19.084  10.624 -0.0687 -0.1977  0.0220
   40loPI   PO4  628   9.736  19.373  10.079 -0.0601 -0.3035 -0.0341
   40loPI   GL1  629   9.477  19.354   9.706  0.1772  0.0510  0.1092
   40loPI   GL2  630   9.155  19.215   9.523  0.3110  0.0594 -0.1062
   40loPI   C1A  631   9.627  19.645   9.459  0.1904  0.1483 -0.0138
   40loPI   C2A  632   9.583  19.892   9.061 -0.1976 -0.2634 -0.0039
   40loPI   C3A  633   9.777  20.020   8.575 -0.3338  0.1634 -0.4654
   40loPI   C4A  634   9.717  20.283   8.205  0.0032  0.1262  0.1570
   40loPI   C5A  635   9.902  20.542   7.943 -0.0444  0.2624  0.1356
   40loPI   C6A  636   9.686  20.752   7.581 -0.0518 -0.0282 -0.2030
   40loPI   C1B  637   9.438  18.873   9.394 -0.0348  0.1467  0.0576
   40loPI   C2B  638   9.416  18.541   9.173 -0.0536  0.2706  0.0441
   40loPI   C3B  639   9.412  18.476   8.729  0.0730  0.1562  0.0583
   40loPI   C4B  640   9.358  18.233   8.422  0.0110  0.1492  0.0279
   41loPI    C1  641  18.423   5.127   9.340 -0.1567  0.0400  0.2484
   41loPI    C2  642  18.175   5.182   9.650 -0.1737 -0.2184  0.2826
   41loPI    C3  643  18.571   5.186   9.707 -0.1772 -0.2998  0.3141
   41loPI   PO4  644  18.446   4.924   9.175  0.1581  0.1411 -0.3035
   41loPI   GL1  645  18.351   4.851   8.848  0.1916  0.0170  0.4792
   41loPI   GL2  646  18.164   4.735   8.762 -0.2095 -0.2289 -0.0692
   41loPI   C1A  647  18.584   4.765   8.483  0.2096  0.1730 -0.0811
   41loPI   C2A  648  18.679   4.710   8.039 -0.2342 -0.0372  0.1480
   41loPI   C3A  649  18.883   4.564   7.632  0.0183 -0.1978 -0.2284
   41loPI   C4A  650  18.686   4.616   7.296 -0.0186  0.3577  0.1127
   41loPI   C5A  651  18.246   4.681   7.320  0.2070 -0.0809  0.0941
   41loPI   C6A  652  17.897   4.983   7.067  0.0516 -0.0546  0.2711
   41loPI   C1B  653  18.063   4.820   8.357  0.1232 -0.0749 -0.0561
   41loPI   C2B  654  17.828   4.990   8.053  0.1581 -0.3005  0.2137
   41loPI   C3B  655  17.828   4.852   7.550  0.1433 -0.0625 -0.4461
   41loPI   C4B  656  17.590   4.570   7.270 -0.2383 -0.1882  0.0033
   42loPI    C1  657   3.161  18.569  10.209  0.0309  0.1462 -0.0558
   42loPI    C2  658   2.859  18.771  10.377 -0.1243 -0.0484 -0.0956
   42loPI    C3  659   3.002  18.442  10.554  0.0846  0.0581 -0.0630
   42loPI   PO4  660   3.208  18.660  10.008 -0.0400 -0.1695  0.1047
   42loPI   GL1  661   3.262  18.501   9.605 -0.0842 -0.0671 -0.1476
   42loPI   GL2  662   3.560  18.703   9.399 -0.0247  0.1815  0.3761
   42loPI   C1A  663   3.001  18.194   9.304 -0.4532  0.1266  0.0069
   42loPI   C2A  664   3.070  18.238   8.913  0.0860 -0.2876 -0.0582
   42loPI   C3A  665   2.944  18.022   8.543 -0.0204 -0.1416 -0.3610
   42loPI   C4A  666   3.039  17.982   8.146  0.1041  0.1061 -0.3192
   42loPI   C5A  667   2.992  17.988   7.776 -0.0607 -0.0353 -0.0088
   42loPI   C6A  668   2.804  17.765   7.435 -0.2714 -0.0779  0.1900
   42loPI   C1B  669   3.369  18.674   8.987  0.0756  0.1120 -0.1107
   42loPI   C2B  670   3.247  18.758   8.600 -0.2711 -0.1432  0.0980
   42loPI   C3B  671   3.573  18.650   8.250  0.5313 -0.0127 -0.2190
   42loPI   C4B  672   3.798  18.577   7.818 -0.0472  0.0547 -0.2038
   43loPI    C1  673  11.173  13.554  10.383 -0.1951 -0.1269  0.0736
   43loPI    C2  674  11.338  13.409  10.717 -0.0348 -0.3316 -0.0919
   43loPI    C3  675  11.391  13.793  10.619  0.1385 -0.3354 -0.0170
   43loPI   PO4  676  11.268  13.348  10.228  0.0817  0.1052 -0.0506
   43loPI   GL1  677  11.304  13.255   9.771 -0.1770  0.0694  0.2101
   43loPI   GL2  678  11.571  13.347   9.803  0.0799  0.0273 -0.3096
   43loPI   C1A  679  11.307  13.432   9.421  0.1686 -0.0923  0.1493
   43loPI   C2A  680  11.457  13.488   9.034  0.1066 -0.0142 -0.3460
   43loPI   C3A  681  11.485  13.495   8.555  0.0418  0.2837 -0.0035
   43loPI   C4A  682  11.782  13.758   8.247  0.0345 -0.0365  0.2110
   43loPI   C5A  683  11.835  13.764   7.868 -0.2140  0.3866 -0.2740
   43loPI   C6A  684  12.008  13.588   7.514 -0.1129 -0.0606 -0.1131
   43loPI   C1B  685  11.800  13.586   9.507 -0.0628 -0.0265 -0.1404
   43loPI   C2B  686  11.809  13.809   9.221  0.3816 -0.0802 -0.0407
   43loPI   C3B  687  11.728  13.906   8.802 -0.0751 -0.3686 -0.0826
   43loPI   C4B  688  11.825  14.151   8.448 -0.0122 -0.3122 -0.2835
   44loPI    C1  689   1.056   5.237   9.367  0.1114 -0.0651 -0.0148
   44loPI    C2  690   1.361   5.014   9.500  0.1647 -0.0105 -0.0449
   44loPI    C3  691   1.146   5.233   9.757  0.0703 -0.1472 -0.0060
   44loPI   PO4  692   1.108   5.342   9.151 -0.2258 -0.1148 -0.2087
   44loPI   GL1  693   1.256   5.203   8.797 -0.2166 -0.3601  0.4674
   44loPI   GL2  694   1.002   5.093   8.533 -0.1786  0.2064  0.0175
   44loPI   C1A  695   1.501   5.468   8.531  0.1225  0.1938 -0.2251
   44loPI   C2A  696   1.659   5.893   8.553  0.2201 -0.4402 -0.0148
   44loPI   C3A  697   1.545   6.243   8.430 -0.2802 -0.1089  0.1310
   44loPI   C4A  698   1.687   6.290   8.074  0.1445 -0.0763  0.1140
   44loPI   C5A  699   1.671   6.396   7.622  0.1518  0.1005 -0.0296
   44loPI   C6A  700   1.675   6.704   7.328 -0.2903  0.2444  0.1113
   44loPI   C1B  701   1.352   5.027   8.260 -0.0141  0.3391 -0.0933
   44loPI   C2B  702   1.494   5.364   8.024  0.0050 -0.1646 -0.1155
   44loPI   C3B  703   1.739   5.847   7.848  0.1682 -0.0917 -0.0929
   44loPI   C4B  704   1.885   5.964   7.506  0.1493 -0.0437 -0.3159
   45loPI    C1  705  11.217  12.492  10.198 -0.0894 -0.1675 -0.0351
   45loPI    C2  706  11.470  12.786  10.100 -0.2651  0.0504  0.1506
   45loPI    C3  707  11.562  12.532  10.395 -0.0663 -0.1500 -0.0790
   45loPI   PO4  708  11.191  12.377   9.967 -0.0481  0.3099  0.3727
   45loPI   GL1  709  11.297  12.678   9.619  0.1455  0.4359  0.2335
   45loPI   GL2  710  11.611  12.763   9.560 -0.0732 -0.0419 -0.2171
   45loPI   C1A  711  11.249  12.824   9.155 -0.0173 -0.0589 -0.1784
   45loPI   C2A  712  11.263  12.848   8.749  0.1831 -0.2841 -0.0839
   45loPI   C3A  713  11.195  12.857   8.333 -0.0220 -0.3869 -0.0046
   45loPI   C4A  714  11.093  12.928   7.883  0.1705 -0.1531  0.1812
   45loPI   C5A  715  10.995  13.268   7.523  0.1005 -0.0807  0.1793
   45loPI   C6A  716  10.582  13.560   7.516 -0.0655  0.1368  0.1934
   45loPI   C1B  717  11.756  13.083   9.206  0.2143 -0.1882  0.0894
   45loPI   C2B  718  11.899  13.358   8.855 -0.0754 -0.1117 -0.1663
   45loPI   C3B  719  11.992  13.367   8.473 -0.1538 -0.1435  0.1328
   45loPI   C4B  720  12.060  13.300   7.986 -0.1151 -0.0948 -0.0081
   46loPI    C1  721  13.770   9.820   9.964 -0.0765  0.1708  0.0592
   46loPI    C2  722  13.985   9.920  10.286  0.1073 -0.0500  0.0083
   46loPI    C3  723  13.586   9.893  10.311  0.1093  0.0655  0.1815
   46loPI   PO4  724  14.049   9.603   9.855 -0.0561 -0.1947 -0.0782
   46loPI   GL1  725  14.072   9.331   9.456 -0.1326 -0.3547 -0.2988
   46loPI   GL2  726  14.096   9.001   9.357 -0.2130  0.1796 -0.0472
   46loPI   C1A  727  14.157   9.616   9.127 -0.0077  0.2916  0.2536
   46loPI   C2A  728  13.989   9.777   8.755 -0.1905 -0.2458  0.0965
   46loPI   C3A  729  13.767   9.973   8.440 -0.4130 -0.1435  0.4069
   46loPI   C4A  730  13.793   9.621   8.137 -0.0220  0.0776 -0.2448
   46loPI   C5A  731  13.484   9.497   7.800 -0.0162 -0.1311 -0.0836
   46loPI   C6A  732  13.622   9.339   7.404  0.0597 -0.0350 -0.2206
   46loPI   C1B  733  13.914   9.018   9.025 -0.1654 -0.0776 -0.1127
   46loPI   C2B  734  13.805   8.756   8.682 -0.1900  0.5380 -0.4364
   46loPI   C3B  735  13.723   8.367   8.461  0.0427  0.0900 -0.0370
   46loPI   C4B  736  13.331   8.038   8.303 -0.0987  0.1681  0.4227
   47loPI    C1  737  17.561   1.209  10.529  0.0870  0.0027  0.0261
   47loPI    C2  738  17.373   1.210  10.882 -0.1165  0.0544 -0.0805
   47loPI    C3  739  17.579   0.887  10.766 -0.1033  0.0131  0.0564
   47loPI   PO4  740  17.339   1.237  10.291  0.0401 -0.1512 -0.2016
   47loPI   GL1  741  17.014   1.012  10.053 -0.3629  0.3433 -0.2345
   47loPI   GL2  742  17.344   1.099   9.829  0.0343  0.1474 -0.1352
   47loPI   C1A  743  16.825   1.263   9.754  0.1969  0.2406  0.0584
   47loPI   C2A  744  16.704   1.627   9.463  0.3078  0.0920 -0.1599
   47loPI   C3A  745  16.771   1.994   9.283  0.5753 -0.1106 -0.1776
   47loPI   C4A  746  17.051   2.163   8.988 -0.0185 -0.2481 -0.2023
   47loPI   C5A  747  17.173   2.040   8.609  0.1885  0.1117  0.0345
   47loPI   C6A  748  17.140   1.698   8.443  0.0422 -0.3737  0.0542
   47loPI   C1B  749  17.554   1.057   9.433 -0.0377  0.2843 -0.0035
   47loPI   C2B  750  17.783   1.041   9.018  0.0944 -0.0644  0.1026
   47loPI   C3B  751  17.655   1.086   8.583 -0.0167  0.2025 -0.0848
   47loPI   C4B  752  17.494   0.906   8.182 -0.1832 -0.2396 -0.0579
   48loPI    C1  753  10.941   2.031  10.398 -0.0008  0.1959  0.1643
   48loPI    C2  754  10.607   2.003  10.617 -0.1155  0.3805  0.0157
   48loPI    C3  755  10.933   2.177  10.771 -0.0511  0.1042  0.1997
   48loPI   PO4  756  10.812   1.932  10.163  0.0930 -0.3136 -0.3616
   48loPI   GL1  757  10.630   2.109   9.877 -0.0975  0.1357 -0.0982
   48loPI   GL2  758  10.723   1.750   9.720  0.2368  0.0248  0.0352
   48loPI   C1A  759  10.686   2.356   9.490 -0.1842 -0.3010 -0.3470
   48loPI   C2A  760  10.721   2.398   9.130 -0.2511  0.1866  0.3132
   48loPI   C3A  761  10.870   2.276   8.886 -0.0035 -0.0852 -0.1155
   48loPI   C4A  762  10.842   2.202   8.494  0.0111  0.1183 -0.0364
   48loPI   C5A  763  10.776   2.316   8.115 -0.0927  0.1751  0.1917
   48loPI   C6A  764  10.526   2.490   7.786  0.1569 -0.2670  0.0931
   48loPI   C1B  765  10.938   1.969   9.360  0.0428  0.0153  0.0998
   48loPI   C2B  766  11.139   1.834   8.891 -0.3512  0.0206  0.3163
   48loPI   C3B  767  11.353   1.985   8.591  0.1455  0.4018 -0.3624
   48loPI   C4B  768  11.673   1.860   8.341  0.1299  0.4404 -0.1860
   49loPI    C1  769  12.465  12.279  10.292 -0.1202  0.2536  0.2807
   49loPI    C2  770  12.450  11.888  10.375  0.2026  0.1988  0.1009
   49loPI    C3  771  12.799  12.082  10.390  0.1477  0.3481 -0.3864
   49loPI   PO4  772  12.453  12.332   9.970  0.2259  0.1793  0.2620
   49loPI   GL1  773  12.310  12.269   9.603  0.1220  0.3101 -0.2500
   49loPI   GL2  774  12.178  12.491   9.430 -0.0162 -0.0538 -0.2159
   49loPI   C1A  775  12.576  12.235   9.220  0.1388  0.2113  0.1068
   49loPI   C2A  776  12.552  12.236   8.705 -0.1232 -0.0860  0.1432
   49loPI   C3A  777  12.642  12.227   8.277  0.1042 -0.0777 -0.0151
   49loPI   C4A  778  12.894  12.290   7.901 -0.1838 -0.0565 -0.1091
   49loPI   C5A  779  13.058  12.664   7.669  0.3584 -0.0719 -0.1868
   49loPI   C6A  780  13.273  12.989   7.724  0.2899 -0.1984 -0.1483
   49loPI   C1B  781  11.999  12.563   9.079  0.1073  0.1463  0.3903
   49loPI   C2B  782  11.878  12.850   8.813 -0.0942  0.2224 -0.1137
   49loPI   C3B  783  11.707  12.941   8.460 -0.2026  0.3394 -0.2216
   49loPI   C4B  784  11.592  13.052   8.040 -0.3097 -0.0298 -0.1084
   50loPI    C1  785  14.362   5.938   9.914 -0.2632  0.2031  0.1119
   50loPI    C2  786  14.418   6.220  10.192  0.0270  0.0733  0.1888
   50loPI    C3  787  14.684   6.175   9.896 -0.0378 -0.0937  0.1551
   50loPI   PO4  788  14.084   5.982   9.850 -0.1161  0.4214 -0.0300
   50loPI   GL1  789  14.164   6.102   9.422 -0.1378  0.1554 -0.0489
   50loPI   GL2  790  13.885   6.038   9.352  0.0635  0.2500 -0.2310
   50loPI   C1A  791  14.366   5.913   9.082  0.1645 -0.0244 -0.2664
   50loPI   C2A  792  14.202   5.777   8.667  0.0687 -0.1076  0.0300
   50loPI   C3A  793  13.973   5.967   8.455  0.2445 -0.1062 -0.1495
   50loPI   C4A  794  13.694   6.076   8.167 -0.0669 -0.0931 -0.1226
   50loPI   C5A  795  13.545   5.991   7.794 -0.2389 -0.0594  0.2239
   50loPI   C6A  796  13.711   6.002   7.390 -0.4047  0.1472 -0.0747
   50loPI   C1B  797  13.827   5.803   8.981  0.0011  0.2530  0.0528
   50loPI   C2B  798  13.666   5.395   8.767  0.2168  0.1318 -0.2569
   50loPI   C3B  799  13.406   5.316   8.359  0.3393  0.0904 -0.3003
   50loPI   C4B  800  13.567   5.397   7.977 -0.0352 -0.2832  0.1156
   51loPI    C1  801   3.693   5.103   9.261 -0.1352 -0.0565 -0.0264
   51loPI    C2  802   3.688   5.447   9.466 -0.0232  0.0377 -0.1795
   51loPI    C3  803   4.006   5.352   9.244  0.0984 -0.3332  0.1430
   51loPI   PO4  804   3.507   5.124   9.103  0.0823 -0.1392 -0.0834
   51loPI   GL1  805   3.283   5.311   8.758  0.2866  0.1338 -0.1256
   51loPI   GL2  806   3.212   5.065   8.702 -0.1023  0.0905  0.0267
   51loPI   C1A  807   3.371   5.649   8.585 -0.2466  0.1014  0.2037
   51loPI   C2A  808   3.664   5.866   8.315  0.1551  0.2801 -0.0953
   51loPI   C3A  809   3.769   6.208   8.007  0.2012 -0.4981 -0.1814
   51loPI   C4A  810   3.961   6.371   7.718  0.0260 -0.1017 -0.1645
   51loPI   C5A  811   4.045   6.475   7.278 -0.1837  0.0418 -0.1537
   51loPI   C6A  812   3.699   6.630   6.981 -0.0691  0.1468  0.0476
   51loPI   C1B  813   3.272   5.187   8.316 -0.2004  0.3093 -0.2533
   51loPI   C2B  814   3.557   5.189   8.038  0.3893  0.1465  0.2463
   51loPI   C3B  815   3.520   5.023   7.572  0.3067 -0.2861 -0.1718
   51loPI   C4B  816   3.643   4.996   7.131 -0.0126 -0.1510  0.1348
   52loPI    C1  817   4.844  10.168   9.611  0.1683  0.1519 -0.0619
   52loPI    C2  818   5.012  10.108   9.969  0.1542 -0.0818 -0.0929
   52loPI    C3  819   4.617  10.064   9.923  0.1297  0.1298 -0.0973
   52loPI   PO4  820   4.946  10.080   9.431 -0.1212  0.3420 -0.0898
   52loPI   GL1  821   4.972   9.977   8.980 -0.0990 -0.0256  0.1432
   52loPI   GL2  822   4.737  10.181   8.991  0.2050 -0.1088  0.2091
   52loPI   C1A  823   5.129  10.139   8.598  0.0917  0.1688  0.1587
   52loPI   C2A  824   5.113  10.127   8.115 -0.1945  0.0365 -0.0822
   52loPI   C3A  825   5.229  10.282   7.725 -0.0032 -0.0837 -0.0047
   52loPI   C4A  826   5.435  10.420   7.518 -0.4713  0.2447 -0.1676
   52loPI   C5A  827   5.335  10.431   7.104 -0.0740 -0.0758  0.1116
   52loPI   C6A  828   5.347  10.568   6.714  0.0150 -0.0810  0.2787
   52loPI   C1B  829   4.654  10.175   8.567 -0.0392  0.3661  0.1792
   52loPI   C2B  830   4.628  10.183   8.103  0.1601 -0.1383 -0.0137
   52loPI   C3B  831   4.635  10.306   7.758  0.3324  0.0355 -0.1392
   52loPI   C4B  832   4.816  10.219   7.391 -0.0708  0.1048 -0.4977
   53loPI    C1  833   1.197   9.630   9.382  0.1768 -0.0399  0.1387
   53loPI    C2  834   1.595   9.661   9.348  0.1505  0.2260  0.0457
   53loPI    C3  835   1.423   9.678   9.709  0.2377 -0.1055  0.1067
   53loPI   PO4  836   1.160   9.779   9.063 -0.1792 -0.0669 -0.0864
   53loPI   GL1  837   1.225   9.637   8.599 -0.1374  0.0605  0.2472
   53loPI   GL2  838   1.243   9.924   8.432 -0.3066  0.1252 -0.2501
   53loPI   C1A  839   1.113   9.371   8.286  0.2201 -0.2887  0.0600
   53loPI   C2A  840   1.132   9.591   7.904 -0.2066 -0.1688 -0.4081
   53loPI   C3A  841   0.946   9.702   7.512 -0.4256  0.1186 -0.0195
   53loPI   C4A  842   0.934  10.046   7.208  0.1307  0.1404  0.0235
   53loPI   C5A  843   0.742  10.242   6.796  0.0532 -0.2351 -0.2632
   53loPI   C6A  844   0.487  10.037   6.523  0.2747 -0.1379 -0.1705
   53loPI   C1B  845   1.273  10.080   8.019 -0.0251 -0.1364 -0.2040
   53loPI   C2B  846   1.236  10.073   7.669  0.1081 -0.0770 -0.3934
   53loPI   C3B  847   1.260  10.436   7.357 -0.0006  0.1135 -0.0061
   53loPI   C4B  848   1.454  10.677   7.178  0.2640 -0.1007 -0.1529
   54loPI    C1  849  13.748   2.478  10.687  0.2658  0.0943 -0.1668
   54loPI    C2  850  13.833   2.842  10.830  0.0690  0.0825 -0.0159
   54loPI    C3  851  13.719   2.550  11.079  0.0362 -0.0285 -0.1596
   54loPI   PO4  852  13.843   2.583  10.376  0.0079  0.0804  0.2894
   54loPI   GL1  853  13.890   2.622   9.961 -0.1875  0.2618  0.1172
   54loPI   GL2  854  13.946   2.292  10.014  0.2286 -0.2176 -0.1144
   54loPI   C1A  855  13.794   2.522   9.491  0.3181 -0.4453 -0.0616
   54loPI   C2A  856  13.466   2.676   9.199 -0.0737  0.3412  0.1766
   54loPI   C3A  857  13.388   2.895   8.782  0.1512 -0.1103  0.4312
   54loPI   C4A  858  13.380   2.841   8.335  0.1399 -0.2124 -0.1142
   54loPI   C5A  859  13.497   2.550   8.071 -0.2332 -0.1313 -0.1106
   54loPI   C6A  860  13.600   2.089   7.835 -0.0960  0.0000 -0.0726
   54loPI   C1B  861  14.238   2.280   9.598  0.2302 -0.4824  0.2039
   54loPI   C2B  862  14.206   2.114   9.178  0.0169  0.0543  0.0968
   54loPI   C3B  863  13.999   2.058   8.790  0.1960  0.1800 -0.0471
   54loPI   C4B  864  13.853   2.135   8.322 -0.0816  0.0837 -0.0038
   55loPI    C1  865  18.858  10.946   9.659 -0.1181 -0.2124 -0.0925
   55loPI    C2  866  18.914  10.916  10.054  0.1328  0.0992 -0.1004
   55loPI    C3  867  18.548  10.870   9.900  0.0413 -0.0741  0.1615
   55loPI   PO4  868  19.001  10.810   9.428 -0.0801  0.0545 -0.2568
   55loPI   GL1  869  18.968  10.805   8.966 -0.1726 -0.2774  0.1244
   55loPI   GL2  870  18.765  10.590   8.874  0.1518  0.2427  0.0897
   55loPI   C1A  871  19.147  10.958   8.577  0.0805 -0.6234  0.2137
   55loPI   C2A  872  19.091  10.847   8.130 -0.3112 -0.0092 -0.1880
   55loPI   C3A  873  19.361  10.937   7.704 -0.0225 -0.1041 -0.0513
   55loPI   C4A  874  19.476  10.941   7.204 -0.2508  0.1100  0.0540
   55loPI   C5A  875  19.644  11.369   6.930 -0.1049  0.0218 -0.2665
   55loPI   C6A  876  20.000  11.665   6.696  0.0342 -0.1058  0.1230
   55loPI   C1B  877  18.860  10.492   8.382 -0.0029  0.0410 -0.0732
   55loPI   C2B  878  18.867  10.337   7.873 -0.1214  0.3033 -0.1194
   55loPI   C3B  879  18.791  10.024   7.641  0.0081  0.1210  0.0078
   55loPI   C4B  880  18.414  10.016   7.353 -0.0926 -0.1571 -0.0097
   56loPI    C1  881  10.189   0.549  10.342 -0.1800 -0.1600 -0.0230
   56loPI    C2  882  10.018   0.208  10.464 -0.2883 -0.1499 -0.1441
   56loPI    C3  883   9.921   0.554  10.639 -0.0561 -0.1999  0.0906
   56loPI   PO4  884  10.190   0.515  10.135  0.0153 -0.1726  0.1753
   56loPI   GL1  885   9.966   0.320   9.765 -0.1933  0.2131 -0.2298
   56loPI   GL2  886  10.145   0.047   9.705  0.0241 -0.2908 -0.1982
   56loPI   C1A  887  10.073   0.256   9.262 -0.0088 -0.1694 -0.2406
   56loPI   C2A  888   9.860  -0.021   8.869  0.0882 -0.1699 -0.0200
   56loPI   C3A  889   9.812  -0.179   8.492 -0.2681  0.0933 -0.3334
   56loPI   C4A  890   9.598  -0.609   8.368  0.3368 -0.0157  0.2314
   56loPI   C5A  891   9.813  -0.803   8.183 -0.0545 -0.0646  0.1357
   56loPI   C6A  892   9.874  -1.240   8.127  0.3162  0.1496  0.0942
   56loPI   C1B  893  10.405  -0.094   9.373  0.2040 -0.3791 -0.1176
   56loPI   C2B  894  10.586  -0.001   9.018  0.1084  0.1675 -0.0720
   56loPI   C3B  895  10.465   0.027   8.642 -0.0938  0.2015  0.0334
   56loPI   C4B  896  10.652   0.168   8.298  0.0368 -0.2132  0.0372
   57loPI    C1  897  18.274  13.266   9.009 -0.2526  0.2454  0.0231
   57loPI    C2  898  18.286  13.573   9.265  0.1157  0.3089 -0.0637
   57loPI    C3  899  18.624  13.388   9.160 -0.1070 -0.1638  0.0274
   57loPI   PO4  900  17.996  13.318   8.937 -0.1978  0.1095 -0.1087
   57loPI   GL1  901  17.685  13.238   8.629  0.0392 -0.0329 -0.2360
   57loPI   GL2  902  17.994  13.088   8.506  0.2132  0.3988 -0.2804
   57loPI   C1A  903  17.483  13.324   8.189  0.0438 -0.0588 -0.2250
   57loPI   C2A  904  17.214  13.391   7.734 -0.1237  0.1215 -0.3384
   57loPI   C3A  905  16.848  13.391   7.536  0.0555 -0.0177 -0.0671
   57loPI   C4A  906  16.436  13.272   7.617  0.4971  0.3795  0.0384
   57loPI   C5A  907  15.850  13.372   7.720 -0.1709 -0.2100  0.4904
   57loPI   C6A  908  15.596  13.489   7.466 -0.0615  0.0263 -0.2260
   57loPI   C1B  909  17.957  13.206   8.028 -0.1583  0.1328 -0.2263
   57loPI   C2B  910  17.696  13.213   7.795  0.2463  0.2941  0.1175
   57loPI   C3B  911  17.567  13.267   7.411 -0.1675  0.1421 -0.0743
   57loPI   C4B  912  17.612  13.128   6.998 -0.2212 -0.2758  0.0714
   58loPI    C1  913   0.189   4.537   9.382 -0.1196  0.0939  0.0037
   58loPI    C2  914   0.304   4.903   9.495  0.1467  0.0462 -0.1062
   58loPI    C3  915   0.434   4.582   9.695 -0.2722  0.0201  0.1352
   58loPI   PO4  916   0.085   4.515   9.018 -0.2006  0.0370 -0.0243
   58loPI   GL1  917   0.048   4.647   8.672  0.3502 -0.1512 -0.0507
   58loPI   GL2  918   0.248   4.445   8.533  0.2858  0.1679  0.1010
   58loPI   C1A  919  -0.040   4.678   8.172  0.0361  0.1603 -0.1250
   58loPI   C2A  920   0.187   4.550   7.725  0.3801 -0.2728  0.0994
   58loPI   C3A  921   0.439   4.665   7.382 -0.3048 -0.2176 -0.3433
   58loPI   C4A  922   0.725   4.885   7.180  0.3346  0.2089 -0.1012
   58loPI   C5A  923   0.976   5.247   7.073 -0.0061  0.2175 -0.0613
   58loPI   C6A  924   1.072   5.716   7.169  0.0823  0.2595 -0.0619
   58loPI   C1B  925   0.308   4.280   8.189  0.3619  0.1999 -0.0277
   58loPI   C2B  926   0.276   3.954   7.832  0.0352  0.0525 -0.2637
   58loPI   C3B  927   0.460   4.148   7.412  0.3555 -0.0881 -0.1947
   58loPI   C4B  928   0.905   4.270   7.314 -0.0760 -0.0667  0.3119
   59loPI    C1  929  13.140   5.747  10.163 -0.0763  0.0971 -0.1384
   59loPI    C2  930  13.484   5.951  10.163  0.0763 -0.1517  0.1323
   59loPI    C3  931  13.337   5.808  10.506 -0.3852  0.0901  0.0446
   59loPI   PO4  932  13.134   5.563  10.000  0.0547 -0.0737 -0.1739
   59loPI   GL1  933  12.869   5.565   9.615  0.1592  0.1932 -0.0434
   59loPI   GL2  934  12.575   5.670   9.784  0.2313  0.0400  0.0914
   59loPI   C1A  935  12.862   5.356   9.156  0.1482 -0.0645  0.0035
   59loPI   C2A  936  13.222   5.048   8.935 -0.0076 -0.1001  0.1015
   59loPI   C3A  937  13.487   4.743   8.701  0.1456  0.0732  0.0080
   59loPI   C4A  938  13.664   4.417   8.626  0.0645  0.0331  0.2423
   59loPI   C5A  939  13.584   4.145   8.336  0.0622 -0.3463 -0.1061
   59loPI   C6A  940  13.317   4.151   7.904 -0.0184 -0.0108  0.3967
   59loPI   C1B  941  12.330   5.266   9.350 -0.0188 -0.1716  0.1562
   59loPI   C2B  942  12.436   5.147   8.993 -0.0336  0.2532  0.1471
   59loPI   C3B  943  12.426   4.915   8.624 -0.4472 -0.1009 -0.1846
   59loPI   C4B  944  12.214   4.513   8.531  0.3880 -0.3823 -0.0073
   60loPI    C1  945  12.763  18.258  10.754 -0.0925 -0.0290 -0.0798
   60loPI    C2  946  12.554  18.066  11.036 -0.0948 -0.0963 -0.1270
   60loPI    C3  947  12.431  18.423  10.903  0.0191  0.0315  0.1046
   60loPI   PO4  948  12.777  18.131  10.502  0.0749  0.0892  0.0860
   60loPI   GL1  949  12.561  18.077  10.051  0.0780  0.1134 -0.0318
   60loPI   GL2  950  12.479  17.854   9.930 -0.0734 -0.2956 -0.4336
   60loPI   C1A  951  12.515  18.261   9.653 -0.1620 -0.1922 -0.1144
   60loPI   C2A  952  12.616  18.357   9.222  0.2346  0.1848  0.3388
   60loPI   C3A  953  12.584  18.369   8.823  0.2096 -0.0457 -0.2332
   60loPI   C4A  954  12.688  18.215   8.375 -0.1822 -0.0557 -0.1022
   60loPI   C5A  955  12.874  18.221   8.089 -0.2479  0.1667  0.0549
   60loPI   C6A  956  13.011  18.415   7.719  0.0879  0.0553 -0.0103
   60loPI   C1B  957  12.544  17.803   9.508 -0.1947 -0.0002 -0.0123
   60loPI   C2B  958  12.792  17.667   9.057 -0.0517 -0.0779  0.1491
   60loPI   C3B  959  12.850  17.632   8.525  0.0483 -0.2702  0.1801
   60loPI   C4B  960  12.992  17.715   8.149  0.1730  0.3348  0.1353
   61loPI    C1  961  16.520   2.528   9.860  0.0192 -0.1477 -0.0273
   61loPI    C2  962  16.548   2.141   9.764 -0.1790 -0.0863 -0.3467
   61loPI    C3  963  16.398   2.248  10.119  0.3640 -0.3117 -0.0375
   61loPI   PO4  964  16.467   2.869   9.743 -0.0258  0.1422  0.3653
   61loPI   GL1  965  16.536   3.017   9.367 -0.4298 -0.3141 -0.0135
   61loPI   GL2  966  16.758   3.196   9.176  0.1479  0.0433 -0.1759
   61loPI   C1A  967  16.302   2.934   9.001  0.0138 -0.1266 -0.3022
   61loPI   C2A  968  16.035   3.023   8.722 -0.2385 -0.0680 -0.2764
   61loPI   C3A  969  15.795   2.912   8.281 -0.1713 -0.1470 -0.3975
   61loPI   C4A  970  15.756   2.968   7.811  0.1452  0.2342 -0.0815
   61loPI   C5A  971  15.627   3.333   7.497 -0.2865  0.2119  0.1453
   61loPI   C6A  972  15.678   3.759   7.545  0.2808 -0.1632  0.0114
   61loPI   C1B  973  16.803   3.217   8.669 -0.2556 -0.0845 -0.0172
   61loPI   C2B  974  16.503   3.177   8.401  0.1782  0.4447  0.0535
   61loPI   C3B  975  16.231   2.991   8.067 -0.2393  0.2793 -0.0872
   61loPI   C4B  976  16.225   3.041   7.566  0.1517  0.4124 -0.1552
   62loPI    C1  977   4.650   1.740   9.725 -0.1434 -0.0287  0.1327
   62loPI    C2  978   4.854   1.406   9.808 -0.1511 -0.0876 -0.0808
   62loPI    C3  979   5.021   1.763   9.874 -0.1695 -0.1317  0.2149
   62loPI   PO4  980   4.643   1.784   9.503  0.0903  0.1461 -0.0002
   62loPI   GL1  981   4.541   1.636   9.109  0.2271  0.1225  0.3412
   62loPI   GL2  982   4.593   1.832   8.779 -0.0410  0.0379 -0.2250
   62loPI   C1A  983   4.261   1.472   8.778  0.2267 -0.1585 -0.2655
   62loPI   C2A  984   3.877   1.465   8.738 -0.2098  0.0920 -0.2595
   62loPI   C3A  985   3.644   1.613   8.319  0.0902  0.1509  0.2371
   62loPI   C4A  986   3.569   1.665   7.840 -0.0262  0.0909 -0.0970
   62loPI   C5A  987   3.623   1.838   7.487 -0.0479  0.0956 -0.0266
   62loPI   C6A  988   3.741   1.798   7.062 -0.2258  0.1606  0.2040
   62loPI   C1B  989   4.657   1.605   8.452  0.0452  0.1686  0.1058
   62loPI   C2B  990   4.750   1.566   8.146  0.0143  0.1832 -0.0736
   62loPI   C3B  991   4.948   1.647   7.733 -0.1243  0.3237 -0.1227
   62loPI   C4B  992   5.272   1.923   7.520  0.1676 -0.2692 -0.0425
   63loPI    C1  993  10.900  17.551  10.395 -0.0831 -0.0930 -0.0436
   63loPI    C2  994  11.159  17.781  10.196  0.2512 -0.1128  0.3555
   63loPI    C3  995  10.903  17.946  10.455 -0.3053 -0.0652 -0.2001
   63loPI   PO4  996  10.821  17.399  10.260 -0.3057 -0.3495  0.0349
   63loPI   GL1  997  10.893  17.195   9.904  0.1243 -0.2543  0.0438
   63loPI   GL2  998  11.019  17.337   9.791 -0.0400 -0.0298  0.1342
   63loPI   C1A  999  10.715  16.989   9.519 -0.0888 -0.0164  0.0122
   63loPI   C2A 1000  10.668  16.780   9.089  0.0872 -0.2590  0.0162
   63loPI   C3A 1001  10.421  16.630   8.708  0.4175 -0.1605  0.4003
   63loPI   C4A 1002  10.018  16.611   8.431  0.0830 -0.0671  0.0928
   63loPI   C5A 1003   9.916  16.699   8.001 -0.3005  0.1569  0.2895
   63loPI   C6A 1004   9.539  16.873   7.732 -0.0668  0.0099 -0.0426
   63loPI   C1B 1005  11.071  17.323   9.405  0.1474 -0.1004  0.1066
   63loPI   C2B 1006  10.947  17.195   9.100 -0.2495  0.1276 -0.0464
   63loPI   C3B 1007  10.948  17.085   8.756 -0.1686 -0.0858  0.3396
   63loPI   C4B 1008  11.273  16.894   8.547 -0.0785  0.1542  0.2932
   64loPI    C1 1009   2.052  16.184   9.826  0.1245  0.0405  0.0853
   64loPI    C2 1010   1.680  16.269   9.946  0.1298  0.0405  0.1021
   64loPI    C3 1011   1.962  16.553   9.951  0.0662  0.1116 -0.1609
   64loPI   PO4 1012   2.071  16.021   9.674  0.0464 -0.0896  0.1090
   64loPI   GL1 1013   2.324  15.852   9.278  0.1497  0.0606 -0.2364
   64loPI   GL2 1014   2.671  15.907   9.127  0.2129  0.0422  0.2650
   64loPI   C1A 1015   2.219  15.774   8.858  0.0942 -0.4349 -0.2432
   64loPI   C2A 1016   2.342  15.775   8.375 -0.2337  0.2506  0.1789
   64loPI   C3A 1017   2.462  15.922   8.069  0.0810  0.0744 -0.2966
   64loPI   C4A 1018   2.233  15.767   7.665 -0.1192 -0.2471 -0.0203
   64loPI   C5A 1019   2.236  15.451   7.510 -0.1521 -0.3181  0.2283
   64loPI   C6A 1020   2.274  15.170   7.208  0.0195  0.1376 -0.0610
   64loPI   C1B 1021   2.690  16.107   8.822 -0.1969  0.0214  0.0775
   64loPI   C2B 1022   2.713  16.192   8.344  0.0645 -0.0994  0.0578
   64loPI   C3B 1023   2.913  16.213   7.915 -0.1113  0.0958  0.1525
   64loPI   C4B 1024   2.745  16.049   7.564  0.4429 -0.2874  0.0037
   65loPI    C1 1025   4.949  10.887   9.183 -0.0584 -0.0242 -0.1348
   65loPI    C2 1026   4.744  10.593   9.360 -0.1435  0.1190  0.0077
   65loPI    C3 1027   5.034  10.505   9.098 -0.3481 -0.0865 -0.1547
   65loPI   PO4 1028   4.778  11.050   9.157 -0.3918  0.0449 -0.3030
   65loPI   GL1 1029   4.789  11.342   8.891  0.1014 -0.2805  0.0142
   65loPI   GL2 1030   5.111  11.187   8.751  0.0416 -0.3554  0.1656
   65loPI   C1A 1031   4.670  11.107   8.560  0.3645  0.4680 -0.1966
   65loPI   C2A 1032   4.619  11.164   8.071 -0.0042  0.2884  0.1989
   65loPI   C3A 1033   4.623  11.155   7.656 -0.0092  0.0298 -0.3296
   65loPI   C4A 1034   4.542  11.421   7.361 -0.1345 -0.2862  0.1815
   65loPI   C5A 1035   4.917  11.504   6.967 -0.1229  0.1354  0.1037
   65loPI   C6A 1036   5.396  11.335   6.901  0.1119  0.1000 -0.1450
   65loPI   C1B 1037   5.117  11.165   8.174 -0.0657 -0.0118  0.0766
   65loPI   C2B 1038   5.117  11.296   7.768  0.0242  0.1688 -0.0952
   65loPI   C3B 1039   5.028  11.591   7.471 -0.0236 -0.0770  0.0452
   65loPI   C4B 1040   4.761  11.872   7.230 -0.1969 -0.0679 -0.1986
   66loPI    C1 1041   0.197   6.615   9.361  0.2349 -0.0046  0.1337
   66loPI    C2 1042  -0.061   6.521   9.651  0.3017  0.0270  0.2037
   66loPI    C3 1043   0.288   6.327   9.623  0.4182  0.2168  0.3183
   66loPI   PO4 1044   0.069   6.643   9.104  0.1363 -0.3588 -0.2118
   66loPI   GL1 1045   0.067   6.876   8.735  0.0471 -0.1043  0.0538
   66loPI   GL2 1046  -0.239   6.681   8.654  0.2352 -0.2050 -0.1460
   66loPI   C1A 1047  -0.012   7.001   8.392 -0.2636  0.3554 -0.1621
   66loPI   C2A 1048  -0.021   7.078   7.995 -0.1392  0.1334  0.3064
   66loPI   C3A 1049  -0.179   7.093   7.606  0.1091 -0.0128 -0.2633
   66loPI   C4A 1050  -0.356   7.320   7.233 -0.3865 -0.0289  0.1699
   66loPI   C5A 1051  -0.606   7.494   6.988 -0.2295 -0.1094 -0.1308
   66loPI   C6A 1052  -0.692   7.858   6.688  0.0870  0.2097  0.4360
   66loPI   C1B 1053  -0.541   6.508   8.385 -0.1023  0.3622 -0.1681
   66loPI   C2B 1054  -0.452   6.420   7.962  0.1680  0.0407  0.0346
   66loPI   C3B 1055  -0.261   6.458   7.606 -0.1706 -0.1235 -0.0515
   66loPI   C4B 1056  -0.051   6.742   7.214 -0.0073  0.0465 -0.3722
   67loPI    C1 1057  12.493  15.601  10.398 -0.3280  0.0354  0.0344
   67loPI    C2 1058  12.617  15.818  10.710  0.2733 -0.1309 -0.0761
   67loPI    C3 1059  12.432  15.469  10.771  0.0532  0.0125  0.0935
   67loPI   PO4 1060  12.741  15.598  10.125  0.4093 -0.2620 -0.0463
   67loPI   GL1 1061  13.065  15.618   9.857  0.1256 -0.0381 -0.1106
   67loPI   GL2 1062  12.954  15.989   9.873  0.0416  0.1084 -0.0651
   67loPI   C1A 1063  13.147  15.583   9.440  0.3476 -0.1721 -0.1676
   67loPI   C2A 1064  13.283  15.537   9.140  0.0148 -0.0564  0.1186
   67loPI   C3A 1065  13.610  15.380   8.795  0.0794  0.3481 -0.1334
   67loPI   C4A 1066  13.551  15.448   8.276  0.1282 -0.2174  0.1232
   67loPI   C5A 1067  13.519  15.747   8.052 -0.0756 -0.2014  0.1423
   67loPI   C6A 1068  13.806  16.237   8.102 -0.2493 -0.3627  0.0402
   67loPI   C1B 1069  12.888  16.023   9.417 -0.1233  0.2100 -0.0960
   67loPI   C2B 1070  12.705  16.177   8.992  0.0200 -0.0128  0.1437
   67loPI   C3B 1071  12.507  16.292   8.594  0.2532  0.1138 -0.1565
   67loPI   C4B 1072  12.747  16.451   8.220  0.3951 -0.1132 -0.1216
   68loPI    C1 1073   8.660   5.813   9.477 -0.0251  0.4300  0.2274
   68loPI    C2 1074   8.346   5.822   9.723 -0.1721 -0.0734  0.0722
   68loPI    C3 1075   8.658   5.587   9.807 -0.0198  0.1033  0.0087
   68loPI   PO4 1076   8.538   5.862   9.191 -0.0647 -0.2318  0.0366
   68loPI   GL1 1077   8.736   5.847   8.828 -0.0268  0.4198  0.0597
   68loPI   GL2 1078   8.919   6.107   8.763  0.0625 -0.1435  0.1616
   68loPI   C1A 1079   8.684   5.887   8.338  0.0065 -0.0867 -0.1313
   68loPI   C2A 1080   8.934   5.905   7.934  0.0139 -0.4003 -0.0604
   68loPI   C3A 1081   9.015   5.559   7.690  0.0328  0.0533  0.0576
   68loPI   C4A 1082   9.103   5.364   7.233 -0.1318 -0.2080  0.2322
   68loPI   C5A 1083   9.235   5.128   7.059 -0.1037 -0.0322 -0.1066
   68loPI   C6A 1084   9.452   5.036   6.689  0.2229 -0.3468 -0.2134
   68loPI   C1B 1085   8.849   6.307   8.347 -0.1200 -0.1082 -0.1485
   68loPI   C2B 1086   8.635   6.342   7.985  0.1016 -0.1013  0.1393
   68loPI   C3B 1087   8.620   6.400   7.638 -0.1313  0.1881  0.1531
   68loPI   C4B 1088   8.572   6.787   7.277  0.1043  0.0052  0.1092
   69loPI    C1 1089  11.508  18.019  10.643  0.1127 -0.1209  0.1103
   69loPI    C2 1090  11.265  17.788  10.862 -0.1073  0.0638  0.0655
   69loPI    C3 1091  11.475  18.081  11.037 -0.0269 -0.0025  0.0809
   69loPI   PO4 1092  11.397  18.126  10.474  0.0159 -0.6356  0.0360
   69loPI   GL1 1093  11.579  18.042  10.014 -0.0259  0.0999 -0.0602
   69loPI   GL2 1094  11.557  18.294   9.858 -0.1630  0.1150  0.0456
   69loPI   C1A 1095  11.388  17.782   9.697 -0.3548  0.0482 -0.0865
   69loPI   C2A 1096  11.299  17.718   9.244  0.2783  0.4158 -0.1040
   69loPI   C3A 1097  11.190  17.589   8.844 -0.0273 -0.0091 -0.1246
   69loPI   C4A 1098  10.890  17.516   8.495 -0.0546  0.2272 -0.0476
   69loPI   C5A 1099  10.983  17.266   8.137  0.0730 -0.2035  0.1961
   69loPI   C6A 1100  10.874  16.906   7.823 -0.0307  0.0543  0.2955
   69loPI   C1B 1101  11.464  18.222   9.376 -0.1115 -0.0058 -0.1212
   69loPI   C2B 1102  11.313  18.185   8.912 -0.3528  0.2482  0.1786
   69loPI   C3B 1103  11.245  17.948   8.520  0.2368  0.0975  0.0743
   69loPI   C4B 1104  10.907  17.913   8.221 -0.2421  0.1924  0.0206
   70loPI    C1 1105  15.959   9.632  10.032  0.3660  0.2615  0.0553
   70loPI    C2 1106  16.176   9.326  10.170  0.2743  0.0533 -0.2511
   70loPI    C3 1107  16.247   9.697  10.302  0.4723 -0.0803  0.0288
   70loPI   PO4 1108  15.883   9.490   9.758 -0.1470  0.0063 -0.0453
   70loPI   GL1 1109  15.991   9.548   9.293  0.1946 -0.0210 -0.0534
   70loPI   GL2 1110  15.963   9.858   9.329 -0.0320 -0.0132  0.0280
   70loPI   C1A 1111  15.689   9.424   8.900 -0.1683  0.1215 -0.0696
   70loPI   C2A 1112  15.718   9.573   8.447 -0.0583 -0.1635  0.0300
   70loPI   C3A 1113  15.700   9.520   7.977  0.3619  0.2580 -0.0144
   70loPI   C4A 1114  15.702   9.642   7.581 -0.0721  0.1907 -0.0908
   70loPI   C5A 1115  15.205   9.627   7.513 -0.0557  0.3920  0.1633
   70loPI   C6A 1116  14.993   9.716   7.815  0.2307  0.1216 -0.3338
   70loPI   C1B 1117  15.627   9.985   9.015 -0.0658 -0.0280  0.0971
   70loPI   C2B 1118  15.798  10.074   8.544 -0.1185 -0.2405  0.1064
   70loPI   C3B 1119  15.498  10.303   8.359  0.1738 -0.1771 -0.1456
   70loPI   C4B 1120  15.383  10.720   8.430  0.1920  0.3651  0.0202
   71loPI    C1 1121  16.830  10.127   9.789  0.0471 -0.0724 -0.0365
   71loPI    C2 1122  16.524  10.097  10.045  0.0021 -0.2681 -0.1113
   71loPI    C3 1123  16.894  10.167  10.181 -0.0887  0.0690 -0.0275
   71loPI   PO4 1124  16.660  10.379   9.591 -0.1191  0.3441  0.2886
   71loPI   GL1 1125  16.431  10.076   9.225  0.0842 -0.0939 -0.2593
   71loPI   GL2 1126  16.719   9.913   9.349  0.0083  0.1155 -0.0164
   71loPI   C1A 1127  16.499  10.175   8.907 -0.1501  0.0491  0.0455
   71loPI   C2A 1128  16.681  10.365   8.587  0.0060  0.1793  0.4560
   71loPI   C3A 1129  16.717  10.678   8.163 -0.1782  0.1149  0.0828
   71loPI   C4A 1130  16.674  10.838   7.809 -0.1313  0.3000 -0.0523
   71loPI   C5A 1131  16.581  10.541   7.655  0.2833  0.1412  0.0616
   71loPI   C6A 1132  16.552  10.170   7.400 -0.0313 -0.0925 -0.2353
   71loPI   C1B 1133  17.048   9.944   8.983 -0.1058 -0.0474  0.0819
   71loPI   C2B 1134  17.120  10.055   8.616 -0.0422 -0.4478  0.2258
   71loPI   C3B 1135  17.067  10.292   8.139  0.1466  0.3121  0.1735
   71loPI   C4B 1136  17.121  10.699   7.921 -0.0242  0.1585  0.1973
   72loPI    C1 1137   9.321   1.498  10.197  0.2094 -0.0977 -0.1915
   72loPI    C2 1138   9.253   1.194  10.449  0.2003 -0.0087 -0.0861
   72loPI    C3 1139   9.470   1.508  10.568  0.2029  0.0302 -0.1919
   72loPI   PO4 1140   9.449   1.455   9.975  0.1457  0.2079 -0.0725
   72loPI   GL1 1141   9.407   1.306   9.646  0.1180 -0.1669 -0.2490
   72loPI   GL2 1142   9.637   1.379   9.531  0.0586 -0.0685 -0.4761
   72loPI   C1A 1143   9.269   1.481   9.185 -0.2020 -0.0505 -0.0323
   72loPI   C2A 1144   9.192   1.314   8.707 -0.0364 -0.2675  0.1546
   72loPI   C3A 1145   9.036   1.120   8.295 -0.1802  0.1954 -0.3351
   72loPI   C4A 1146   8.918   0.925   7.860 -0.1430 -0.0250  0.0110
   72loPI   C5A 1147   9.042   0.643   7.756 -0.0306  0.2383  0.1467
   72loPI   C6A 1148   8.890   0.183   7.544  0.1707  0.2445  0.2900
   72loPI   C1B 1149   9.775   1.634   9.170  0.0766  0.0312 -0.1648
   72loPI   C2B 1150   9.582   1.683   8.760 -0.0080 -0.0705 -0.0741
   72loPI   C3B 1151   9.504   1.491   8.275  0.0750 -0.1937 -0.1276
   72loPI   C4B 1152   9.333   1.227   7.883 -0.0126 -0.0941  0.0153
   73loPI    C1 1153   0.834   9.887   9.633  0.0806 -0.3621 -0.0784
   73loPI    C2 1154   0.512   9.858   9.868  0.0887  0.0039 -0.0158
   73loPI    C3 1155   0.879   9.836  10.027  0.0962 -0.2277 -0.0620
   73loPI   PO4 1156   0.762  10.039   9.363  0.0296  0.0843 -0.2350
   73loPI   GL1 1157   0.675   9.831   8.956  0.1684 -0.0592 -0.0032
   73loPI   GL2 1158   0.319   9.838   8.864  0.0855 -0.0367 -0.0977
   73loPI   C1A 1159   0.774   9.925   8.500 -0.1437  0.0206  0.0673
   73loPI   C2A 1160   0.709   9.932   7.978 -0.1076 -0.0392 -0.4227
   73loPI   C3A 1161   0.853  10.360   7.833  0.0243  0.1978 -0.1455
   73loPI   C4A 1162   1.160  10.642   7.896 -0.2250 -0.1272 -0.0142
   73loPI   C5A 1163   1.485  10.964   7.964  0.1598  0.0823  0.2423
   73loPI   C6A 1164   1.232  11.353   7.890 -0.0397 -0.1451 -0.1951
   73loPI   C1B 1165   0.256  10.002   8.504  0.1594  0.1052  0.0714
   73loPI   C2B 1166   0.266  10.052   8.045  0.0523 -0.2123 -0.1068
   73loPI   C3B 1167  -0.090   9.977   7.733 -0.0115  0.1694 -0.2702
   73loPI   C4B 1168  -0.109  10.020   7.255 -0.0156  0.2064 -0.1912
   74loPI    C1 1169   1.665   6.916   9.468  0.2318  0.0975 -0.0169
   74loPI    C2 1170   1.543   7.176   9.190  0.0768 -0.0543 -0.0928
   74loPI    C3 1171   1.506   7.266   9.577 -0.2302 -0.0738 -0.1150
   74loPI   PO4 1172   1.658   6.680   9.270  0.1458  0.0440  0.2305
   74loPI   GL1 1173   1.857   6.617   8.919  0.3778  0.0918 -0.0754
   74loPI   GL2 1174   1.837   6.950   8.838 -0.0023 -0.2441 -0.4797
   74loPI   C1A 1175   1.726   6.711   8.435 -0.0961 -0.3269 -0.0499
   74loPI   C2A 1176   1.823   6.810   8.015  0.0985  0.1460  0.3563
   74loPI   C3A 1177   2.072   6.773   7.696 -0.1141  0.0111 -0.1023
   74loPI   C4A 1178   2.245   6.931   7.250  0.1975  0.3360 -0.1513
   74loPI   C5A 1179   2.711   6.960   7.218  0.2335 -0.0874  0.3536
   74loPI   C6A 1180   2.899   7.268   7.128 -0.0066  0.0442  0.0593
   74loPI   C1B 1181   2.042   7.125   8.491 -0.2383 -0.0076  0.3793
   74loPI   C2B 1182   2.384   7.142   8.081 -0.0219 -0.2069  0.0883
   74loPI   C3B 1183   2.436   7.119   7.624  0.3197  0.0069 -0.0841
   74loPI   C4B 1184   2.436   7.407   7.307  0.1846  0.2284 -0.0489
   75loPI    C1 1185   6.608   2.842   9.368 -0.1446 -0.0868  0.0314
   75loPI    C2 1186   6.819   3.109   9.156  0.0389 -0.2644 -0.0127
   75loPI    C3 1187   6.879   3.074   9.550 -0.2007 -0.0332  0.0473
   75loPI   PO4 1188   6.462   2.800   9.161 -0.0894  0.0924 -0.0099
   75loPI   GL1 1189   6.657   2.757   8.764  0.3700  0.5754 -0.0874
   75loPI   GL2 1190   6.619   2.471   8.722 -0.4161 -0.2200 -0.1957
   75loPI   C1A 1191   6.586   2.782   8.382 -0.0760  0.2357 -0.0659
   75loPI   C2A 1192   6.512   3.027   7.990  0.1602  0.0369 -0.0989
   75loPI   C3A 1193   6.305   3.035   7.655 -0.1779  0.1725  0.3081
   75loPI   C4A 1194   6.089   2.774   7.308  0.1766  0.0834  0.0541
   75loPI   C5A 1195   6.249   2.944   6.933 -0.1072 -0.3976 -0.2728
   75loPI   C6A 1196   6.337   2.685   6.572 -0.2389 -0.1693 -0.2239
   75loPI   C1B 1197   6.482   2.311   8.397 -0.0645  0.1200  0.0795
   75loPI   C2B 1198   6.481   2.511   7.943 -0.0946  0.0861 -0.0258
   75loPI   C3B 1199   6.564   2.630   7.618  0.1593  0.0779  0.1805
   75loPI   C4B 1200   6.570   2.780   7.273 -0.0638 -0.4193 -0.0171
   76loPI    C1 1201   4.437  14.775  10.108  0.4032 -0.0460 -0.0092
   76loPI    C2 1202   4.655  14.943  10.399  0.3186  0.0857 -0.0210
   76loPI    C3 1203   4.469  15.174  10.130 -0.0543 -0.0123  0.1461
   76loPI   PO4 1204   4.591  14.566   9.977  0.0062 -0.0183  0.1098
   76loPI   GL1 1205   4.591  14.550   9.475  0.1037  0.3356 -0.1733
   76loPI   GL2 1206   4.289  14.727   9.496 -0.3624 -0.0642 -0.0359
   76loPI   C1A 1207   4.683  14.459   9.050 -0.0501  0.0702  0.3058
   76loPI   C2A 1208   4.814  14.396   8.601 -0.0548  0.2844 -0.0566
   76loPI   C3A 1209   5.043  14.519   8.279  0.3710  0.3883 -0.0555
   76loPI   C4A 1210   5.431  14.387   8.022 -0.1289  0.0475  0.1000
   76loPI   C5A 1211   5.847  14.249   7.741  0.1181  0.1475 -0.1242
   76loPI   C6A 1212   6.169  14.018   7.583 -0.3257 -0.2696 -0.2349
   76loPI   C1B 1213   4.266  14.962   9.083  0.2015 -0.0106  0.2669
   76loPI   C2B 1214   4.494  14.789   8.697 -0.0622  0.1895  0.0484
   76loPI   C3B 1215   4.583  14.854   8.256  0.0430  0.2666  0.0487
   76loPI   C4B 1216   4.997  15.013   8.001 -0.1002 -0.4433  0.1080
   77loPI    C1 1217   7.897  17.073  10.457 -0.0775  0.3051 -0.2175
   77loPI    C2 1218   8.233  16.970  10.266 -0.1196  0.1907 -0.2307
   77loPI    C3 1219   8.249  17.100  10.644 -0.0978 -0.2058 -0.0901
   77loPI   PO4 1220   7.698  17.176  10.250 -0.3719  0.2018  0.1545
   77loPI   GL1 1221   7.525  16.981   9.905  0.1985  0.0601 -0.1032
   77loPI   GL2 1222   7.512  16.730   9.817 -0.2994  0.2607 -0.0126
   77loPI   C1A 1223   7.438  17.157   9.520 -0.0654  0.0223 -0.0100
   77loPI   C2A 1224   7.223  17.136   9.219  0.1820 -0.0184  0.1564
   77loPI   C3A 1225   7.223  17.127   8.803  0.0634 -0.3931  0.0171
   77loPI   C4A 1226   7.255  17.034   8.457 -0.4272  0.2730 -0.0491
   77loPI   C5A 1227   6.900  16.920   8.097 -0.0923 -0.1278 -0.2033
   77loPI   C6A 1228   6.567  16.862   7.881 -0.4252 -0.0655 -0.2549
   77loPI   C1B 1229   7.835  16.647   9.503  0.1497  0.3004 -0.2465
   77loPI   C2B 1230   8.023  16.678   9.151 -0.1982 -0.1922 -0.2445
   77loPI   C3B 1231   8.114  16.801   8.711 -0.1484 -0.0453 -0.1163
   77loPI   C4B 1232   8.276  16.846   8.336 -0.1045  0.0008 -0.0648
   78loPI    C1 1233  14.456  19.070  10.958  0.2204 -0.0558 -0.2004
   78loPI    C2 1234  14.560  19.404  10.763  0.0161  0.1932  0.1066
   78loPI    C3 1235  14.678  19.348  11.141  0.3261 -0.2400 -0.0464
   78loPI   PO4 1236  14.522  18.802  10.866  0.3719 -0.0556  0.0809
   78loPI   GL1 1237  14.410  18.807  10.496  0.3732 -0.1211  0.1283
   78loPI   GL2 1238  14.255  18.960  10.281 -0.2294 -0.1956 -0.0062
   78loPI   C1A 1239  14.722  18.765  10.122 -0.0637 -0.2172  0.0718
   78loPI   C2A 1240  14.793  18.720   9.665  0.0645 -0.3896 -0.0232
   78loPI   C3A 1241  14.927  18.955   9.459  0.2016 -0.1903 -0.1644
   78loPI   C4A 1242  15.211  18.737   9.163 -0.0513  0.2336 -0.2056
   78loPI   C5A 1243  15.561  18.665   8.875 -0.3325 -0.0369 -0.3157
   78loPI   C6A 1244  15.698  18.679   8.381  0.1880  0.0809  0.0236
   78loPI   C1B 1245  14.062  18.967   9.848  0.0742  0.2314  0.1521
   78loPI   C2B 1246  13.921  19.150   9.445 -0.1476 -0.1371  0.3284
   78loPI   C3B 1247  13.848  19.118   8.974 -0.3532  0.2399  0.0672
   78loPI   C4B 1248  13.701  18.931   8.524  0.2835 -0.3807 -0.0881
   79loPI    C1 1249  11.865  17.163  10.401  0.2730 -0.2355 -0.2482
   79loPI    C2 1250  12.258  17.087  10.403  0.3326  0.0546  0.0712
   79loPI    C3 1251  12.121  17.434  10.549 -0.0679 -0.1756  0.2585
   79loPI   PO4 1252  11.807  17.116  10.215  0.4944 -0.4525 -0.3288
   79loPI   GL1 1253  11.815  17.211   9.786  0.0128 -0.0562  0.0573
   79loPI   GL2 1254  11.553  17.309   9.690 -0.0177  0.0438  0.3598
   79loPI   C1A 1255  11.990  17.147   9.362 -0.1197 -0.1890  0.1284
   79loPI   C2A 1256  11.939  17.184   8.868  0.0627 -0.0052 -0.0641
   79loPI   C3A 1257  11.795  17.043   8.353  0.0100 -0.0347  0.0520
   79loPI   C4A 1258  11.522  16.738   8.136 -0.2574 -0.2006  0.1694
   79loPI   C5A 1259  11.107  16.397   7.963  0.3334  0.3620  0.3619
   79loPI   C6A 1260  10.881  16.016   7.797  0.0461  0.1020 -0.3776
   79loPI   C1B 1261  11.543  17.231   9.266 -0.0526 -0.0256  0.5102
   79loPI   C2B 1262  11.453  17.167   8.855  0.0860 -0.2493  0.0937
   79loPI   C3B 1263  11.400  17.405   8.445  0.1048  0.0694  0.1337
   79loPI   C4B 1264  11.422  17.700   8.072 -0.0256 -0.2711 -0.1376
   80loPI    C1 1265   0.672   4.741   9.246  0.1003 -0.1919 -0.0519
   80loPI    C2 1266   1.058   4.793   9.157  0.1050  0.1457  0.1485
   80loPI    C3 1267   0.954   4.637   9.510  0.0566  0.1150  0.1206
   80loPI   PO4 1268   0.567   4.661   9.063 -0.1490  0.0014 -0.0904
   80loPI   GL1 1269   0.586   4.793   8.618 -0.0893  0.1916 -0.0857
   80loPI   GL2 1270   0.900   4.616   8.612 -0.4986 -0.1227  0.1069
   80loPI   C1A 1271   0.466   4.793   8.125  0.1235 -0.1778 -0.0994
   80loPI   C2A 1272   0.415   5.060   7.776  0.2565  0.0523  0.4828
   80loPI   C3A 1273   0.198   5.145   7.370 -0.0170 -0.1347  0.5086
   80loPI   C4A 1274  -0.072   5.447   7.051  0.1885  0.1634  0.0356
   80loPI   C5A 1275  -0.267   5.466   6.594 -0.1071  0.3218 -0.1144
   80loPI   C6A 1276  -0.541   5.513   6.171  0.2375 -0.2757 -0.2717
   80loPI   C1B 1277   1.000   4.705   8.157 -0.3517 -0.1369 -0.0684
   80loPI   C2B 1278   0.888   5.095   7.963  0.2647  0.3139 -0.0798
   80loPI   C3B 1279   0.933   5.151   7.601 -0.2738 -0.0996 -0.3056
   80loPI   C4B 1280   0.610   5.402   7.340 -0.0527 -0.0293  0.2121
   81loPI    C1 1281  16.587   5.943   9.615 -0.2783  0.1318 -0.3358
   81loPI    C2 1282  16.786   5.634   9.772 -0.0780  0.3282 -0.1971
   81loPI    C3 1283  16.398   5.685   9.855 -0.1406  0.0535 -0.3104
   81loPI   PO4 1284  16.619   5.879   9.236  0.0689 -0.2872 -0.1647
   81loPI   GL1 1285  16.670   5.713   8.780 -0.1767  0.0991 -0.3416
   81loPI   GL2 1286  16.483   5.499   8.700 -0.0890 -0.1921  0.0399
   81loPI   C1A 1287  16.655   6.045   8.442  0.0006  0.1944 -0.0667
   81loPI   C2A 1288  16.620   6.433   8.097  0.0184 -0.0279 -0.1509
   81loPI   C3A 1289  16.361   6.430   7.608 -0.2644  0.1157 -0.1998
   81loPI   C4A 1290  16.411   6.364   7.153  0.0609 -0.1749  0.0882
   81loPI   C5A 1291  16.194   6.522   6.871  0.0769 -0.2020  0.3766
   81loPI   C6A 1292  15.654   6.670   6.920 -0.0496 -0.1110 -0.1341
   81loPI   C1B 1293  16.268   5.655   8.346  0.0687 -0.1244 -0.2842
   81loPI   C2B 1294  16.101   5.518   7.946 -0.3022 -0.1463  0.1919
   81loPI   C3B 1295  15.879   5.387   7.613 -0.0976 -0.0296 -0.0618
   81loPI   C4B 1296  15.539   5.359   7.292 -0.0183  0.3078 -0.0905
   82loPI    C1 1297  10.688  12.263  10.360  0.0296 -0.1773  0.1842
   82loPI    C2 1298  10.771  12.645  10.277  0.1938 -0.2876 -0.1808
   82loPI    C3 1299  10.391  12.520  10.289  0.1369 -0.1032 -0.0015
   82loPI   PO4 1300  10.800  12.147  10.240 -0.1479  0.0249 -0.2303
   82loPI   GL1 1301  10.826  12.111   9.711 -0.0114 -0.0131  0.1637
   82loPI   GL2 1302  10.731  12.463   9.845 -0.0696  0.3104 -0.0986
   82loPI   C1A 1303  11.020  12.211   9.296  0.1898  0.0234 -0.1718
   82loPI   C2A 1304  11.027  12.408   8.910 -0.1152 -0.1901 -0.1923
   82loPI   C3A 1305  11.057  12.421   8.521 -0.1127 -0.0972  0.1600
   82loPI   C4A 1306  11.035  12.353   8.201  0.3433 -0.1556 -0.0557
   82loPI   C5A 1307  11.164  12.011   7.857 -0.0975 -0.1144  0.2217
   82loPI   C6A 1308  11.567  12.107   7.580 -0.0537 -0.0842  0.0536
   82loPI   C1B 1309  10.789  12.637   9.440  0.3100 -0.0494  0.2854
   82loPI   C2B 1310  10.736  12.826   9.060  0.1158  0.2440 -0.0357
   82loPI   C3B 1311  10.735  12.825   8.575  0.2412  0.0362  0.0550
   82loPI   C4B 1312  10.721  12.738   8.168  0.0699 -0.0733 -0.2050
   83loPI    C1 1313  19.194  16.080   9.543  0.1657 -0.0557  0.1605
   83loPI    C2 1314  19.473  15.806   9.462 -0.0533 -0.1874 -0.1674
   83loPI    C3 1315  19.274  15.791   9.808  0.1669 -0.2426 -0.0410
   83loPI   PO4 1316  19.034  16.061   9.274 -0.1838 -0.2311  0.1376
   83loPI   GL1 1317  18.771  16.188   8.926 -0.1682  0.0124 -0.1326
   83loPI   GL2 1318  18.818  16.039   8.689  0.0874  0.2080 -0.2704
   83loPI   C1A 1319  19.030  16.555   8.697  0.2046  0.1692 -0.1553
   83loPI   C2A 1320  19.377  16.592   8.386  0.4370 -0.2474  0.0253
   83loPI   C3A 1321  19.413  16.821   7.900  0.0976  0.0273 -0.3733
   83loPI   C4A 1322  19.180  16.867   7.594 -0.2055 -0.1686  0.1234
   83loPI   C5A 1323  18.956  16.784   7.315 -0.0089  0.1332  0.0445
   83loPI   C6A 1324  18.833  16.308   7.180  0.2261 -0.3187  0.2748
   83loPI   C1B 1325  18.812  15.911   8.307  0.0316 -0.1559 -0.0467
   83loPI   C2B 1326  18.838  15.982   7.906  0.0953 -0.0256 -0.0326
   83loPI   C3B 1327  18.590  16.175   7.584 -0.1404 -0.2147 -0.1291
   83loPI   C4B 1328  18.210  16.186   7.262 -0.0325 -0.0291  0.1732
   84loPI    C1 1329   1.928  18.687   9.777  0.2508  0.1168  0.0523
   84loPI    C2 1330   1.799  18.694  10.155  0.0363 -0.2785 -0.0075
   84loPI    C3 1331   2.094  18.938  10.040 -0.2114  0.1788  0.2958
   84loPI   PO4 1332   1.670  18.803   9.682 -0.1925  0.0004 -0.2273
   84loPI   GL1 1333   1.537  18.676   9.268  0.0905 -0.0363  0.4381
   84loPI   GL2 1334   1.875  18.470   9.246  0.0360 -0.1142 -0.1392
   84loPI   C1A 1335   1.671  18.704   8.792 -0.1129 -0.0038 -0.2461
   84loPI   C2A 1336   1.558  18.397   8.448  0.0275  0.3842 -0.3029
   84loPI   C3A 1337   1.510  18.236   8.012 -0.1704  0.1319 -0.1143
   84loPI   C4A 1338   1.596  18.334   7.564 -0.0953  0.0352  0.1923
   84loPI   C5A 1339   1.562  18.406   7.093  0.2064 -0.1606  0.0915
   84loPI   C6A 1340   1.267  18.355   6.783  0.0231  0.2095  0.0083
   84loPI   C1B 1341   1.518  18.295   8.937  0.3877 -0.2883  0.1839
   84loPI   C2B 1342   1.367  18.003   8.595  0.2078  0.1681  0.1004
   84loPI   C3B 1343   1.053  17.891   8.230 -0.1791 -0.3828  0.0587
   84loPI   C4B 1344   0.634  17.942   8.048  0.1524 -0.1291 -0.1956
   85loPI    C1 1345   0.117   7.988   9.112 -0.0685  0.0257  0.1574
   85loPI    C2 1346   0.201   7.859   9.481  0.1702 -0.1746  0.0357
   85loPI    C3 1347   0.179   7.598   9.178  0.1016  0.0037 -0.1146
   85loPI   PO4 1348   0.304   8.154   8.980 -0.1253 -0.5078 -0.3205
   85loPI   GL1 1349   0.247   8.170   8.628 -0.1307 -0.3336  0.0916
   85loPI   GL2 1350   0.498   8.422   8.565  0.1316  0.0144  0.1334
   85loPI   C1A 1351  -0.129   8.127   8.567 -0.0789  0.0962  0.0973
   85loPI   C2A 1352  -0.357   8.175   8.203  0.0429  0.3586 -0.1894
   85loPI   C3A 1353  -0.591   8.029   7.861  0.2108  0.0386 -0.0003
   85loPI   C4A 1354  -0.750   7.961   7.491 -0.3560  0.2377 -0.1519
   85loPI   C5A 1355  -0.985   7.926   7.122  0.1240  0.1304  0.2690
   85loPI   C6A 1356  -1.143   7.525   6.970 -0.0810  0.2660 -0.0967
   85loPI   C1B 1357   0.353   8.332   8.144  0.0025 -0.1816  0.2108
   85loPI   C2B 1358   0.375   8.292   7.723 -0.2495 -0.1314  0.5124
   85loPI   C3B 1359   0.416   7.934   7.497 -0.2413  0.2183  0.1953
   85loPI   C4B 1360   0.625   7.864   7.187 -0.1224  0.0599 -0.2434
   86loPI    C1 1361  17.484  14.263   9.744 -0.3235  0.1087 -0.1794
   86loPI    C2 1362  17.290  13.924   9.831 -0.1991  0.0577 -0.0993
   86loPI    C3 1363  17.676  13.913   9.724 -0.2055  0.1703 -0.1349
   86loPI   PO4 1364  17.245  14.380   9.565 -0.1480 -0.3857  0.3021
   86loPI   GL1 1365  16.847  14.469   9.312  0.1386 -0.0063  0.0013
   86loPI   GL2 1366  17.154  14.392   9.101 -0.0009  0.3902  0.0019
   86loPI   C1A 1367  16.897  14.836   8.931  0.2211 -0.2001  0.0221
   86loPI   C2A 1368  16.778  14.888   8.547  0.2149 -0.3275  0.1415
   86loPI   C3A 1369  16.740  15.029   8.225 -0.1579  0.0812  0.1220
   86loPI   C4A 1370  16.701  14.909   7.884 -0.0302  0.0870  0.3928
   86loPI   C5A 1371  16.495  15.074   7.498 -0.0831 -0.0975 -0.5979
   86loPI   C6A 1372  16.731  15.084   7.233 -0.2027  0.0221 -0.1652
   86loPI   C1B 1373  17.102  14.495   8.654 -0.1277  0.1761  0.2599
   86loPI   C2B 1374  17.069  14.573   8.248 -0.2404  0.1080  0.0803
   86loPI   C3B 1375  17.155  14.694   7.834 -0.1221  0.0214 -0.1504
   86loPI   C4B 1376  17.178  15.098   7.489 -0.0294  0.2147 -0.1795
   87loPI    C1 1377   3.699   1.876   9.598 -0.0988  0.0331  0.0681
   87loPI    C2 1378   3.707   2.066   9.950 -0.0397  0.0916  0.0353
   87loPI    C3 1379   3.717   1.667   9.939 -0.0630  0.0890  0.1008
   87loPI   PO4 1380   3.602   1.992   9.415 -0.2677  0.2449 -0.1310
   87loPI   GL1 1381   3.809   2.017   9.066  0.2141 -0.0362  0.0124
   87loPI   GL2 1382   4.112   1.993   8.990 -0.0402  0.0337  0.2756
   87loPI   C1A 1383   3.634   2.008   8.664 -0.0221 -0.1526 -0.1588
   87loPI   C2A 1384   3.488   2.082   8.196 -0.2323 -0.2088  0.0798
   87loPI   C3A 1385   3.439   2.276   7.843 -0.0249 -0.2238  0.0683
   87loPI   C4A 1386   3.419   2.242   7.387 -0.2289 -0.1746  0.2179
   87loPI   C5A 1387   3.407   2.145   6.973 -0.0530  0.0982  0.3395
   87loPI   C6A 1388   3.648   2.072   6.684  0.0819 -0.1649  0.0938
   87loPI   C1B 1389   4.100   1.843   8.497  0.0575 -0.0752  0.2066
   87loPI   C2B 1390   4.189   1.493   8.277  0.2227 -0.3487  0.2022
   87loPI   C3B 1391   3.908   1.294   8.029  0.4509 -0.1124 -0.1696
   87loPI   C4B 1392   3.850   1.361   7.614  0.2722 -0.4373  0.2648
   88loPI    C1 1393   7.949  14.588  10.177 -0.4297  0.1713 -0.2107
   88loPI    C2 1394   7.894  14.206  10.283 -0.0299  0.1326 -0.1233
   88loPI    C3 1395   7.721  14.499  10.493  0.0880  0.0203  0.1346
   88loPI   PO4 1396   8.012  14.517   9.896 -0.0158 -0.0309 -0.2229
   88loPI   GL1 1397   7.918  14.131   9.716  0.2839  0.0607  0.1566
   88loPI   GL2 1398   7.827  14.326   9.449  0.3084 -0.1297  0.2810
   88loPI   C1A 1399   8.200  14.037   9.374  0.3255  0.1230 -0.1238
   88loPI   C2A 1400   8.544  14.405   9.202  0.0235  0.1896 -0.0442
   88loPI   C3A 1401   8.835  14.404   8.909  0.0049  0.2182  0.2005
   88loPI   C4A 1402   9.038  14.362   8.473 -0.1323  0.1190  0.1216
   88loPI   C5A 1403   9.269  14.349   8.145 -0.0001  0.0808 -0.1222
   88loPI   C6A 1404   9.054  14.332   7.654  0.0902  0.1453  0.0790
   88loPI   C1B 1405   7.870  14.328   9.061  0.1603  0.2788  0.2203
   88loPI   C2B 1406   8.022  14.122   8.627  0.2097  0.3431  0.0343
   88loPI   C3B 1407   8.148  14.092   8.146  0.2435 -0.1916 -0.2057
   88loPI   C4B 1408   8.056  14.175   7.727 -0.0632  0.0353  0.0018
   89loPI    C1 1409  16.037  12.134  10.090 -0.1557  0.0572 -0.0672
   89loPI    C2 1410  15.649  12.168  10.178 -0.1172 -0.0210  0.1383
   89loPI    C3 1411  15.912  12.428  10.330 -0.0992  0.0871 -0.0741
   89loPI   PO4 1412  16.015  11.957   9.846  0.0631 -0.1660  0.2168
   89loPI   GL1 1413  16.131  11.884   9.429 -0.6604  0.1381  0.0900
   89loPI   GL2 1414  16.345  11.619   9.386  0.4079 -0.3399 -0.1030
   89loPI   C1A 1415  15.960  11.896   9.053 -0.0770 -0.1343  0.0163
   89loPI   C2A 1416  15.825  12.177   8.835  0.0321  0.2280 -0.0485
   89loPI   C3A 1417  15.421  12.150   8.587  0.1157 -0.1855  0.1894
   89loPI   C4A 1418  15.125  12.467   8.533 -0.1079 -0.1014  0.0407
   89loPI   C5A 1419  14.747  12.588   8.805 -0.1342  0.1162  0.1589
   89loPI   C6A 1420  14.599  12.638   9.132 -0.0340  0.0313 -0.2060
   89loPI   C1B 1421  16.354  11.533   9.012 -0.2664  0.2042 -0.0183
   89loPI   C2B 1422  16.429  11.339   8.643 -0.0304  0.0779  0.1063
   89loPI   C3B 1423  16.152  11.423   8.241 -0.1205  0.2950 -0.2386
   89loPI   C4B 1424  16.134  11.630   7.973  0.2297 -0.2200  0.0569
   90loPI    C1 1425   9.116   6.627   9.472  0.0011  0.1804  0.0194
   90loPI    C2 1426   9.323   6.309   9.600  0.0121  0.0726 -0.2587
   90loPI    C3 1427   9.421   6.675   9.727  0.1475 -0.0119 -0.1153
   90loPI   PO4 1428   9.087   6.537   9.125  0.1363  0.2416 -0.2439
   90loPI   GL1 1429   8.843   6.753   8.665 -0.1578 -0.0906  0.0077
   90loPI   GL2 1430   8.967   7.026   8.720 -0.1792 -0.0316 -0.1230
   90loPI   C1A 1431   8.976   6.715   8.190  0.1149 -0.1866 -0.0641
   90loPI   C2A 1432   9.322   6.862   7.955 -0.0032  0.1785  0.2457
   90loPI   C3A 1433   9.698   6.895   8.032  0.2268 -0.1878  0.1797
   90loPI   C4A 1434  10.010   6.749   7.735  0.0530 -0.0234 -0.0720
   90loPI   C5A 1435  10.164   6.873   7.317 -0.0206  0.0137  0.0550
   90loPI   C6A 1436  10.176   7.019   6.910  0.4271  0.4604 -0.0413
   90loPI   C1B 1437   8.533   7.178   8.590  0.0032 -0.3317 -0.1557
   90loPI   C2B 1438   8.455   7.364   8.233 -0.4745 -0.1016 -0.0071
   90loPI   C3B 1439   8.301   7.374   7.888  0.1825  0.0160 -0.1419
   90loPI   C4B 1440   8.084   7.667   7.586 -0.0180  0.4058 -0.1352
   91loPI    C1 1441   5.798  11.021   9.155  0.1504  0.0490 -0.0591
   91loPI    C2 1442   5.794  10.983   9.553 -0.1755  0.0245 -0.0618
   91loPI    C3 1443   5.801  11.347   9.387  0.3157  0.0323 -0.0370
   91loPI   PO4 1444   6.099  10.935   9.012 -0.0313 -0.2904 -0.2949
   91loPI   GL1 1445   6.241  11.083   8.744 -0.2148 -0.1183  0.0523
   91loPI   GL2 1446   6.502  10.776   8.760 -0.0674 -0.2786  0.0565
   91loPI   C1A 1447   6.057  11.149   8.363  0.0248 -0.2827 -0.0247
   91loPI   C2A 1448   6.085  11.054   7.949 -0.1458 -0.2193 -0.0652
   91loPI   C3A 1449   6.323  11.262   7.597 -0.4586  0.0545  0.1774
   91loPI   C4A 1450   6.512  11.509   7.329 -0.0395  0.1922 -0.4715
   91loPI   C5A 1451   6.500  11.906   7.238  0.1825 -0.0408 -0.0803
   91loPI   C6A 1452   6.484  12.146   6.875  0.3097 -0.1716 -0.1371
   91loPI   C1B 1453   6.575  10.821   8.318 -0.1353  0.2606 -0.2024
   91loPI   C2B 1454   6.655  11.016   7.882 -0.3641  0.0355  0.2240
   91loPI   C3B 1455   6.790  10.921   7.474  0.1462  0.0187  0.2292
   91loPI   C4B 1456   6.777  10.653   7.107 -0.1851  0.1499  0.0187
   92loPI    C1 1457   7.748  13.593  10.310 -0.1063 -0.0400 -0.1923
   92loPI    C2 1458   7.442  13.462  10.531 -0.1613  0.2566 -0.0879
   92loPI    C3 1459   7.794  13.542  10.704 -0.0060 -0.1295 -0.2152
   92loPI   PO4 1460   7.598  13.841  10.147  0.1895 -0.0832  0.3533
   92loPI   GL1 1461   7.469  13.950   9.669  0.0698 -0.0585  0.1394
   92loPI   GL2 1462   7.136  13.820   9.708  0.0049 -0.0763  0.0032
   92loPI   C1A 1463   7.549  13.967   9.228  0.0529  0.2752  0.0231
   92loPI   C2A 1464   7.551  13.951   8.780  0.2016 -0.0129 -0.0181
   92loPI   C3A 1465   7.609  13.994   8.332 -0.0306 -0.4013 -0.0694
   92loPI   C4A 1466   7.556  14.164   7.884 -0.2235  0.0250 -0.1708
   92loPI   C5A 1467   7.368  13.992   7.694  0.2618 -0.0546 -0.1275
   92loPI   C6A 1468   6.975  13.722   7.596 -0.2952  0.2544 -0.1425
   92loPI   C1B 1469   6.937  13.772   9.432  0.2129 -0.1753  0.1305
   92loPI   C2B 1470   7.107  13.865   8.981 -0.2603 -0.0481 -0.3938
   92loPI   C3B 1471   7.064  14.016   8.468 -0.3095  0.1443  0.0634
   92loPI   C4B 1472   7.117  14.239   8.158  0.1814  0.1813 -0.1387
   93loPI    C1 1473   0.155  14.122   9.498 -0.2769  0.1034  0.1420
   93loPI    C2 1474   0.312  13.969   9.833  0.1147 -0.0269 -0.0940
   93loPI    C3 1475  -0.072  13.902   9.743 -0.0251  0.1031  0.3800
   93loPI   PO4 1476   0.275  14.399   9.346  0.0955  0.1886 -0.2187
   93loPI   GL1 1477   0.417  14.460   8.909  0.1783 -0.1234  0.0703
   93loPI   GL2 1478   0.495  14.765   8.778  0.0088  0.4958 -0.0883
   93loPI   C1A 1479   0.208  14.176   8.540 -0.0374 -0.2053 -0.1445
   93loPI   C2A 1480   0.046  13.900   8.251  0.1407 -0.2228 -0.0266
   93loPI   C3A 1481  -0.144  13.713   7.895  0.1335 -0.0585  0.0623
   93loPI   C4A 1482  -0.139  13.693   7.523 -0.2940  0.1594 -0.0295
   93loPI   C5A 1483  -0.243  13.982   7.258  0.0619  0.1032 -0.1575
   93loPI   C6A 1484  -0.560  14.307   7.122  0.2461 -0.4501  0.3391
   93loPI   C1B 1485   0.524  14.534   8.425  0.0087 -0.1510  0.0418
   93loPI   C2B 1486   0.518  14.507   7.883 -0.1354  0.0353 -0.0815
   93loPI   C3B 1487   0.448  14.730   7.494 -0.1735 -0.2255  0.0248
   93loPI   C4B 1488   0.343  15.171   7.342  0.4381  0.0372 -0.0519
   94loPI    C1 1489  10.833  13.967  10.486 -0.1569  0.0750 -0.0747
   94loPI    C2 1490  10.941  14.181  10.807 -0.2027  0.1295 -0.0953
   94loPI    C3 1491  10.944  13.781  10.822 -0.0857  0.1312 -0.0670
   94loPI   PO4 1492  11.091  14.073  10.305  0.0737 -0.1285  0.3382
   94loPI   GL1 1493  11.285  13.874   9.875  0.4172  0.0077 -0.1453
   94loPI   GL2 1494  11.539  13.820  10.146 -0.2750  0.1483  0.2298
   94loPI   C1A 1495  11.022  13.860   9.375  0.1536 -0.0366  0.4157
   94loPI   C2A 1496  10.668  14.097   9.169 -0.0281  0.0089  0.2892
   94loPI   C3A 1497  10.752  14.296   8.747  0.1864  0.1383  0.1807
   94loPI   C4A 1498  10.768  14.319   8.352  0.0428  0.3118 -0.1454
   94loPI   C5A 1499  10.452  14.349   8.063  0.0639  0.2053  0.2668
   94loPI   C6A 1500  10.064  14.610   7.971  0.2355 -0.0233 -0.4010
   94loPI   C1B 1501  11.806  13.983   9.845  0.2287 -0.0651 -0.1099
   94loPI   C2B 1502  12.124  14.235   9.756  0.1937  0.1487 -0.3001
   94loPI   C3B 1503  12.310  14.463  10.065  0.0416  0.2268 -0.1813
   94loPI   C4B 1504  12.779  14.634  10.074 -0.1905  0.0802 -0.0982
   95loPI    C1 1505   8.745  15.573  10.368  0.0847 -0.1890  0.1877
   95loPI    C2 1506   8.772  15.901  10.596  0.0000 -0.1011  0.0725
   95loPI    C3 1507   8.989  15.577  10.684  0.0187 -0.0443  0.2378
   95loPI   PO4 1508   8.770  15.701  10.131 -0.1239 -0.3277  0.2380
   95loPI   GL1 1509   8.999  15.816   9.840  0.2091  0.0823 -0.0144
   95loPI   GL2 1510   8.727  15.842   9.634 -0.0869 -0.0298 -0.1263
   95loPI   C1A 1511   9.219  15.908   9.523 -0.3793  0.0799  0.0091
   95loPI   C2A 1512   9.301  15.822   9.204 -0.1092  0.1710  0.1967
   95loPI   C3A 1513   9.238  15.801   8.718  0.6322 -0.3163 -0.1951
   95loPI   C4A 1514   9.247  15.765   8.280 -0.1704  0.1620 -0.3380
   95loPI   C5A 1515   9.157  15.802   7.884 -0.0276  0.0262  0.0561
   95loPI   C6A 1516   9.002  15.351   7.689  0.0386  0.0501  0.4384
   95loPI   C1B 1517   8.644  15.961   9.172  0.3360 -0.0253 -0.3584
   95loPI   C2B 1518   8.690  15.985   8.761  0.2756  0.0031 -0.2427
   95loPI   C3B 1519   8.560  15.740   8.354 -0.2298  0.2647 -0.0531
   95loPI   C4B 1520   8.674  15.614   7.938 -0.1347 -0.1062  0.3199
   96loPI    C1 1521  14.766   5.594  10.195  0.3413  0.1371  0.3850
   96loPI    C2 1522  14.454   5.746  10.393 -0.0344 -0.0196 -0.0693
   96loPI    C3 1523  14.523   5.352  10.401 -0.0633 -0.0297 -0.2585
   96loPI   PO4 1524  14.818   5.696   9.952  0.3216 -0.1324 -0.3695
   96loPI   GL1 1525  14.580   5.693   9.555  0.0351  0.0258  0.2390
   96loPI   GL2 1526  14.289   5.604   9.485  0.1936 -0.3013  0.0962
   96loPI   C1A 1527  14.780   5.669   9.127 -0.1504 -0.2275 -0.1717
   96loPI   C2A 1528  14.632   5.531   8.712  0.3116 -0.0124 -0.0436
   96loPI   C3A 1529  14.494   5.618   8.280 -0.3152 -0.1696  0.1926
   96loPI   C4A 1530  14.198   5.666   7.950  0.2067 -0.0573 -0.1110
   96loPI   C5A 1531  13.907   5.496   7.700  0.2842  0.0139 -0.1201
   96loPI   C6A 1532  13.537   5.533   7.384 -0.0795 -0.0588 -0.2018
   96loPI   C1B 1533  14.206   5.412   9.077 -0.0294  0.0111 -0.0197
   96loPI   C2B 1534  14.209   5.251   8.656 -0.2018  0.1487  0.0471
   96loPI   C3B 1535  14.282   5.181   8.246 -0.1915  0.1161 -0.0169
   96loPI   C4B 1536  13.940   5.051   7.993  0.0312 -0.5698  0.0854
   97loPI    C1 1537   0.602  10.529   9.325  0.2983 -0.0641  0.1873
   97loPI    C2 1538   0.536  10.730   9.665 -0.4413 -0.2829  0.1902
   97loPI    C3 1539   0.450  10.340   9.643 -0.1055 -0.3440 -0.1611
   97loPI   PO4 1540   0.581  10.799   9.148 -0.1026  0.2752 -0.2413
   97loPI   GL1 1541   0.392  10.902   8.773 -0.0611 -0.0797  0.1872
   97loPI   GL2 1542   0.622  11.234   8.759  0.4015 -0.0838  0.0913
   97loPI   C1A 1543   0.276  11.085   8.285  0.1931 -0.1081  0.3414
   97loPI   C2A 1544   0.417  11.214   7.852 -0.0684  0.4818 -0.1047
   97loPI   C3A 1545   0.467  11.439   7.429 -0.0606  0.1421  0.2905
   97loPI   C4A 1546   0.771  11.325   7.132  0.1575 -0.2280  0.2154
   97loPI   C5A 1547   1.159  11.198   6.983  0.1274 -0.3041  0.1070
   97loPI   C6A 1548   1.611  11.112   6.919 -0.4123 -0.1112  0.2905
   97loPI   C1B 1549   0.813  10.862   8.437  0.0702 -0.1042  0.0010
   97loPI   C2B 1550   1.202  10.676   8.433 -0.0106 -0.1186  0.0808
   97loPI   C3B 1551   1.485  10.339   8.516 -0.1562 -0.3301 -0.0736
   97loPI   C4B 1552   1.906  10.283   8.656  0.0951  0.0423 -0.2667
   98loPI    C1 1553  17.030   9.588   9.659 -0.0765  0.3077 -0.0379
   98loPI    C2 1554  17.025   9.365   9.991  0.0618  0.0487 -0.2055
   98loPI    C3 1555  17.116   9.754  10.012 -0.3501  0.1351  0.1134
   98loPI   PO4 1556  16.793   9.495   9.525  0.0368  0.1678  0.0839
   98loPI   GL1 1557  16.702   9.520   9.065  0.0717 -0.0419 -0.1173
   98loPI   GL2 1558  16.407   9.419   9.154 -0.0179 -0.1333 -0.0948
   98loPI   C1A 1559  16.684   9.773   8.662  0.1925 -0.1127 -0.0051
   98loPI   C2A 1560  16.721   9.885   8.331  0.2609  0.1884 -0.1012
   98loPI   C3A 1561  16.631  10.008   7.912  0.2924  0.0387  0.0520
   98loPI   C4A 1562  17.026  10.215   7.621  0.0037 -0.3275  0.2772
   98loPI   C5A 1563  17.174  10.300   7.093  0.2560 -0.4334  0.1780
   98loPI   C6A 1564  17.180  10.648   6.854  0.1840  0.0121 -0.0715
   98loPI   C1B 1565  16.265   9.623   8.855 -0.3179 -0.0661  0.0405
   98loPI   C2B 1566  16.237   9.693   8.447  0.2726  0.1949  0.3159
   98loPI   C3B 1567  16.142   9.860   8.041  0.3292  0.2838 -0.0283
   98loPI   C4B 1568  15.771  10.136   7.955  0.3189 -0.4464  0.2663
   99loPI    C1 1569  14.827   3.475  10.653  0.0230  0.1104  0.1102
   99loPI    C2 1570  14.463   3.566  10.790  0.0807  0.1985  0.2072
   99loPI    C3 1571  14.783   3.621  11.023  0.1461  0.0230  0.1602
   99loPI   PO4 1572  14.733   3.565  10.399  0.2094  0.0953  0.3744
   99loPI   GL1 1573  14.694   3.622   9.979  0.1449  0.0114 -0.3484
   99loPI   GL2 1574  14.841   3.556   9.697  0.5217 -0.1499  0.1894
   99loPI   C1A 1575  14.422   3.350   9.687  0.1817 -0.0479 -0.3157
   99loPI   C2A 1576  14.277   2.937   9.593  0.1434  0.0333  0.1957
   99loPI   C3A 1577  14.234   2.615   9.195  0.1015 -0.3110 -0.4147
   99loPI   C4A 1578  14.317   2.542   8.841 -0.1798  0.0893 -0.1751
   99loPI   C5A 1579  14.373   2.404   8.476  0.2484  0.7385 -0.5612
   99loPI   C6A 1580  14.385   2.425   8.051  0.0594 -0.0682  0.1548
   99loPI   C1B 1581  14.841   3.218   9.379  0.0662  0.1595 -0.1996
   99loPI   C2B 1582  15.020   3.041   8.925  0.0045  0.1485  0.1189
   99loPI   C3B 1583  15.129   2.999   8.540 -0.3018 -0.1704  0.0708
   99loPI   C4B 1584  15.300   3.033   8.094 -0.1315 -0.0363 -0.0715
  100loPI    C1 1585  16.611   8.069   9.898 -0.0879 -0.2811  0.2786
  100loPI    C2 1586  16.910   7.864   9.728  0.0772 -0.0161  0.2449
  100loPI    C3 1587  16.978   8.085  10.055 -0.0268  0.2290  0.1045
  100loPI   PO4 1588  16.385   8.060   9.661  0.0105  0.0467 -0.1690
  100loPI   GL1 1589  16.070   8.274   9.351  0.2159  0.2702 -0.2986
  100loPI   GL2 1590  16.223   8.111   9.014 -0.1172  0.3621 -0.0066
  100loPI   C1A 1591  15.867   8.501   9.043  0.2794 -0.0258 -0.0133
  100loPI   C2A 1592  15.849   8.946   8.868 -0.2134  0.0375 -0.0105
  100loPI   C3A 1593  15.974   9.133   8.499 -0.1469  0.3079 -0.0128
  100loPI   C4A 1594  16.081   9.298   8.108  0.3681  0.5213 -0.3012
  100loPI   C5A 1595  16.277   9.499   7.725 -0.0004  0.0233 -0.0064
  100loPI   C6A 1596  16.594   9.698   7.547 -0.1451  0.1570  0.1282
  100loPI   C1B 1597  16.052   8.298   8.652 -0.2157  0.0123 -0.0079
  100loPI   C2B 1598  15.856   8.263   8.291 -0.2683  0.1830 -0.3817
  100loPI   C3B 1599  15.444   8.242   8.208 -0.0670 -0.3049  0.3256
  100loPI   C4B 1600  15.173   8.014   8.018  0.0085 -0.0971  0.0433
  101loPI    C1 1601  12.754   7.524   9.869  0.0622  0.0025  0.0026
  101loPI    C2 1602  12.485   7.808   9.786 -0.1388 -0.2233 -0.1302
  101loPI    C3 1603  12.804   7.894  10.012 -0.2911  0.0613 -0.0194
  101loPI   PO4 1604  12.755   7.440   9.664 -0.0237 -0.2210  0.3623
  101loPI   GL1 1605  12.582   7.101   9.380 -0.1281 -0.1990  0.1761
  101loPI   GL2 1606  12.909   7.124   9.237  0.1392 -0.2343 -0.1419
  101loPI   C1A 1607  12.583   6.713   9.144  0.3530  0.0538 -0.2175
  101loPI   C2A 1608  12.277   6.691   8.861 -0.3320  0.1828  0.2746
  101loPI   C3A 1609  12.271   6.647   8.411 -0.1032 -0.0950 -0.2346
  101loPI   C4A 1610  12.343   6.667   8.050 -0.1906 -0.0727 -0.3375
  101loPI   C5A 1611  12.307   6.359   7.838  0.0450  0.2874 -0.3574
  101loPI   C6A 1612  12.280   6.069   7.503  0.1900  0.1321 -0.0726
  101loPI   C1B 1613  12.744   6.994   8.808 -0.2650  0.0522  0.1885
  101loPI   C2B 1614  12.781   6.881   8.365 -0.0756 -0.2395  0.0585
  101loPI   C3B 1615  12.876   6.730   7.948 -0.2600 -0.0775  0.1767
  101loPI   C4B 1616  12.796   6.448   7.608 -0.3097  0.0264 -0.0734
  102loPI    C1 1617  18.897   4.224   9.550 -0.2529  0.0186  0.0137
  102loPI    C2 1618  19.130   4.492   9.733 -0.1329  0.0004 -0.1107
  102loPI    C3 1619  19.049   4.144   9.911 -0.1480  0.0481 -0.0235
  102loPI   PO4 1620  19.055   4.302   9.306  0.1026  0.2887  0.0659
  102loPI   GL1 1621  19.165   4.185   8.802  0.2093 -0.0313 -0.2696
  102loPI   GL2 1622  19.389   4.015   8.727 -0.2785 -0.4220 -0.0304
  102loPI   C1A 1623  18.914   4.390   8.438 -0.0747 -0.2583 -0.2554
  102loPI   C2A 1624  19.086   4.266   7.959  0.2764  0.0313 -0.0698
  102loPI   C3A 1625  19.224   4.156   7.602  0.0619  0.1901 -0.0200
  102loPI   C4A 1626  19.217   4.093   7.086  0.0497  0.1012  0.2137
  102loPI   C5A 1627  19.041   3.922   6.734  0.3462  0.0222 -0.0261
  102loPI   C6A 1628  19.036   3.632   6.404 -0.1192 -0.0393  0.1343
  102loPI   C1B 1629  19.096   3.924   8.388 -0.0794  0.2295 -0.0215
  102loPI   C2B 1630  19.112   3.662   8.064  0.0839 -0.2341 -0.0217
  102loPI   C3B 1631  19.275   3.443   7.641 -0.0941  0.0285 -0.0597
  102loPI   C4B 1632  19.458   3.261   7.262 -0.0062 -0.1872  0.3220
  103loPI    C1 1633   6.311   3.166   9.550  0.0700  0.0323  0.0911
  103loPI    C2 1634   6.518   3.286   9.870 -0.1019 -0.0190  0.2226
  103loPI    C3 1635   6.138   3.167   9.910 -0.1598  0.0797 -0.0173
  103loPI   PO4 1636   6.452   3.333   9.332 -0.0646 -0.0410 -0.6103
  103loPI   GL1 1637   6.512   3.232   8.780  0.2016  0.0439 -0.2153
  103loPI   GL2 1638   6.430   3.501   8.748 -0.0298 -0.2144  0.1599
  103loPI   C1A 1639   6.167   2.944   8.588 -0.1733 -0.2276 -0.1289
  103loPI   C2A 1640   6.052   2.632   8.332 -0.1767 -0.0159  0.1297
  103loPI   C3A 1641   6.013   2.684   7.909  0.1094 -0.4077  0.0380
  103loPI   C4A 1642   5.767   2.415   7.552 -0.1307  0.1495 -0.1960
  103loPI   C5A 1643   5.771   2.173   7.253  0.1634 -0.3804 -0.3105
  103loPI   C6A 1644   5.930   1.776   7.321  0.2235  0.1050  0.0324
  103loPI   C1B 1645   6.391   3.508   8.243 -0.3163 -0.3335 -0.0267
  103loPI   C2B 1646   6.428   3.498   7.897  0.1009 -0.0869  0.1468
  103loPI   C3B 1647   6.492   3.499   7.480 -0.0563  0.3348 -0.1768
  103loPI   C4B 1648   6.677   3.296   7.135 -0.1287 -0.1528  0.1609
  104loPI    C1 1649  12.944  19.282  10.326 -0.1468 -0.1042 -0.1191
  104loPI    C2 1650  13.174  18.959  10.274 -0.0894 -0.1055  0.1270
  104loPI    C3 1651  13.331  19.325  10.234 -0.1840 -0.1041 -0.2786
  104loPI   PO4 1652  12.662  19.221  10.136 -0.0040 -0.2612 -0.2771
  104loPI   GL1 1653  12.585  19.294   9.734 -0.0159 -0.0651  0.1488
  104loPI   GL2 1654  12.338  19.378   9.515 -0.1367 -0.0257 -0.0766
  104loPI   C1A 1655  12.942  19.404   9.406 -0.4062 -0.1781  0.0907
  104loPI   C2A 1656  13.187  19.649   9.099 -0.0886 -0.1092 -0.0481
  104loPI   C3A 1657  13.277  19.718   8.608  0.1946  0.2470  0.0866
  104loPI   C4A 1658  13.078  19.809   8.257 -0.0237 -0.1483 -0.0377
  104loPI   C5A 1659  13.311  19.793   7.901  0.0256  0.2745  0.0784
  104loPI   C6A 1660  13.400  19.712   7.415  0.1722 -0.0119  0.0525
  104loPI   C1B 1661  12.394  19.605   9.214 -0.3545  0.0284  0.4737
  104loPI   C2B 1662  12.633  19.685   8.883 -0.3525  0.0224 -0.3845
  104loPI   C3B 1663  12.686  20.080   8.547 -0.1397  0.1132 -0.3356
  104loPI   C4B 1664  12.497  20.423   8.293  0.4828 -0.0239 -0.2050
  105loPI    C1 1665  18.583   6.608   9.364 -0.0054 -0.3053  0.1249
  105loPI    C2 1666  18.403   6.792   9.670 -0.1003 -0.2434  0.0327
  105loPI    C3 1667  18.795   6.718   9.684 -0.0395  0.0658  0.0247
  105loPI   PO4 1668  18.439   6.625   9.044  0.1412 -0.2260 -0.1629
  105loPI   GL1 1669  18.366   6.779   8.642  0.0125 -0.0504 -0.0135
  105loPI   GL2 1670  18.084   6.567   8.650 -0.0972 -0.0741  0.2231
  105loPI   C1A 1671  18.325   6.737   8.260 -0.2955 -0.1305 -0.0863
  105loPI   C2A 1672  18.343   6.621   7.878  0.0350  0.0717  0.1712
  105loPI   C3A 1673  18.465   6.408   7.510 -0.0213  0.5829 -0.2357
  105loPI   C4A 1674  18.399   6.186   7.197 -0.0853 -0.2111  0.0458
  105loPI   C5A 1675  18.496   5.931   6.964  0.0182 -0.0752  0.0084
  105loPI   C6A 1676  18.605   5.704   6.576  0.1200 -0.1690 -0.0971
  105loPI   C1B 1677  17.982   6.389   8.186  0.0487  0.0658  0.1649
  105loPI   C2B 1678  17.971   6.295   7.697 -0.1966 -0.2176 -0.4008
  105loPI   C3B 1679  17.766   6.160   7.392  0.2247 -0.1224 -0.1808
  105loPI   C4B 1680  17.934   5.965   6.968  0.0459 -0.0578  0.3530
  106loPI    C1 1681   7.363   6.530   9.430 -0.0302 -0.1884 -0.1729
  106loPI    C2 1682   7.682   6.597   9.663 -0.1906 -0.1080  0.0264
  106loPI    C3 1683   7.590   6.224   9.552  0.0386 -0.1203 -0.1290
  106loPI   PO4 1684   7.450   6.693   9.237 -0.1451 -0.0052  0.2708
  106loPI   GL1 1685   7.366   6.760   8.787  0.0097  0.0706 -0.2549
  106loPI   GL2 1686   7.614   6.896   8.785  0.3413 -0.0259  0.0778
  106loPI   C1A 1687   7.014   6.686   8.471 -0.2178  0.1918  0.3812
  106loPI   C2A 1688   6.921   6.685   8.102  0.2688 -0.0142 -0.1842
  106loPI   C3A 1689   6.989   6.974   7.688 -0.1479  0.0090 -0.3911
  106loPI   C4A 1690   6.875   7.259   7.445  0.1193  0.2735 -0.2738
  106loPI   C5A 1691   6.927   7.684   7.285  0.0382  0.2450 -0.2111
  106loPI   C6A 1692   6.769   8.011   7.067  0.0753  0.2193  0.0337
  106loPI   C1B 1693   7.478   6.923   8.248  0.0595  0.2144 -0.1620
  106loPI   C2B 1694   7.395   7.232   7.883 -0.2858 -0.2186  0.2918
  106loPI   C3B 1695   7.371   7.180   7.396 -0.1506 -0.2779  0.0498
  106loPI   C4B 1696   7.172   6.950   7.079  0.0505 -0.2107  0.0645
  107loPI    C1 1697  11.392  10.604  10.183 -0.0113 -0.0468 -0.1054
  107loPI    C2 1698  11.303  10.257  10.005 -0.0484 -0.1808  0.1694
  107loPI    C3 1699  11.684  10.351  10.080 -0.0192 -0.0422 -0.1391
  107loPI   PO4 1700  11.193  10.780   9.971  0.2811 -0.2351 -0.0120
  107loPI   GL1 1701  10.978  10.925   9.606  0.1783  0.0388  0.1092
  107loPI   GL2 1702  11.147  10.813   9.357 -0.1286 -0.2515 -0.1069
  107loPI   C1A 1703  10.804  11.181   9.312  0.0298  0.1768 -0.0983
  107loPI   C2A 1704  10.856  11.286   8.870 -0.1865 -0.1253 -0.0973
  107loPI   C3A 1705  11.152  11.438   8.579  0.2181  0.1752  0.0006
  107loPI   C4A 1706  11.151  11.638   8.130  0.0753  0.1461 -0.1208
  107loPI   C5A 1707  11.021  11.532   7.642  0.0235 -0.4144  0.1645
  107loPI   C6A 1708  10.889  11.512   7.179  0.1211  0.0678  0.0588
  107loPI   C1B 1709  11.073  10.470   9.027  0.0757  0.1540  0.2173
  107loPI   C2B 1710  10.814  10.392   8.728  0.1654 -0.0895 -0.0474
  107loPI   C3B 1711  10.643  10.391   8.363  0.3654 -0.2504 -0.3484
  107loPI   C4B 1712  10.570  10.308   7.859  0.1162  0.0264 -0.2045
  108loPI    C1 1713   9.539   9.896   9.558 -0.2608 -0.2503  0.0391
  108loPI    C2 1714   9.540   9.959   9.953 -0.0293  0.0477 -0.0050
  108loPI    C3 1715   9.199   9.993   9.746 -0.1091  0.1109  0.1355
  108loPI   PO4 1716   9.659  10.115   9.413  0.0346  0.0281 -0.0773
  108loPI   GL1 1717   9.838  10.288   8.949 -0.1122  0.2022  0.1348
  108loPI   GL2 1718   9.921   9.895   9.042  0.0037 -0.1124 -0.0540
  108loPI   C1A 1719   9.974  10.123   8.559 -0.2815 -0.2955 -0.2530
  108loPI   C2A 1720  10.047   9.986   8.254 -0.3628  0.3812  0.2545
  108loPI   C3A 1721  10.109   9.992   7.738 -0.3454  0.2021  0.3788
  108loPI   C4A 1722  10.481   9.955   7.466 -0.0428  0.1715  0.0553
  108loPI   C5A 1723  10.972   9.983   7.425 -0.0160  0.0006 -0.0172
  108loPI   C6A 1724  11.495  10.104   7.408 -0.2103  0.1124  0.1778
  108loPI   C1B 1725   9.732   9.654   8.580 -0.0532  0.4046 -0.1298
  108loPI   C2B 1726   9.763   9.641   8.088 -0.0731  0.3450 -0.1463
  108loPI   C3B 1727   9.679   9.299   7.751 -0.1832  0.2698  0.0709
  108loPI   C4B 1728   9.590   9.234   7.290  0.0620 -0.2246 -0.2594
  109loPI    C1 1729  14.338  11.063   9.775 -0.1064 -0.0390 -0.0937
  109loPI    C2 1730  14.278  10.922  10.145  0.1364 -0.2165 -0.1191
  109loPI    C3 1731  14.030  10.819   9.849 -0.2139  0.1355  0.0425
  109loPI   PO4 1732  14.548  11.062   9.650 -0.0749  0.2335  0.1949
  109loPI   GL1 1733  14.643  10.875   9.301  0.1645 -0.1677 -0.0251
  109loPI   GL2 1734  14.739  11.157   9.158  0.3630  0.1845 -0.3093
  109loPI   C1A 1735  14.867  10.800   8.797  0.0083 -0.0841  0.0315
  109loPI   C2A 1736  14.888  11.001   8.510  0.1613  0.1312 -0.0729
  109loPI   C3A 1737  15.146  11.090   8.095 -0.2817 -0.0884  0.0299
  109loPI   C4A 1738  15.017  11.227   7.664  0.3174 -0.0696  0.1276
  109loPI   C5A 1739  14.507  11.351   7.696 -0.3079 -0.0791 -0.1206
  109loPI   C6A 1740  14.225  11.124   7.690 -0.1441  0.0889 -0.1437
  109loPI   C1B 1741  14.471  11.163   8.894  0.1139  0.0007 -0.0429
  109loPI   C2B 1742  14.390  10.992   8.648  0.0344  0.0372  0.3342
  109loPI   C3B 1743  14.358  10.845   8.347  0.2941  0.0639 -0.0216
  109loPI   C4B 1744  14.407  10.500   8.068  0.0091  0.0332  0.1305
  110loPI    C1 1745  11.384  15.383  10.514 -0.0659 -0.0868  0.1330
  110loPI    C2 1746  11.150  15.609  10.747  0.2894  0.2695  0.1551
  110loPI    C3 1747  11.445  15.393  10.910  0.1172 -0.0103  0.1036
  110loPI   PO4 1748  11.212  15.393  10.283 -0.3121  0.1705 -0.1059
  110loPI   GL1 1749  11.235  15.419   9.891  0.0024 -0.0519  0.4156
  110loPI   GL2 1750  11.003  15.655   9.867 -0.1279 -0.0278  0.0524
  110loPI   C1A 1751  11.477  15.564   9.553  0.2056  0.3089  0.0846
  110loPI   C2A 1752  11.565  15.390   9.135  0.0670  0.1229  0.2811
  110loPI   C3A 1753  11.973  15.573   8.884  0.0598  0.1031  0.0412
  110loPI   C4A 1754  12.291  15.845   8.661  0.1491 -0.3407  0.1486
  110loPI   C5A 1755  12.643  15.815   8.516 -0.4375  0.2909 -0.1503
  110loPI   C6A 1756  12.788  15.984   8.078 -0.1994  0.1318 -0.0800
  110loPI   C1B 1757  11.210  15.951   9.743 -0.0471  0.2569 -0.3757
  110loPI   C2B 1758  11.496  16.158   9.399  0.2459  0.1428 -0.0791
  110loPI   C3B 1759  11.626  16.303   8.936 -0.1467  0.1086  0.2481
  110loPI   C4B 1760  11.446  16.367   8.531  0.2883 -0.0478 -0.0039
  111loPI    C1 1761  17.413   5.409   9.271  0.0041 -0.4933 -0.3526
  111loPI    C2 1762  17.563   5.117   9.499  0.0279 -0.0967  0.1594
  111loPI    C3 1763  17.253   5.332   9.630  0.1476  0.2505 -0.1128
  111loPI   PO4 1764  17.462   5.322   9.051 -0.1235 -0.0269  0.0050
  111loPI   GL1 1765  17.069   5.372   8.730  0.1122  0.0408  0.3778
  111loPI   GL2 1766  17.160   5.657   8.840  0.1082 -0.2306  0.3056
  111loPI   C1A 1767  16.944   5.548   8.347 -0.2926  0.0354 -0.1037
  111loPI   C2A 1768  16.731   5.726   7.986 -0.1905 -0.0724 -0.0553
  111loPI   C3A 1769  16.627   5.851   7.552  0.1433 -0.0904  0.0777
  111loPI   C4A 1770  16.411   5.917   7.259 -0.2076  0.1956 -0.1879
  111loPI   C5A 1771  16.060   5.935   6.952 -0.2724 -0.2070  0.0866
  111loPI   C6A 1772  15.930   5.774   6.465  0.1100  0.0598 -0.1952
  111loPI   C1B 1773  17.455   5.542   8.463  0.1306  0.1049  0.4141
  111loPI   C2B 1774  17.537   5.409   8.069  0.0516  0.1688 -0.1861
  111loPI   C3B 1775  17.384   5.491   7.723  0.2947 -0.1502 -0.0366
  111loPI   C4B 1776  17.085   5.650   7.415  0.0523  0.1570 -0.1347
  112loPI    C1 1777  11.866  17.821  10.361  0.0451 -0.2240  0.0684
  112loPI    C2 1778  11.686  17.582  10.097  0.2432 -0.0388 -0.2405
  112loPI    C3 1779  11.580  17.569  10.482 -0.2932 -0.0693 -0.3809
  112loPI   PO4 1780  12.097  17.960  10.173  0.4031  0.0098 -0.3804
  112loPI   GL1 1781  12.106  18.310   9.932 -0.2906  0.2731 -0.0681
  112loPI   GL2 1782  12.022  18.490   9.679 -0.0083 -0.0921 -0.0897
  112loPI   C1A 1783  12.176  18.077   9.441  0.0070  0.0010 -0.1220
  112loPI   C2A 1784  12.244  18.033   9.082  0.2489 -0.1085  0.0551
  112loPI   C3A 1785  12.444  17.885   8.702 -0.1505 -0.2173  0.0199
  112loPI   C4A 1786  12.448  17.751   8.216 -0.0877 -0.2306 -0.1302
  112loPI   C5A 1787  12.453  18.076   7.877 -0.0348 -0.2984  0.1434
  112loPI   C6A 1788  12.238  18.452   7.608 -0.1255 -0.0757 -0.4045
  112loPI   C1B 1789  12.409  18.719   9.465 -0.0729 -0.1765  0.1406
  112loPI   C2B 1790  12.563  18.937   9.165  0.0580 -0.1101 -0.2406
  112loPI   C3B 1791  12.810  19.186   8.855  0.1702 -0.2485  0.0011
  112loPI   C4B 1792  12.864  19.375   8.541  0.0426 -0.2089  0.0052
  113loPI    C1 1793   6.884  16.027  10.090 -0.1392 -0.2330  0.0656
  113loPI    C2 1794   6.599  16.061   9.812 -0.1442 -0.0182  0.0957
  113loPI    C3 1795   6.523  15.867  10.153 -0.2020 -0.1060  0.0332
  113loPI   PO4 1796   7.097  15.881   9.991  0.0274  0.1536 -0.2495
  113loPI   GL1 1797   7.294  15.724   9.657  0.7898  0.0395 -0.0866
  113loPI   GL2 1798   7.303  16.020   9.462  0.1569 -0.0941  0.2276
  113loPI   C1A 1799   7.621  15.727   9.234  0.0311  0.0385 -0.0778
  113loPI   C2A 1800   7.618  15.774   8.881 -0.0688  0.0618 -0.1539
  113loPI   C3A 1801   7.733  15.994   8.525  0.2926 -0.1161 -0.1018
  113loPI   C4A 1802   7.804  16.152   8.125 -0.2198 -0.1239  0.2699
  113loPI   C5A 1803   7.603  16.410   7.904 -0.2086  0.1819 -0.1822
  113loPI   C6A 1804   7.350  16.697   8.037 -0.0104  0.4332  0.0833
  113loPI   C1B 1805   7.108  15.909   9.063  0.2487  0.1545 -0.1255
  113loPI   C2B 1806   7.225  16.124   8.627  0.4103  0.0508 -0.1172
  113loPI   C3B 1807   7.387  16.304   8.342 -0.0488 -0.1151 -0.1700
  113loPI   C4B 1808   7.763  16.613   8.356  0.1765  0.0913 -0.1843
  114loPI    C1 1809   3.344  16.113  10.017 -0.0103  0.1351  0.1852
  114loPI    C2 1810   3.028  15.868  10.024  0.0864 -0.0149 -0.3246
  114loPI    C3 1811   3.061  16.159  10.296 -0.2810 -0.2522 -0.0161
  114loPI   PO4 1812   3.482  16.133   9.701  0.1496  0.2214 -0.2588
  114loPI   GL1 1813   3.641  15.942   9.462 -0.1942 -0.0475  0.1606
  114loPI   GL2 1814   3.967  15.860   9.544 -0.4154  0.2970 -0.2629
  114loPI   C1A 1815   3.699  15.863   9.011 -0.2355  0.1392 -0.0163
  114loPI   C2A 1816   3.936  15.681   8.654 -0.0072 -0.0206  0.0470
  114loPI   C3A 1817   4.311  15.764   8.378  0.1457  0.3621 -0.0499
  114loPI   C4A 1818   4.426  15.943   7.975  0.0188 -0.1841  0.1584
  114loPI   C5A 1819   4.065  16.159   7.717  0.1867 -0.1452 -0.3699
  114loPI   C6A 1820   4.000  16.606   7.362 -0.0075  0.0126 -0.0729
  114loPI   C1B 1821   4.139  15.933   9.179 -0.1818 -0.2169  0.1351
  114loPI   C2B 1822   4.294  16.051   8.767  0.0801  0.2153 -0.1556
  114loPI   C3B 1823   4.645  16.128   8.446  0.0137  0.1447 -0.1166
  114loPI   C4B 1824   5.150  16.057   8.363 -0.0536  0.0228 -0.1826
  115loPI    C1 1825   5.326  18.372  10.022  0.1790 -0.0338 -0.2514
  115loPI    C2 1826   5.092  18.269  10.330  0.2880  0.1555 -0.1033
  115loPI    C3 1827   5.454  18.102  10.289  0.3684  0.3012  0.0039
  115loPI   PO4 1828   5.132  18.523   9.789 -0.1498  0.0694 -0.5657
  115loPI   GL1 1829   5.000  18.675   9.387  0.0908  0.2081  0.0591
  115loPI   GL2 1830   4.765  18.855   9.155  0.0632  0.1474  0.3815
  115loPI   C1A 1831   5.072  18.483   9.032 -0.1817 -0.0163 -0.2363
  115loPI   C2A 1832   5.196  18.681   8.695  0.0839 -0.2248 -0.0818
  115loPI   C3A 1833   5.359  18.560   8.381  0.0640 -0.2360  0.1839
  115loPI   C4A 1834   5.363  18.204   8.053  0.0936  0.0752  0.2426
  115loPI   C5A 1835   5.165  18.061   7.656 -0.0979 -0.0047  0.1181
  115loPI   C6A 1836   4.925  18.322   7.222  0.0131  0.0195  0.0700
  115loPI   C1B 1837   4.806  18.990   8.643 -0.2501 -0.0817 -0.0244
  115loPI   C2B 1838   5.182  19.107   8.359  0.0076 -0.5255 -0.2125
  115loPI   C3B 1839   5.537  19.149   8.174 -0.0516  0.0275 -0.0925
  115loPI   C4B 1840   5.860  19.158   7.749  0.1315 -0.0568 -0.2708
  116loPI    C1 1841  17.637   8.158   9.410  0.0114  0.1995  0.1385
  116loPI    C2 1842  17.721   8.114   9.799 -0.0458 -0.2438  0.1056
  116loPI    C3 1843  17.340   8.136   9.678 -0.0273 -0.0732  0.0760
  116loPI   PO4 1844  17.786   8.239   9.285 -0.1106  0.0703 -0.1063
  116loPI   GL1 1845  17.729   8.182   8.858  0.0557  0.0630  0.0674
  116loPI   GL2 1846  17.863   8.405   8.809  0.1869 -0.0525  0.0525
  116loPI   C1A 1847  17.378   8.510   8.594 -0.1261 -0.2154 -0.2808
  116loPI   C2A 1848  17.292   8.491   8.219  0.0517  0.3171 -0.0033
  116loPI   C3A 1849  16.922   8.544   7.864 -0.1601 -0.2449  0.3026
  116loPI   C4A 1850  16.682   8.482   7.461 -0.4477 -0.0855  0.3450
  116loPI   C5A 1851  16.434   8.683   7.141 -0.1585 -0.1928  0.0629
  116loPI   C6A 1852  16.225   8.475   6.816 -0.3186 -0.3050 -0.1661
  116loPI   C1B 1853  17.778   8.340   8.353  0.1555 -0.0506  0.0548
  116loPI   C2B 1854  17.712   8.520   7.949 -0.0868  0.0683  0.1910
  116loPI   C3B 1855  17.712   8.925   7.700  0.1468  0.2614  0.3632
  116loPI   C4B 1856  17.511   8.952   7.221 -0.2538  0.0662  0.2484
  117loPI    C1 1857   9.897  17.391  10.509 -0.2666 -0.0564  0.1177
  117loPI    C2 1858   9.936  17.667  10.796 -0.0231  0.1085 -0.0696
  117loPI    C3 1859   9.916  17.279  10.892 -0.1667  0.1763  0.1825
  117loPI   PO4 1860   9.649  17.552  10.358  0.2603 -0.0255  0.0993
  117loPI   GL1 1861   9.540  17.429   9.894  0.2108 -0.2717 -0.0578
  117loPI   GL2 1862   9.904  17.377   9.970 -0.0541 -0.0104 -0.0037
  117loPI   C1A 1863   9.398  17.498   9.426 -0.3342 -0.2622  0.4047
  117loPI   C2A 1864   9.204  17.630   9.011  0.0090  0.3104 -0.0696
  117loPI   C3A 1865   9.110  17.804   8.568  0.1161  0.3804 -0.0323
  117loPI   C4A 1866   9.258  17.821   8.088 -0.1525 -0.0783 -0.0954
  117loPI   C5A 1867   9.291  17.769   7.712  0.0714 -0.1089  0.1111
  117loPI   C6A 1868   9.288  17.611   7.286  0.1189  0.1551  0.1486
  117loPI   C1B 1869  10.024  17.552   9.531 -0.0498  0.1180 -0.0230
  117loPI   C2B 1870  10.068  17.511   9.094 -0.0614 -0.1040 -0.0193
  117loPI   C3B 1871   9.988  17.380   8.659 -0.0678 -0.1233 -0.1021
  117loPI   C4B 1872  10.068  17.201   8.364 -0.1665  0.1784 -0.4700
  118loPI    C1 1873   6.321   1.144   9.809  0.0241  0.0922  0.0224
  118loPI    C2 1874   6.628   1.143  10.066 -0.0145  0.2400  0.0698
  118loPI    C3 1875   6.320   0.895  10.122 -0.0974  0.3825  0.2581
  118loPI   PO4 1876   6.492   1.122   9.558 -0.1053  0.0267 -0.2355
  118loPI   GL1 1877   6.616   1.106   9.077  0.1297  0.1513  0.0582
  118loPI   GL2 1878   6.648   0.865   9.161  0.2709 -0.0026 -0.2877
  118loPI   C1A 1879   6.761   1.195   8.621  0.1239  0.2649  0.0830
  118loPI   C2A 1880   6.656   1.512   8.253 -0.0201  0.0989 -0.0963
  118loPI   C3A 1881   6.515   1.617   7.898  0.2081 -0.2359 -0.0714
  118loPI   C4A 1882   6.441   1.727   7.422  0.1515  0.0215 -0.2318
  118loPI   C5A 1883   6.598   1.583   7.133 -0.0055 -0.1056 -0.0399
  118loPI   C6A 1884   6.641   1.186   6.928  0.0796 -0.0292 -0.2192
  118loPI   C1B 1885   6.725   0.612   8.855  0.0747  0.2941 -0.2090
  118loPI   C2B 1886   6.649   0.378   8.565  0.0524 -0.4231 -0.0345
  118loPI   C3B 1887   6.700   0.109   8.207  0.1459  0.1190 -0.1270
  118loPI   C4B 1888   7.007  -0.160   7.956  0.0260 -0.1713 -0.0151
  119loPI    C1 1889   4.018  18.191  10.260 -0.1218  0.1660  0.0694
  119loPI    C2 1890   3.904  18.090  10.630 -0.1164 -0.0046  0.0251
  119loPI    C3 1891   4.267  17.986  10.497 -0.0751  0.1553  0.0112
  119loPI   PO4 1892   3.909  18.252  10.059  0.0456 -0.0202  0.0498
  119loPI   GL1 1893   3.813  18.287   9.574  0.0791  0.0426 -0.1452
  119loPI   GL2 1894   4.063  18.234   9.375 -0.0102  0.0035 -0.3714
  119loPI   C1A 1895   3.532  18.220   9.197 -0.0557  0.1389  0.3214
  119loPI   C2A 1896   3.504  18.284   8.692 -0.0252 -0.1730 -0.3036
  119loPI   C3A 1897   3.365  18.220   8.372 -0.5641  0.3411 -0.3573
  119loPI   C4A 1898   3.438  18.244   7.932 -0.2682 -0.0439  0.0287
  119loPI   C5A 1899   3.499  18.371   7.498  0.3177 -0.2787 -0.0672
  119loPI   C6A 1900   3.785  18.549   7.326 -0.2846 -0.2451 -0.0639
  119loPI   C1B 1901   3.938  17.943   9.068 -0.0071 -0.1589  0.2096
  119loPI   C2B 1902   3.840  17.835   8.686 -0.1585 -0.0090  0.0727
  119loPI   C3B 1903   3.924  17.686   8.232 -0.2309 -0.0534 -0.0517
  119loPI   C4B 1904   3.967  17.556   7.798 -0.1919 -0.2897  0.0850
  120loPI    C1 1905   6.942   0.732  10.078  0.0414 -0.3188  0.0077
  120loPI    C2 1906   6.725   0.762  10.412  0.0003  0.1989 -0.0569
  120loPI    C3 1907   7.030   1.013  10.349  0.1864 -0.0781 -0.2820
  120loPI   PO4 1908   6.772   0.667   9.916  0.2343  0.5033  0.1979
  120loPI   GL1 1909   6.918   0.687   9.539  0.0259  0.0250  0.0931
  120loPI   GL2 1910   7.231   0.729   9.477 -0.1877  0.0224  0.0287
  120loPI   C1A 1911   6.770   0.237   9.247  0.0134  0.3243 -0.1438
  120loPI   C2A 1912   6.802   0.072   8.945 -0.1208 -0.3141  0.1644
  120loPI   C3A 1913   6.937  -0.221   8.532 -0.2388 -0.1580  0.1892
  120loPI   C4A 1914   6.698  -0.538   8.204 -0.4989  0.2852  0.2315
  120loPI   C5A 1915   6.862  -0.626   7.728  0.0956 -0.0432  0.2444
  120loPI   C6A 1916   6.817  -0.803   7.307  0.1667  0.0885  0.5970
  120loPI   C1B 1917   7.211   0.465   9.074 -0.1436 -0.0590 -0.1486
  120loPI   C2B 1918   7.155   0.585   8.659  0.1311 -0.1960  0.2433
  120loPI   C3B 1919   6.921   0.770   8.303 -0.0309  0.0937  0.1732
  120loPI   C4B 1920   6.835   1.120   7.951  0.4258 -0.1246 -0.1450
  121loPI    C1 1921  16.574  16.162   9.765 -0.1153 -0.0372 -0.2641
  121loPI    C2 1922  16.196  16.269   9.839 -0.1628 -0.2903 -0.1290
  121loPI    C3 1923  16.451  16.213  10.142 -0.0116 -0.1064 -0.2204
  121loPI   PO4 1924  16.609  16.310   9.619 -0.4027  0.0198  0.0070
  121loPI   GL1 1925  16.562  16.534   9.290 -0.2489 -0.1688 -0.0922
  121loPI   GL2 1926  16.649  16.286   9.114 -0.2632  0.2178  0.1379
  121loPI   C1A 1927  16.460  16.556   8.785 -0.4720 -0.0596 -0.1801
  121loPI   C2A 1928  16.417  16.394   8.363  0.3381 -0.1911 -0.0480
  121loPI   C3A 1929  16.541  15.987   8.182  0.2089  0.0700  0.0882
  121loPI   C4A 1930  16.954  15.897   8.022 -0.2767  0.3333 -0.0281
  121loPI   C5A 1931  17.113  15.659   7.608 -0.0611  0.0663 -0.1536
  121loPI   C6A 1932  16.838  15.796   7.256  0.0607  0.2138 -0.1702
  121loPI   C1B 1933  16.619  16.100   8.748 -0.0118  0.2570 -0.2659
  121loPI   C2B 1934  16.622  15.689   8.570 -0.0092 -0.2544 -0.1018
  121loPI   C3B 1935  16.508  15.464   8.246 -0.0455  0.2060 -0.1139
  121loPI   C4B 1936  16.295  15.375   7.896 -0.2663  0.1217  0.0707
  122loPI    C1 1937   2.574  17.850  10.209  0.0773  0.1762 -0.0288
  122loPI    C2 1938   2.271  17.913  10.461  0.1727  0.3921  0.0345
  122loPI    C3 1939   2.523  17.609  10.525 -0.1861  0.0410 -0.1715
  122loPI   PO4 1940   2.330  17.859   9.894  0.0564  0.2712 -0.3600
  122loPI   GL1 1941   2.214  17.651   9.636 -0.0576  0.0601 -0.1949
  122loPI   GL2 1942   2.333  17.358   9.580 -0.0878 -0.2182  0.1991
  122loPI   C1A 1943   2.221  17.779   9.071 -0.1426  0.1526 -0.0130
  122loPI   C2A 1944   2.297  17.925   8.638  0.0901 -0.2396  0.1103
  122loPI   C3A 1945   2.463  17.983   8.216 -0.0728 -0.1014 -0.0991
  122loPI   C4A 1946   2.578  18.216   7.765  0.1710 -0.0214  0.2552
  122loPI   C5A 1947   2.541  18.585   7.499  0.0636  0.1896  0.4216
  122loPI   C6A 1948   2.491  18.966   7.430  0.1102 -0.1858 -0.0152
  122loPI   C1B 1949   2.557  17.156   9.191  0.1465  0.1699  0.2516
  122loPI   C2B 1950   2.733  17.116   8.796  0.0804 -0.0924 -0.1859
  122loPI   C3B 1951   2.669  17.175   8.198  0.1853  0.2999  0.0231
  122loPI   C4B 1952   2.693  17.356   7.843  0.2139 -0.2311  0.0499
  123loPI    C1 1953   0.436  18.357  10.025  0.1010  0.3965 -0.1144
  123loPI    C2 1954   0.830  18.308  10.070  0.0589  0.1427 -0.0062
  123loPI    C3 1955   0.603  18.002   9.949 -0.1199  0.2585  0.0327
  123loPI   PO4 1956   0.435  18.643   9.822  0.0992 -0.2008  0.0054
  123loPI   GL1 1957   0.021  18.624   9.501 -0.1859  0.1681  0.0628
  123loPI   GL2 1958  -0.198  18.857   9.338 -0.1093  0.1269  0.0845
  123loPI   C1A 1959   0.133  18.552   9.119 -0.1049 -0.0500  0.1881
  123loPI   C2A 1960   0.131  18.679   8.741 -0.0801 -0.0191 -0.0886
  123loPI   C3A 1961   0.082  18.733   8.380 -0.1773  0.0698 -0.1766
  123loPI   C4A 1962   0.020  18.779   7.987  0.0807 -0.2671  0.0082
  123loPI   C5A 1963  -0.220  18.852   7.491  0.0053 -0.3445 -0.3425
  123loPI   C6A 1964  -0.285  18.854   7.238  0.0187  0.1047 -0.3748
  123loPI   C1B 1965  -0.439  19.036   8.943 -0.0169 -0.0885 -0.1002
  123loPI   C2B 1966  -0.509  19.218   8.468 -0.0271 -0.0942 -0.0188
  123loPI   C3B 1967  -0.766  19.277   8.118  0.0052  0.1264 -0.1538
  123loPI   C4B 1968  -0.743  19.117   7.630  0.0518  0.0864  0.0761
  124loPI    C1 1969   1.061  18.641   9.757 -0.1269 -0.0727  0.0103
  124loPI    C2 1970   0.882  18.794  10.080 -0.0061 -0.1066  0.0941
  124loPI    C3 1971   1.259  18.663  10.104  0.0126 -0.0841 -0.0681
  124loPI   PO4 1972   0.862  18.567   9.615  0.0280 -0.0050  0.1347
  124loPI   GL1 1973   0.566  18.721   9.307 -0.0727 -0.2091  0.1742
  124loPI   GL2 1974   0.307  19.030   9.361  0.0037  0.0456  0.0106
  124loPI   C1A 1975   0.588  18.443   8.948 -0.4137 -0.2412 -0.0639
  124loPI   C2A 1976   0.484  18.281   8.502  0.2075 -0.0275  0.1340
  124loPI   C3A 1977   0.331  18.330   8.064 -0.3666 -0.0864 -0.1461
  124loPI   C4A 1978   0.254  18.316   7.654 -0.1861 -0.2210 -0.0485
  124loPI   C5A 1979   0.189  18.004   7.404 -0.0972  0.2319 -0.0016
  124loPI   C6A 1980   0.186  17.619   7.256  0.0732 -0.1369  0.0773
  124loPI   C1B 1981   0.120  19.146   8.988 -0.3814  0.2687 -0.0200
  124loPI   C2B 1982  -0.035  19.191   8.572 -0.1413  0.0833 -0.2152
  124loPI   C3B 1983  -0.068  19.271   8.147 -0.1420 -0.3116 -0.0615
  124loPI   C4B 1984  -0.286  19.306   7.801 -0.0961  0.0534  0.1513
  125loPI    C1 1985   8.492   9.185   9.171  0.0695 -0.0941  0.0927
  125loPI    C2 1986   8.224   8.999   8.941  0.1640  0.1438 -0.2175
  125loPI    C3 1987   8.102   9.218   9.253  0.0381 -0.2220 -0.0035
  125loPI   PO4 1988   8.580   9.330   9.042  0.1128  0.4703 -0.0295
  125loPI   GL1 1989   8.365   9.462   8.824  0.2955 -0.1702 -0.1349
  125loPI   GL2 1990   8.532   9.586   8.524 -0.2004  0.0171 -0.0109
  125loPI   C1A 1991   8.383   9.171   8.449  0.0452 -0.0780 -0.2164
  125loPI   C2A 1992   8.395   9.212   8.092  0.0243 -0.1542  0.2734
  125loPI   C3A 1993   8.747   9.012   7.794  0.2017  0.0548  0.1097
  125loPI   C4A 1994   8.773   8.649   7.450 -0.1425  0.0977 -0.0723
  125loPI   C5A 1995   9.063   8.643   7.014  0.1513  0.1590 -0.2295
  125loPI   C6A 1996   9.530   8.585   6.910  0.0272 -0.2164 -0.1076
  125loPI   C1B 1997   8.491   9.744   8.148 -0.2211 -0.0743  0.4198
  125loPI   C2B 1998   8.380   9.669   7.796  0.0791 -0.1618 -0.2458
  125loPI   C3B 1999   8.311   9.211   7.592 -0.1620 -0.1635 -0.1574
  125loPI   C4B 2000   8.034   9.141   7.231  0.4374 -0.0554 -0.0269
  126loPI    C1 2001  14.773  16.624  10.949 -0.0670 -0.0652  0.0087
  126loPI    C2 2002  14.800  16.229  10.893  0.0703 -0.0154 -0.2965
  126loPI    C3 2003  15.021  16.406  11.175 -0.2643 -0.2036  0.0947
  126loPI   PO4 2004  14.581  16.721  10.632 -0.1018 -0.0515  0.0450
  126loPI   GL1 2005  14.692  16.819  10.156  0.2228  0.1185  0.0435
  126loPI   GL2 2006  14.770  17.141   9.967 -0.2568  0.0428  0.1208
  126loPI   C1A 2007  14.653  16.699   9.731  0.2679  0.0274  0.0893
  126loPI   C2A 2008  14.696  16.694   9.193 -0.0714  0.0826 -0.1544
  126loPI   C3A 2009  14.594  16.700   8.841  0.1386  0.0178  0.2732
  126loPI   C4A 2010  14.537  17.037   8.587 -0.1178  0.0659 -0.4246
  126loPI   C5A 2011  14.387  17.326   8.302  0.0070 -0.2226 -0.0084
  126loPI   C6A 2012  14.296  17.696   8.414 -0.1348  0.1956  0.0893
  126loPI   C1B 2013  14.810  17.196   9.568  0.0999 -0.2986 -0.0156
  126loPI   C2B 2014  14.977  17.334   9.182  0.1212 -0.1828 -0.0221
  126loPI   C3B 2015  15.027  17.258   8.760 -0.1664 -0.0258 -0.2105
  126loPI   C4B 2016  14.893  17.539   8.402  0.2156  0.1505  0.1138
  127loPI    C1 2017   2.610  12.069   9.496  0.2038  0.0173 -0.1847
  127loPI    C2 2018   2.510  12.190   9.864 -0.0916 -0.0520 -0.2397
  127loPI    C3 2019   2.369  12.384   9.544 -0.0738 -0.1706 -0.3205
  127loPI   PO4 2020   2.901  11.928   9.408 -0.1976 -0.1053  0.1723
  127loPI   GL1 2021   3.140  12.149   9.071 -0.0173 -0.2550  0.0820
  127loPI   GL2 2022   2.815  12.146   8.972  0.2066 -0.0373 -0.2529
  127loPI   C1A 2023   3.229  12.535   8.810 -0.2929 -0.3319  0.1322
  127loPI   C2A 2024   3.434  12.599   8.448 -0.2153  0.1080 -0.0350
  127loPI   C3A 2025   3.614  12.842   8.141 -0.3479  0.0486  0.0138
  127loPI   C4A 2026   3.735  13.020   7.771 -0.1497  0.2431 -0.2018
  127loPI   C5A 2027   3.721  13.036   7.255  0.1185 -0.1654  0.1432
  127loPI   C6A 2028   3.649  12.733   7.028  0.1211  0.2239 -0.2694
  127loPI   C1B 2029   2.964  12.227   8.577  0.0247 -0.0617 -0.1358
  127loPI   C2B 2030   3.033  12.426   8.177 -0.1777  0.0312 -0.1488
  127loPI   C3B 2031   3.335  12.478   7.839 -0.1625 -0.0544 -0.1483
  127loPI   C4B 2032   3.347  12.751   7.515 -0.0919  0.0938 -0.1031
  128loPI    C1 2033   3.716   8.890   9.098 -0.3263  0.3782  0.1522
  128loPI    C2 2034   3.845   8.890   9.476 -0.1789 -0.0460  0.1067
  128loPI    C3 2035   4.050   9.087   9.195 -0.0488 -0.0879  0.1713
  128loPI   PO4 2036   3.474   8.966   9.065  0.0576  0.0953 -0.0526
  128loPI   GL1 2037   3.190   9.211   8.758 -0.1009 -0.0784 -0.0510
  128loPI   GL2 2038   3.519   9.184   8.584  0.0109  0.0511  0.2589
  128loPI   C1A 2039   3.117   9.007   8.431 -0.0672  0.1122  0.1338
  128loPI   C2A 2040   2.828   9.060   8.292  0.2632 -0.0489 -0.1148
  128loPI   C3A 2041   2.677   8.870   7.973 -0.0188  0.1135 -0.0664
  128loPI   C4A 2042   2.382   8.816   7.573 -0.2442  0.0760  0.0059
  128loPI   C5A 2043   2.387   8.743   7.157 -0.0106 -0.1934 -0.1000
  128loPI   C6A 2044   2.328   8.550   6.736 -0.0067  0.2933  0.2457
  128loPI   C1B 2045   3.654   9.406   8.270 -0.1822 -0.2086  0.1526
  128loPI   C2B 2046   3.815   9.505   7.883 -0.0026  0.1235  0.1199
  128loPI   C3B 2047   3.487   9.516   7.483  0.2160 -0.1042 -0.2766
  128loPI   C4B 2048   3.312   9.871   7.071 -0.1189  0.2499 -0.0190
  129loPI    C1 2049  11.493   3.433  10.260 -0.0953  0.1660  0.1585
  129loPI    C2 2050  11.879   3.480  10.165 -0.1164 -0.0804 -0.0606
  129loPI    C3 2051  11.777   3.277  10.495 -0.0568  0.1863  0.1254
  129loPI   PO4 2052  11.463   3.293  10.004 -0.0137 -0.0387  0.2241
  129loPI   GL1 2053  11.454   3.327   9.602  0.1703 -0.3788 -0.1081
  129loPI   GL2 2054  11.775   3.573   9.677  0.2838  0.1407 -0.0749
  129loPI   C1A 2055  11.707   3.439   9.178  0.0363 -0.1273 -0.3328
  129loPI   C2A 2056  12.100   3.508   8.889  0.0044 -0.1172  0.3252
  129loPI   C3A 2057  12.292   3.401   8.468  0.2013 -0.3128  0.0444
  129loPI   C4A 2058  12.575   3.414   8.009  0.0342  0.0891  0.2218
  129loPI   C5A 2059  12.676   3.609   7.599 -0.0177 -0.2140  0.1047
  129loPI   C6A 2060  12.886   4.065   7.618 -0.0428  0.0164  0.1293
  129loPI   C1B 2061  12.199   3.592   9.530 -0.0157  0.0656 -0.1388
  129loPI   C2B 2062  12.406   3.367   9.294 -0.3026 -0.3027 -0.2044
  129loPI   C3B 2063  12.476   2.951   9.206  0.0698  0.1811  0.0325
  129loPI   C4B 2064  12.231   2.654   9.452  0.0214 -0.1134  0.0535
  130loPI    C1 2065  14.945   7.716   9.801  0.0172 -0.0958  0.0388
  130loPI    C2 2066  14.576   7.782   9.940  0.1086  0.2408  0.1307
  130loPI    C3 2067  14.858   7.634  10.183  0.0657  0.0930  0.0916
  130loPI   PO4 2068  14.988   7.932   9.619  0.3921  0.0756  0.0705
  130loPI   GL1 2069  15.087   7.956   9.210  0.0860  0.0764  0.0894
  130loPI   GL2 2070  15.354   7.989   9.100  0.2268 -0.0369 -0.2013
  130loPI   C1A 2071  14.888   8.210   8.915 -0.1192 -0.0952 -0.1054
  130loPI   C2A 2072  14.546   8.474   8.589  0.0132 -0.2709  0.2400
  130loPI   C3A 2073  14.722   8.587   8.181  0.0837 -0.1617 -0.0638
  130loPI   C4A 2074  14.925   8.951   7.915 -0.0844 -0.1806  0.2353
  130loPI   C5A 2075  14.876   9.275   7.518  0.1121 -0.0060 -0.2000
  130loPI   C6A 2076  14.589   9.612   7.579  0.1261  0.2152 -0.5982
  130loPI   C1B 2077  15.447   8.230   8.718 -0.1902 -0.0916  0.0603
  130loPI   C2B 2078  15.601   8.648   8.525  0.0246 -0.0244  0.4202
  130loPI   C3B 2079  15.679   8.973   8.164 -0.5689 -0.4793  0.0504
  130loPI   C4B 2080  15.901   9.072   7.708  0.1539  0.0324 -0.0519
  131loPI    C1 2081  14.604   8.628   9.977  0.1397  0.0821  0.2499
  131loPI    C2 2082  14.451   8.400  10.268 -0.0164 -0.0752  0.0481
  131loPI    C3 2083  14.750   8.262  10.042 -0.0482 -0.0431 -0.0140
  131loPI   PO4 2084  14.337   8.712   9.778  0.1021 -0.0939 -0.1136
  131loPI   GL1 2085  14.287   8.573   9.339  0.2566  0.1933 -0.1384
  131loPI   GL2 2086  14.031   8.463   9.147 -0.0139 -0.0067 -0.0396
  131loPI   C1A 2087  14.499   8.742   8.949  0.0641 -0.3091  0.0454
  131loPI   C2A 2088  14.275   8.879   8.479 -0.0440  0.0241  0.3441
  131loPI   C3A 2089  14.375   8.914   8.049  0.0826 -0.2584 -0.0216
  131loPI   C4A 2090  14.389   9.043   7.600 -0.3496 -0.2235  0.0709
  131loPI   C5A 2091  14.402   9.256   7.195  0.1295 -0.1444 -0.5055
  131loPI   C6A 2092  14.432   9.466   6.908 -0.2033 -0.0192 -0.3838
  131loPI   C1B 2093  14.093   8.339   8.765  0.1202 -0.2356  0.0188
  131loPI   C2B 2094  14.233   8.220   8.273  0.0949 -0.0719  0.0252
  131loPI   C3B 2095  14.278   8.464   7.933  0.3277 -0.1063  0.4365
  131loPI   C4B 2096  14.215   8.590   7.567  0.3192 -0.2809  0.4952
  132loPI    C1 2097   8.541  18.301  10.316 -0.1754  0.0341 -0.1217
  132loPI    C2 2098   8.746  18.467  10.617  0.0187  0.0765 -0.2753
  132loPI    C3 2099   8.396  18.286  10.689  0.2571 -0.2738  0.0418
  132loPI   PO4 2100   8.590  18.488  10.091  0.1390 -0.0795  0.1720
  132loPI   GL1 2101   8.301  18.659   9.818  0.1434  0.3388  0.1167
  132loPI   GL2 2102   8.246  18.422   9.668  0.0269 -0.1622 -0.2273
  132loPI   C1A 2103   8.144  18.782   9.361  0.0373  0.1602  0.1088
  132loPI   C2A 2104   8.361  18.918   9.045  0.0997 -0.3057 -0.3710
  132loPI   C3A 2105   8.514  19.173   8.661  0.1172 -0.4740  0.2519
  132loPI   C4A 2106   8.436  19.251   8.246  0.0455  0.1346 -0.2045
  132loPI   C5A 2107   8.478  19.288   7.696 -0.1067 -0.1497 -0.0126
  132loPI   C6A 2108   8.696  19.042   7.527 -0.0304 -0.0227 -0.2251
  132loPI   C1B 2109   8.219  18.279   9.205  0.1460 -0.2640 -0.1887
  132loPI   C2B 2110   8.346  18.170   8.757  0.0387 -0.0510 -0.4067
  132loPI   C3B 2111   7.915  18.198   8.562 -0.0255 -0.0993 -0.2100
  132loPI   C4B 2112   7.528  18.395   8.474  0.0680  0.0150  0.4929
  133loPI    C1 2113  15.636   5.714   9.805  0.0788  0.0184 -0.3762
  133loPI    C2 2114  15.952   5.478   9.738  0.0784 -0.0004 -0.3126
  133loPI    C3 2115  15.814   5.526  10.110 -0.1346 -0.1729 -0.3675
  133loPI   PO4 2116  15.453   5.634   9.566  0.2344 -0.1833 -0.2154
  133loPI   GL1 2117  15.385   5.638   9.104  0.0442  0.1781  0.3943
  133loPI   GL2 2118  15.589   5.873   8.992 -0.1852 -0.1211 -0.2639
  133loPI   C1A 2119  15.100   5.676   8.763 -0.2850  0.0734 -0.0096
  133loPI   C2A 2120  14.905   5.884   8.324  0.4413  0.1922  0.1879
  133loPI   C3A 2121  14.668   5.944   7.921 -0.0987  0.1941 -0.4389
  133loPI   C4A 2122  14.549   5.969   7.454 -0.0685  0.0554 -0.1237
  133loPI   C5A 2123  14.448   5.995   6.922  0.1902  0.0242  0.0336
  133loPI   C6A 2124  14.223   5.997   6.592  0.1342 -0.1233  0.2459
  133loPI   C1B 2125  15.464   5.960   8.672 -0.2210 -0.5196  0.2746
  133loPI   C2B 2126  15.372   6.080   8.185  0.1610  0.2230 -0.0195
  133loPI   C3B 2127  15.426   6.079   7.733 -0.0602  0.0307  0.2740
  133loPI   C4B 2128  15.521   6.554   7.486 -0.2224 -0.1120  0.1219
  134loPI    C1 2129  16.353   5.207   9.844  0.2350 -0.0872  0.1832
  134loPI    C2 2130  16.402   5.035  10.202 -0.1147 -0.1553  0.2023
  134loPI    C3 2131  16.045   5.024  10.022  0.0255 -0.0096 -0.0922
  134loPI   PO4 2132  16.552   5.148   9.650 -0.0961 -0.1957  0.1672
  134loPI   GL1 2133  16.518   4.875   9.300 -0.1716 -0.0170  0.2435
  134loPI   GL2 2134  16.608   5.091   9.035  0.0215  0.1539  0.1010
  134loPI   C1A 2135  16.362   4.616   8.851 -0.2306  0.0176  0.1398
  134loPI   C2A 2136  16.287   4.612   8.453  0.0003  0.5442  0.0615
  134loPI   C3A 2137  16.221   4.722   8.031 -0.1431  0.1370 -0.0259
  134loPI   C4A 2138  15.941   4.881   7.676 -0.0017  0.1228 -0.2604
  134loPI   C5A 2139  15.557   4.924   7.557  0.6517  0.1183  0.1107
  134loPI   C6A 2140  15.183   4.854   7.415  0.0245  0.1120 -0.1731
  134loPI   C1B 2141  16.494   5.046   8.593 -0.1033 -0.0717 -0.1031
  134loPI   C2B 2142  16.397   5.194   8.207 -0.1680 -0.2253 -0.1201
  134loPI   C3B 2143  16.399   5.267   7.661 -0.0770  0.0980 -0.0367
  134loPI   C4B 2144  16.244   5.426   7.293 -0.3025 -0.0554  0.0931
  135loPI    C1 2145   4.949   6.742   9.117  0.0575  0.1297  0.1710
  135loPI    C2 2146   4.761   6.868   9.448 -0.0273  0.1184  0.1276
  135loPI    C3 2147   4.848   6.480   9.402 -0.1589  0.0958  0.0654
  135loPI   PO4 2148   5.187   6.877   9.052 -0.0757  0.2324 -0.4753
  135loPI   GL1 2149   5.305   6.790   8.585 -0.1662 -0.2238  0.0499
  135loPI   GL2 2150   5.584   6.788   8.731 -0.0828 -0.0661  0.1259
  135loPI   C1A 2151   5.278   6.799   8.163 -0.1204  0.2125 -0.1483
  135loPI   C2A 2152   4.952   6.763   7.881 -0.0012 -0.2711  0.1138
  135loPI   C3A 2153   4.756   6.393   7.666 -0.1224 -0.3502 -0.0029
  135loPI   C4A 2154   4.493   6.240   7.437  0.0266  0.3369 -0.0849
  135loPI   C5A 2155   4.070   6.016   7.371  0.0294  0.0744 -0.0472
  135loPI   C6A 2156   3.685   6.149   7.331  0.2300 -0.1480  0.1557
  135loPI   C1B 2157   5.732   6.842   8.287 -0.0804 -0.2185  0.1702
  135loPI   C2B 2158   5.845   6.814   7.798 -0.1095  0.0869  0.0028
  135loPI   C3B 2159   5.772   6.879   7.440  0.0758 -0.0839 -0.3143
  135loPI   C4B 2160   5.556   7.004   7.265 -0.0849  0.0332 -0.1478
  136loPI    C1 2161  10.157  18.290  10.350  0.1400 -0.3526 -0.1871
  136loPI    C2 2162   9.955  17.953  10.424  0.1359 -0.2905  0.0960
  136loPI    C3 2163  10.095  18.173  10.727  0.1764 -0.0593 -0.0872
  136loPI   PO4 2164  10.376  18.200  10.177  0.3502 -0.0844  0.0503
  136loPI   GL1 2165  10.454  18.000   9.819  0.2026  0.1351  0.2479
  136loPI   GL2 2166  10.775  17.776   9.837 -0.1106  0.0323 -0.0464
  136loPI   C1A 2167  10.316  18.003   9.415  0.2235  0.0145  0.0438
  136loPI   C2A 2168  10.251  17.944   9.026  0.2140 -0.2733  0.0044
  136loPI   C3A 2169  10.119  17.846   8.645 -0.0627 -0.1045 -0.0817
  136loPI   C4A 2170  10.302  17.780   8.343  0.1989  0.2661  0.0406
  136loPI   C5A 2171  10.525  17.557   8.124  0.0218 -0.2150  0.0213
  136loPI   C6A 2172  10.688  17.430   7.725 -0.0408  0.1549 -0.1781
  136loPI   C1B 2173  10.948  17.967   9.562  0.0598 -0.1350  0.1944
  136loPI   C2B 2174  10.783  18.268   9.182 -0.0211 -0.4116  0.0202
  136loPI   C3B 2175  10.922  18.391   8.829 -0.1192 -0.0737  0.0879
  136loPI   C4B 2176  10.868  18.423   8.384  0.1434  0.1864 -0.0475
  137loPI    C1 2177   6.343   0.414  10.039 -0.0018  0.0481  0.1282
  137loPI    C2 2178   5.961   0.530  10.058 -0.0868 -0.2076  0.0189
  137loPI    C3 2179   6.172   0.483  10.394 -0.1774 -0.1510  0.0844
  137loPI   PO4 2180   6.326   0.202   9.859  0.0429 -0.2346  0.0710
  137loPI   GL1 2181   6.297   0.181   9.493  0.0825  0.0884 -0.2904
  137loPI   GL2 2182   6.309  -0.077   9.314  0.1840  0.2285 -0.0227
  137loPI   C1A 2183   6.247   0.398   9.024 -0.4586  0.1255 -0.4344
  137loPI   C2A 2184   6.198   0.233   8.571  0.2136 -0.1860 -0.1957
  137loPI   C3A 2185   6.377   0.442   8.155 -0.2451  0.0731 -0.2006
  137loPI   C4A 2186   6.495   0.589   7.786 -0.4597 -0.3893 -0.1315
  137loPI   C5A 2187   6.936   0.737   7.605  0.3576  0.5330  0.2348
  137loPI   C6A 2188   6.896   0.842   7.186  0.2270 -0.3937  0.2600
  137loPI   C1B 2189   6.529  -0.400   9.076  0.1364 -0.1825 -0.1366
  137loPI   C2B 2190   6.733  -0.543   8.833 -0.2296  0.2331  0.0364
  137loPI   C3B 2191   6.608  -0.955   8.581 -0.1383  0.2977 -0.1540
  137loPI   C4B 2192   6.697  -1.323   8.481  0.0285 -0.6901 -0.0595
  138loPI    C1 2193   5.278  17.708  10.534 -0.0787  0.0005  0.0181
  138loPI    C2 2194   5.079  17.984  10.744  0.0462  0.2471 -0.1820
  138loPI    C3 2195   5.087  17.604  10.870 -0.1714  0.3221  0.0681
  138loPI   PO4 2196   5.078  17.685  10.280 -0.3918 -0.1438 -0.1179
  138loPI   GL1 2197   5.103  17.586   9.796  0.0023 -0.1152  0.0470
  138loPI   GL2 2198   5.173  17.241   9.672 -0.0467 -0.3581 -0.1906
  138loPI   C1A 2199   5.223  17.637   9.382 -0.0146  0.3203 -0.3106
  138loPI   C2A 2200   5.673  17.615   9.099  0.2084  0.0196 -0.2319
  138loPI   C3A 2201   5.886  17.486   8.711 -0.1787 -0.1714 -0.1123
  138loPI   C4A 2202   5.964  17.311   8.396  0.0952 -0.1335  0.3260
  138loPI   C5A 2203   6.075  17.189   7.980 -0.3429  0.1878  0.1828
  138loPI   C6A 2204   6.114  16.888   7.707  0.2961 -0.0088  0.0783
  138loPI   C1B 2205   5.084  17.098   9.331 -0.0507  0.2129  0.1883
  138loPI   C2B 2206   5.240  17.276   9.022  0.4199 -0.2150 -0.1319
  138loPI   C3B 2207   5.318  17.625   8.690  0.0894 -0.2763  0.1180
  138loPI   C4B 2208   5.387  17.735   8.247 -0.0084 -0.1352  0.0814
  139loPI    C1 2209   5.765   1.142   9.830  0.3224 -0.1495 -0.3174
  139loPI    C2 2210   5.932   1.460   9.653 -0.0404  0.2592  0.0502
  139loPI    C3 2211   5.898   1.448  10.051 -0.0248 -0.2510  0.0424
  139loPI   PO4 2212   5.897   0.914   9.727 -0.0786  0.1628  0.3243
  139loPI   GL1 2213   5.930   0.538   9.548  0.2400  0.0299  0.2173
  139loPI   GL2 2214   5.788   0.651   9.297 -0.4331 -0.3539 -0.2218
  139loPI   C1A 2215   5.838   0.127   9.307  0.3575 -0.1606 -0.1657
  139loPI   C2A 2216   5.732   0.136   8.885  0.1016  0.0417 -0.0893
  139loPI   C3A 2217   5.784   0.062   8.553 -0.0917 -0.2993  0.2358
  139loPI   C4A 2218   5.950   0.106   8.159 -0.0236 -0.0866 -0.1601
  139loPI   C5A 2219   6.057   0.319   7.799  0.1066 -0.0582 -0.1059
  139loPI   C6A 2220   6.087   0.578   7.525  0.0662 -0.2511  0.0719
  139loPI   C1B 2221   5.722   0.654   8.915 -0.2065  0.2708  0.0783
  139loPI   C2B 2222   5.763   0.590   8.437  0.0800 -0.2871 -0.4272
  139loPI   C3B 2223   5.994   0.717   8.079  0.3578  0.1383  0.1763
  139loPI   C4B 2224   6.152   1.019   7.784  0.3938 -0.2310  0.1239
  140loPI    C1 2225   8.788  10.132   9.434 -0.2214 -0.0268  0.0579
  140loPI    C2 2226   8.789  10.203   9.828 -0.2430  0.0463  0.0448
  140loPI    C3 2227   8.458  10.064   9.651 -0.1604 -0.2151  0.0927
  140loPI   PO4 2228   9.022  10.106   9.320 -0.0647 -0.5151 -0.1211
  140loPI   GL1 2229   9.329  10.281   9.087 -0.0439  0.4149 -0.1384
  140loPI   GL2 2230   9.115  10.127   8.800  0.2249 -0.0451 -0.1428
  140loPI   C1A 2231   9.439  10.456   8.700  0.2052 -0.0336  0.2490
  140loPI   C2A 2232   9.619  10.366   8.269  0.2462 -0.0009 -0.2556
  140loPI   C3A 2233   9.693  10.166   7.964  0.3579  0.2525  0.0115
  140loPI   C4A 2234   9.519  10.368   7.555 -0.2527 -0.4635  0.0905
  140loPI   C5A 2235   9.237  10.547   7.266 -0.0532 -0.1977  0.1278
  140loPI   C6A 2236   9.224  10.502   6.849 -0.0226 -0.1027  0.0400
  140loPI   C1B 2237   9.362   9.921   8.389  0.0386 -0.0308  0.2313
  140loPI   C2B 2238   9.287   9.749   7.914 -0.1927 -0.2205 -0.3296
  140loPI   C3B 2239   8.906   9.852   7.779 -0.1397 -0.0886  0.2810
  140loPI   C4B 2240   8.566  10.056   7.588 -0.3996 -0.0603 -0.4314
  141loPI    C1 2241   2.541   2.363   9.123 -0.0613 -0.1787 -0.1144
  141loPI    C2 2242   2.281   2.391   8.820  0.1330 -0.2631 -0.2915
  141loPI    C3 2243   2.258   2.085   9.075 -0.0956 -0.1367 -0.1572
  141loPI   PO4 2244   2.799   2.313   9.002  0.0281  0.1625 -0.2139
  141loPI   GL1 2245   2.834   2.039   8.683  0.2238  0.2237  0.0508
  141loPI   GL2 2246   3.068   2.181   8.504  0.0577 -0.4900  0.0460
  141loPI   C1A 2247   2.588   1.915   8.560 -0.0493  0.2287  0.0509
  141loPI   C2A 2248   2.630   1.811   8.174 -0.0670  0.2046 -0.0472
  141loPI   C3A 2249   2.671   1.605   7.815 -0.2134 -0.2277  0.0362
  141loPI   C4A 2250   2.601   1.915   7.461  0.0987 -0.0103  0.0017
  141loPI   C5A 2251   2.567   1.860   7.022  0.4194  0.3402  0.2115
  141loPI   C6A 2252   2.192   2.037   6.711  0.0518 -0.3620 -0.0113
  141loPI   C1B 2253   2.912   2.166   8.052  0.3736 -0.1400 -0.0623
  141loPI   C2B 2254   2.912   2.327   7.667  0.0829  0.3402 -0.3730
  141loPI   C3B 2255   2.963   2.306   7.153  0.0220  0.2088 -0.0609
  141loPI   C4B 2256   3.076   2.577   6.817 -0.1243  0.3841  0.0620
  142loPI    C1 2257   1.284   2.436   9.523 -0.1323 -0.0616  0.0588
  142loPI    C2 2258   1.197   2.047   9.499  0.0332 -0.0932 -0.0546
  142loPI    C3 2259   1.480   2.174   9.752 -0.1257 -0.0276  0.0923
  142loPI   PO4 2260   1.187   2.457   9.180  0.1748 -0.0172 -0.0991
  142loPI   GL1 2261   1.276   2.309   8.897  0.1109 -0.1972 -0.1132
  142loPI   GL2 2262   1.426   2.021   8.973  0.0585 -0.1744  0.1571
  142loPI   C1A 2263   1.294   2.430   8.487 -0.3164 -0.2312 -0.2009
  142loPI   C2A 2264   1.452   2.621   8.011 -0.2310 -0.1497 -0.1971
  142loPI   C3A 2265   1.477   2.661   7.615  0.3084  0.4786  0.2803
  142loPI   C4A 2266   1.486   2.484   7.230  0.0911 -0.0511  0.1670
  142loPI   C5A 2267   1.628   2.409   6.702 -0.3301  0.1645  0.1521
  142loPI   C6A 2268   1.531   2.199   6.432  0.1484  0.1623  0.0733
  142loPI   C1B 2269   1.270   1.987   8.462  0.1822  0.0237  0.3740
  142loPI   C2B 2270   1.347   1.876   8.046  0.0603  0.2525 -0.0187
  142loPI   C3B 2271   1.242   1.637   7.787 -0.1874 -0.0797  0.0367
  142loPI   C4B 2272   1.174   1.495   7.423 -0.3442  0.1264 -0.0248
  143loPI    C1 2273  19.101  15.097   9.437 -0.0231  0.1521 -0.0906
  143loPI    C2 2274  19.086  15.473   9.301 -0.1308  0.1573 -0.0654
  143loPI    C3 2275  18.748  15.278   9.387 -0.0661  0.1385  0.1522
  143loPI   PO4 2276  19.299  15.040   9.240  0.2231  0.0840  0.0676
  143loPI   GL1 2277  19.417  14.821   8.941  0.1832 -0.4290 -0.0451
  143loPI   GL2 2278  19.277  14.537   8.694 -0.1277 -0.2099  0.0554
  143loPI   C1A 2279  19.403  15.073   8.540  0.2285  0.3101 -0.0415
  143loPI   C2A 2280  19.351  15.117   8.139 -0.1720  0.0689  0.0582
  143loPI   C3A 2281  19.143  14.995   7.712 -0.3298 -0.2273 -0.0123
  143loPI   C4A 2282  19.161  14.829   7.339 -0.2478 -0.1483 -0.1000
  143loPI   C5A 2283  19.461  14.895   7.016 -0.1551  0.0748 -0.0091
  143loPI   C6A 2284  19.544  14.811   6.613 -0.2965  0.0858  0.0639
  143loPI   C1B 2285  19.392  14.547   8.222 -0.2216 -0.1316  0.1218
  143loPI   C2B 2286  19.361  14.488   7.833 -0.0228  0.0234 -0.0371
  143loPI   C3B 2287  19.400  14.297   7.389 -0.2335 -0.0014 -0.0162
  143loPI   C4B 2288  19.276  14.359   6.993 -0.0760 -0.3100  0.1034
  144loPI    C1 2289  16.250   7.542   9.560 -0.0514 -0.0429 -0.2117
  144loPI    C2 2290  15.874   7.593   9.687 -0.0127 -0.1418 -0.0544
  144loPI    C3 2291  16.101   7.304   9.845  0.1342 -0.0737 -0.1390
  144loPI   PO4 2292  16.189   7.680   9.309  0.3508 -0.1239  0.0537
  144loPI   GL1 2293  15.751   7.522   9.082 -0.0484 -0.0238 -0.0213
  144loPI   GL2 2294  15.823   7.813   8.968 -0.1899 -0.0507 -0.3168
  144loPI   C1A 2295  15.685   7.356   8.708 -0.2166 -0.0973  0.0005
  144loPI   C2A 2296  15.660   7.311   8.230  0.0237 -0.2116  0.0618
  144loPI   C3A 2297  15.654   7.007   7.833 -0.2789  0.0767  0.0966
  144loPI   C4A 2298  15.955   6.792   7.561 -0.2569 -0.5061 -0.1180
  144loPI   C5A 2299  16.334   6.846   7.213  0.0560 -0.0633  0.0988
  144loPI   C6A 2300  16.629   6.859   7.026  0.1772  0.1270  0.4235
  144loPI   C1B 2301  16.094   7.748   8.691 -0.1277  0.0821  0.1019
  144loPI   C2B 2302  15.942   7.752   8.139 -0.0152  0.2901 -0.0542
  144loPI   C3B 2303  16.005   7.707   7.781 -0.2541 -0.1038 -0.1630
  144loPI   C4B 2304  16.002   7.852   7.328  0.2078 -0.1166 -0.3010
  145loPI    C1 2305   5.766  16.506  10.318  0.2264  0.0857  0.1333
  145loPI    C2 2306   5.630  16.520  10.694 -0.0783  0.0093  0.0288
  145loPI    C3 2307   5.783  16.180  10.550  0.0048  0.0285  0.0715
  145loPI   PO4 2308   5.786  16.744  10.299  0.1228 -0.2669  0.2288
  145loPI   GL1 2309   6.073  16.717   9.858  0.1931  0.0901 -0.0584
  145loPI   GL2 2310   5.940  16.855   9.576 -0.3261  0.2863 -0.0467
  145loPI   C1A 2311   6.176  16.328   9.785  0.2384  0.0104 -0.0464
  145loPI   C2A 2312   6.442  16.283   9.428 -0.2066 -0.1576 -0.1038
  145loPI   C3A 2313   6.665  15.912   9.237 -0.3412 -0.1405  0.2000
  145loPI   C4A 2314   6.767  15.517   9.254 -0.0307  0.0788  0.1992
  145loPI   C5A 2315   7.223  15.465   9.210 -0.1559 -0.0564  0.2262
  145loPI   C6A 2316   7.453  15.284   8.974 -0.2287 -0.1551 -0.2963
  145loPI   C1B 2317   6.140  16.694   9.147 -0.0753 -0.1961  0.1535
  145loPI   C2B 2318   6.395  16.573   8.869  0.4513  0.1368  0.0613
  145loPI   C3B 2319   6.459  16.648   8.460 -0.0724  0.2155  0.1817
  145loPI   C4B 2320   6.164  16.701   8.170  0.1693 -0.3315  0.4346
  146loPI    C1 2321   2.460  19.253   9.838  0.0931 -0.0292 -0.1035
  146loPI    C2 2322   2.533  19.125  10.210  0.0081 -0.1925 -0.1422
  146loPI    C3 2323   2.425  19.505  10.147  0.2449 -0.1036 -0.0244
  146loPI   PO4 2324   2.649  19.158   9.707 -0.0191 -0.0333  0.0997
  146loPI   GL1 2325   2.693  19.133   9.296  0.2274  0.0821 -0.0343
  146loPI   GL2 2326   2.457  19.491   9.347 -0.0294  0.0787 -0.1415
  146loPI   C1A 2327   2.652  19.258   8.849  0.1407 -0.0895 -0.3094
  146loPI   C2A 2328   2.455  19.286   8.407 -0.0341  0.2225 -0.4867
  146loPI   C3A 2329   2.184  19.238   8.149 -0.0164  0.2123 -0.1185
  146loPI   C4A 2330   2.118  19.179   7.721  0.0685 -0.2017 -0.2618
  146loPI   C5A 2331   1.926  19.270   7.360  0.1159 -0.2700  0.0429
  146loPI   C6A 2332   2.072  19.556   7.053  0.1943  0.0825  0.1369
  146loPI   C1B 2333   2.173  19.471   8.969 -0.4624  0.2801  0.2067
  146loPI   C2B 2334   1.942  19.577   8.586  0.1684  0.2254  0.4180
  146loPI   C3B 2335   1.617  19.399   8.429  0.0072 -0.0598 -0.2266
  146loPI   C4B 2336   1.355  19.634   8.102  0.2444  0.1120 -0.0844
  147loPI    C1 2337  11.275   6.712   9.587 -0.1994  0.0295  0.0553
  147loPI    C2 2338  11.459   6.501   9.874 -0.0496  0.2500  0.1236
  147loPI    C3 2339  11.119   6.696   9.955 -0.1586  0.0816  0.0750
  147loPI   PO4 2340  11.394   6.577   9.367  0.0155  0.1474 -0.0802
  147loPI   GL1 2341  11.450   6.260   8.989 -0.3971 -0.0231  0.3260
  147loPI   GL2 2342  11.675   6.079   9.107 -0.1544 -0.1632  0.1830
  147loPI   C1A 2343  11.381   6.305   8.590 -0.0363  0.0500  0.1835
  147loPI   C2A 2344  11.249   6.181   8.246  0.2115 -0.0569 -0.1334
  147loPI   C3A 2345  11.074   5.879   7.990  0.1071  0.1424 -0.0921
  147loPI   C4A 2346  10.896   5.612   7.628  0.2160 -0.0421  0.0066
  147loPI   C5A 2347  10.971   5.848   7.302 -0.2633  0.1514  0.3793
  147loPI   C6A 2348  10.755   6.153   6.985 -0.0328 -0.1601 -0.0247
  147loPI   C1B 2349  11.790   5.947   8.702 -0.1488  0.0285  0.1945
  147loPI   C2B 2350  11.821   6.143   8.298  0.1504  0.0305 -0.1206
  147loPI   C3B 2351  11.924   6.007   7.915  0.3189  0.0153 -0.3343
  147loPI   C4B 2352  11.935   5.739   7.531  0.0561 -0.0026 -0.1452
  148loPI    C1 2353  13.436  16.220  10.701  0.1008 -0.1711  0.2009
  148loPI    C2 2354  13.321  16.441  11.014 -0.2656  0.1021 -0.1158
  148loPI    C3 2355  13.147  16.088  10.944 -0.1600  0.0253  0.0040
  148loPI   PO4 2356  13.488  16.252  10.459 -0.0915  0.3075  0.0124
  148loPI   GL1 2357  13.450  16.223  10.067  0.2028 -0.4049 -0.1945
  148loPI   GL2 2358  13.468  16.613  10.104 -0.0722 -0.3249 -0.0045
  148loPI   C1A 2359  13.505  15.855   9.840 -0.0613 -0.3543 -0.0721
  148loPI   C2A 2360  13.509  15.886   9.398 -0.2695 -0.0830  0.0849
  148loPI   C3A 2361  13.512  15.958   8.903 -0.0072 -0.3524  0.0023
  148loPI   C4A 2362  13.698  16.294   8.742  0.2297  0.1408  0.2949
  148loPI   C5A 2363  14.112  16.299   8.526 -0.0591  0.3357  0.1076
  148loPI   C6A 2364  14.326  16.076   8.300  0.3599 -0.0944  0.2748
  148loPI   C1B 2365  13.557  16.724   9.713 -0.0715 -0.3741 -0.0139
  148loPI   C2B 2366  13.761  17.184   9.734 -0.0327  0.0923 -0.1044
  148loPI   C3B 2367  13.909  17.437   9.458 -0.0353  0.0751  0.0673
  148loPI   C4B 2368  14.150  17.728   9.078  0.2556 -0.2279 -0.1385
  149loPI    C1 2369  15.118   4.882   9.954 -0.2200 -0.1185  0.4360
  149loPI    C2 2370  15.104   5.281   9.927  0.1160 -0.1208  0.1533
  149loPI    C3 2371  14.848   5.087  10.167 -0.1792  0.2473  0.1452
  149loPI   PO4 2372  15.135   4.840   9.711 -0.0814  0.0884  0.1920
  149loPI   GL1 2373  14.978   4.616   9.450 -0.2427  0.1543  0.1432
  149loPI   GL2 2374  15.034   4.796   9.231  0.1296 -0.3784 -0.1326
  149loPI   C1A 2375  15.167   4.257   9.153 -0.1672 -0.0427  0.0406
  149loPI   C2A 2376  15.202   4.212   8.695  0.3353  0.2589  0.2544
  149loPI   C3A 2377  15.155   4.261   8.176  0.1413  0.1117  0.0526
  149loPI   C4A 2378  15.233   4.289   7.673 -0.4436  0.0294 -0.0540
  149loPI   C5A 2379  15.308   4.350   7.219 -0.2933  0.0828  0.0014
  149loPI   C6A 2380  15.727   4.598   7.246  0.0319 -0.3455  0.2480
  149loPI   C1B 2381  14.961   4.746   8.892  0.0853 -0.0362 -0.0850
  149loPI   C2B 2382  14.907   4.599   8.422 -0.3592  0.0561 -0.0255
  149loPI   C3B 2383  14.694   4.430   8.208  0.0902 -0.4223 -0.0373
  149loPI   C4B 2384  14.443   4.310   7.787  0.0852  0.0087  0.2987
  150loPI    C1 2385  14.345   5.444   9.945 -0.0777  0.1161 -0.2399
  150loPI    C2 2386  14.060   5.331  10.203 -0.0314  0.0679 -0.2100
  150loPI    C3 2387  13.959   5.494   9.852 -0.0930  0.2583 -0.1054
  150loPI   PO4 2388  14.475   5.259   9.876 -0.1711 -0.1701 -0.1252
  150loPI   GL1 2389  14.768   5.183   9.598 -0.3006  0.4875 -0.1171
  150loPI   GL2 2390  15.032   5.332   9.457  0.0413 -0.2861  0.3305
  150loPI   C1A 2391  14.632   5.239   9.235 -0.1025 -0.0544  0.0072
  150loPI   C2A 2392  14.531   4.999   8.893  0.0759  0.4128 -0.3936
  150loPI   C3A 2393  14.485   4.829   8.516  0.0602  0.1508 -0.0542
  150loPI   C4A 2394  14.260   4.666   8.061 -0.6080 -0.0588  0.0602
  150loPI   C5A 2395  14.100   4.691   7.667  0.0938  0.0619  0.0623
  150loPI   C6A 2396  14.117   4.854   7.211 -0.1588 -0.1772  0.0677
  150loPI   C1B 2397  15.048   5.230   8.981 -0.1931  0.1246 -0.0210
  150loPI   C2B 2398  14.935   5.151   8.502  0.0652  0.3061  0.2585
  150loPI   C3B 2399  14.745   5.001   8.098 -0.3258 -0.0714 -0.0309
  150loPI   C4B 2400  14.662   4.863   7.623  0.2087 -0.1210 -0.1943
  151loPI    C1 2401  13.037  11.957   9.920 -0.0372 -0.1184 -0.2997
  151loPI    C2 2402  12.809  12.125   9.638 -0.0237  0.0337 -0.2213
  151loPI    C3 2403  12.648  11.868   9.899 -0.0757  0.0341 -0.2527
  151loPI   PO4 2404  13.236  11.754   9.749 -0.0706  0.2455  0.1983
  151loPI   GL1 2405  13.367  11.942   9.442 -0.0079  0.2077  0.0824
  151loPI   GL2 2406  13.683  12.040   9.564 -0.1377  0.1296  0.0512
  151loPI   C1A 2407  13.492  12.004   9.074 -0.1523  0.1534 -0.3285
  151loPI   C2A 2408  13.557  12.078   8.647  0.0983  0.1594  0.2558
  151loPI   C3A 2409  13.509  12.193   8.154 -0.3095  0.1342  0.0322
  151loPI   C4A 2410  13.369  12.210   7.709  0.1156  0.1334 -0.1148
  151loPI   C5A 2411  13.538  12.540   7.533  0.0824  0.0243  0.1588
  151loPI   C6A 2412  13.859  12.925   7.522 -0.0117  0.2462  0.0566
  151loPI   C1B 2413  13.592  12.483   9.260  0.3394  0.0340 -0.0895
  151loPI   C2B 2414  13.559  12.511   8.905  0.1470  0.0372 -0.1447
  151loPI   C3B 2415  13.550  12.594   8.521 -0.2980  0.3765 -0.0936
  151loPI   C4B 2416  13.232  12.684   8.143 -0.0046  0.2389 -0.2579
  152loPI    C1 2417   6.823  13.124  10.205  0.0693 -0.1035 -0.0693
  152loPI    C2 2418   6.721  12.739  10.164  0.0880 -0.1235  0.0657
  152loPI    C3 2419   6.597  12.946  10.483 -0.0126  0.0134 -0.0604
  152loPI   PO4 2420   6.815  13.231   9.995 -0.0590  0.0595  0.1841
  152loPI   GL1 2421   7.119  13.310   9.753 -0.1131  0.3063 -0.2893
  152loPI   GL2 2422   7.115  13.127   9.478 -0.2793 -0.0598 -0.0318
  152loPI   C1A 2423   7.342  13.500   9.268  0.0728  0.4567 -0.0883
  152loPI   C2A 2424   7.510  13.492   8.875 -0.1139  0.1675 -0.1592
  152loPI   C3A 2425   7.367  13.545   8.408 -0.1183 -0.1764  0.0327
  152loPI   C4A 2426   7.322  13.490   8.014 -0.1821 -0.0611 -0.0876
  152loPI   C5A 2427   7.421  13.449   7.741 -0.1330 -0.0360 -0.1028
  152loPI   C6A 2428   7.398  13.126   7.415  0.2882 -0.1357 -0.2037
  152loPI   C1B 2429   7.082  13.250   8.960  0.0411 -0.4363  0.0346
  152loPI   C2B 2430   7.268  13.090   8.580  0.3262  0.3096  0.0254
  152loPI   C3B 2431   7.349  12.998   8.162  0.1731 -0.0542  0.1204
  152loPI   C4B 2432   7.203  12.825   7.888 -0.0944  0.1263 -0.4081
  153loPI    C1 2433  11.252  16.524  10.461  0.0108  0.2320  0.1044
  153loPI    C2 2434  11.482  16.828  10.580  0.3313  0.0422 -0.0197
  153loPI    C3 2435  11.546  16.460  10.724  0.0958 -0.0101 -0.0456
  153loPI   PO4 2436  11.077  16.726  10.274  0.1171 -0.0571  0.2935
  153loPI   GL1 2437  10.716  16.813  10.113  0.4653  0.1635  0.0906
  153loPI   GL2 2438  10.426  16.878   9.879 -0.2968 -0.0716  0.0651
  153loPI   C1A 2439  10.904  16.546   9.662 -0.0466  0.1390  0.0061
  153loPI   C2A 2440  10.951  16.278   9.464 -0.2195  0.2026  0.0720
  153loPI   C3A 2441  11.108  16.077   9.032 -0.0819 -0.2413  0.1510
  153loPI   C4A 2442  11.521  15.846   8.902  0.2228  0.0159  0.0729
  153loPI   C5A 2443  11.805  15.865   8.530  0.1749 -0.1761 -0.0020
  153loPI   C6A 2444  11.566  15.553   8.218  0.0183  0.1870  0.0189
  153loPI   C1B 2445  10.225  17.008   9.575 -0.1061  0.0708 -0.0911
  153loPI   C2B 2446  10.225  17.043   9.133  0.1376 -0.0898  0.1102
  153loPI   C3B 2447  10.462  17.166   8.845 -0.1117  0.3351  0.0426
  153loPI   C4B 2448  10.558  17.110   8.373  0.0481 -0.0125  0.1645
  154loPI    C1 2449  16.279  12.882   9.846 -0.1848 -0.3187  0.1857
  154loPI    C2 2450  16.421  12.593  10.083  0.0903 -0.2598  0.0965
  154loPI    C3 2451  16.667  12.784   9.832 -0.1075 -0.0104  0.0887
  154loPI   PO4 2452  15.935  12.865   9.657  0.3318 -0.3923 -0.3007
  154loPI   GL1 2453  15.726  13.132   9.326 -0.3879 -0.0333  0.2125
  154loPI   GL2 2454  15.842  12.855   9.143 -0.1973 -0.0407 -0.0029
  154loPI   C1A 2455  15.330  13.042   8.986  0.2505  0.0092 -0.0634
  154loPI   C2A 2456  15.050  12.990   8.831 -0.1553 -0.1036 -0.2107
  154loPI   C3A 2457  14.817  12.876   8.361  0.1220 -0.4796 -0.2403
  154loPI   C4A 2458  14.946  12.997   7.866 -0.1485  0.2384 -0.1585
  154loPI   C5A 2459  14.954  12.876   7.433 -0.0778 -0.1945  0.1163
  154loPI   C6A 2460  14.675  13.028   7.061  0.0717  0.0342  0.1838
  154loPI   C1B 2461  16.007  12.918   8.765  0.0555 -0.2651  0.2505
  154loPI   C2B 2462  15.856  13.000   8.435  0.0689  0.0417  0.2158
  154loPI   C3B 2463  15.677  12.916   8.032  0.0612  0.3588 -0.1545
  154loPI   C4B 2464  15.415  12.996   7.763  0.2097  0.0636 -0.1009
  155loPI    C1 2465   4.029   7.128   9.170 -0.4117 -0.1687  0.0320
  155loPI    C2 2466   4.130   7.047   9.548 -0.0331  0.0519 -0.0171
  155loPI    C3 2467   3.911   7.371   9.465  0.1582  0.1836 -0.0151
  155loPI   PO4 2468   3.994   6.872   9.011  0.0667  0.0772 -0.2430
  155loPI   GL1 2469   3.712   6.773   8.684 -0.0570  0.1301 -0.0051
  155loPI   GL2 2470   3.782   6.581   8.391  0.0196  0.1343  0.1875
  155loPI   C1A 2471   3.319   6.880   8.447 -0.4834 -0.1223  0.0654
  155loPI   C2A 2472   3.179   6.915   8.160 -0.0962 -0.3668 -0.0671
  155loPI   C3A 2473   3.289   7.353   7.890 -0.1755 -0.0665 -0.1710
  155loPI   C4A 2474   3.161   7.814   7.835 -0.2240 -0.4315  0.0895
  155loPI   C5A 2475   3.134   8.202   8.053  0.0370  0.0324 -0.0188
  155loPI   C6A 2476   3.048   8.520   8.230  0.2818 -0.1636  0.2373
  155loPI   C1B 2477   4.088   6.673   8.070 -0.1100 -0.0383 -0.2255
  155loPI   C2B 2478   4.446   6.870   7.878  0.0538  0.1934 -0.4078
  155loPI   C3B 2479   4.616   7.087   7.540 -0.0208  0.2716  0.0803
  155loPI   C4B 2480   4.789   7.141   7.146 -0.3760 -0.0931  0.1847
  156loPI    C1 2481  14.786   2.655  10.499  0.0945 -0.3033  0.0824
  156loPI    C2 2482  15.028   2.627  10.817  0.0801  0.0623  0.1310
  156loPI    C3 2483  14.675   2.812  10.850  0.1493  0.2489 -0.1367
  156loPI   PO4 2484  14.811   2.434  10.323 -0.2311  0.0146  0.2980
  156loPI   GL1 2485  14.870   2.303   9.930  0.1723 -0.0245 -0.0295
  156loPI   GL2 2486  14.561   2.157  10.030  0.0614  0.0613 -0.2370
  156loPI   C1A 2487  14.635   2.611   9.589 -0.1705 -0.3971 -0.0428
  156loPI   C2A 2488  14.730   2.724   9.147  0.1465 -0.1577 -0.1629
  156loPI   C3A 2489  14.860   2.558   8.723 -0.1637  0.0168  0.0290
  156loPI   C4A 2490  14.955   2.130   8.529  0.1777 -0.1434  0.3400
  156loPI   C5A 2491  15.285   1.891   8.294 -0.3530 -0.1853 -0.1957
  156loPI   C6A 2492  15.187   1.774   7.945 -0.0666  0.1512 -0.1005
  156loPI   C1B 2493  14.718   2.118   9.501 -0.1509 -0.0462 -0.1766
  156loPI   C2B 2494  14.717   2.189   9.047  0.0163 -0.1305  0.0233
  156loPI   C3B 2495  14.518   1.993   8.739  0.5163  0.0016  0.1953
  156loPI   C4B 2496  14.345   1.864   8.355 -0.0075  0.0256 -0.1443
  157loPI    C1 2497  11.483   4.361  10.109 -0.1432 -0.1727 -0.0197
  157loPI    C2 2498  11.546   4.679  10.344 -0.0355 -0.1668 -0.0562
  157loPI    C3 2499  11.506   4.315  10.505 -0.3017 -0.1159 -0.0032
  157loPI   PO4 2500  11.663   4.353   9.895 -0.0589 -0.4402  0.3255
  157loPI   GL1 2501  11.986   4.081   9.719 -0.0641  0.1632  0.1290
  157loPI   GL2 2502  12.067   4.419   9.512  0.0003 -0.0401 -0.5425
  157loPI   C1A 2503  11.972   3.960   9.239  0.0644 -0.0506  0.3388
  157loPI   C2A 2504  11.958   4.091   8.814 -0.0537 -0.2172  0.2159
  157loPI   C3A 2505  12.019   3.808   8.450 -0.0399 -0.1159 -0.3773
  157loPI   C4A 2506  12.051   3.674   7.948  0.1683  0.2313 -0.1961
  157loPI   C5A 2507  11.920   3.262   8.198 -0.2592 -0.0165  0.2527
  157loPI   C6A 2508  12.010   2.861   8.277  0.0490  0.2834 -0.0808
  157loPI   C1B 2509  11.933   4.880   9.466  0.0161  0.1302  0.0101
  157loPI   C2B 2510  11.980   5.104   9.089  0.0727  0.1888 -0.2302
  157loPI   C3B 2511  11.983   5.016   8.683  0.2771 -0.0378 -0.0803
  157loPI   C4B 2512  12.068   4.971   8.215  0.1301  0.0901 -0.1829
  158loPI    C1 2513  10.012  14.103  10.397  0.2154  0.2796  0.3039
  158loPI    C2 2514  10.326  13.887  10.275  0.0562  0.0560  0.2850
  158loPI    C3 2515  10.068  13.733  10.539 -0.3197  0.0375 -0.0825
  158loPI   PO4 2516   9.954  14.268  10.228 -0.0948  0.1324 -0.1354
  158loPI   GL1 2517   9.900  14.240   9.850 -0.0845  0.1785  0.0966
  158loPI   GL2 2518  10.215  14.259   9.754 -0.0091  0.2018 -0.1337
  158loPI   C1A 2519   9.795  14.319   9.380 -0.1430 -0.0552 -0.2047
  158loPI   C2A 2520   9.688  14.602   9.045 -0.0026  0.1426  0.1475
  158loPI   C3A 2521   9.793  14.975   8.830  0.1257  0.1955 -0.0264
  158loPI   C4A 2522   9.920  15.279   8.703  0.0825 -0.0436  0.2276
  158loPI   C5A 2523  10.058  15.597   8.631  0.1135  0.1393  0.1636
  158loPI   C6A 2524  10.372  15.663   8.299 -0.0229 -0.2417 -0.1860
  158loPI   C1B 2525  10.289  14.450   9.305 -0.0660 -0.0540 -0.0234
  158loPI   C2B 2526  10.218  14.392   9.022  0.3658  0.0762  0.2823
  158loPI   C3B 2527  10.272  14.258   8.564  0.2278 -0.0829 -0.1058
  158loPI   C4B 2528  10.307  13.918   8.280  0.0632 -0.0541  0.1468
  159loPI    C1 2529  17.808  12.425   9.255 -0.1242 -0.4255  0.0639
  159loPI    C2 2530  17.929  12.675   9.543  0.2228 -0.2018 -0.2661
  159loPI    C3 2531  17.560  12.521   9.554  0.1295  0.0359  0.1356
  159loPI   PO4 2532  18.034  12.300   9.187 -0.0030 -0.0655  0.0020
  159loPI   GL1 2533  18.395  12.242   8.893  0.1691 -0.2518  0.1113
  159loPI   GL2 2534  18.442  11.997   8.701  0.1456 -0.0096  0.0727
  159loPI   C1A 2535  18.167  12.394   8.541  0.3886 -0.0864  0.1325
  159loPI   C2A 2536  17.846  12.224   8.269  0.1967 -0.1986 -0.1444
  159loPI   C3A 2537  17.931  11.968   7.952 -0.0001 -0.0615  0.0082
  159loPI   C4A 2538  17.954  11.919   7.549 -0.1074 -0.1226 -0.0397
  159loPI   C5A 2539  17.962  11.783   7.180  0.1089 -0.3404 -0.1194
  159loPI   C6A 2540  18.170  11.559   6.832  0.1112  0.0306  0.2548
  159loPI   C1B 2541  18.343  12.079   8.216  0.1220 -0.1766 -0.0623
  159loPI   C2B 2542  18.384  12.023   7.780 -0.1898  0.1930  0.3122
  159loPI   C3B 2543  18.378  12.135   7.390  0.0863 -0.1646 -0.2839
  159loPI   C4B 2544  18.452  12.326   7.018  0.1055 -0.1478  0.1227
  160loPI    C1 2545  11.310   1.789  10.648  0.2244 -0.0785  0.2634
  160loPI    C2 2546  11.145   1.547  10.375  0.1558  0.2255  0.0299
  160loPI    C3 2547  10.938   1.652  10.701  0.0694  0.2175 -0.0222
  160loPI   PO4 2548  11.477   1.940  10.462 -0.0465 -0.0299  0.4272
  160loPI   GL1 2549  11.337   1.850  10.009  0.2426 -0.1148 -0.0448
  160loPI   GL2 2550  11.605   2.108   9.929 -0.1872  0.1885 -0.1127
  160loPI   C1A 2551  11.086   1.468   9.793 -0.3531  0.4062  0.2733
  160loPI   C2A 2552  11.062   1.196   9.432  0.1954 -0.1383  0.2505
  160loPI   C3A 2553  11.174   0.951   9.001 -0.0276 -0.0671  0.1766
  160loPI   C4A 2554  11.122   0.847   8.603 -0.3132 -0.0873  0.2758
  160loPI   C5A 2555  11.066   0.844   8.209  0.0739 -0.0355 -0.1031
  160loPI   C6A 2556  10.894   0.627   7.914 -0.1775  0.0993  0.0697
  160loPI   C1B 2557  11.726   1.847   9.543  0.0504 -0.1536 -0.0108
  160loPI   C2B 2558  11.618   1.788   9.047  0.4608  0.1234 -0.2759
  160loPI   C3B 2559  11.692   1.455   8.730  0.2775 -0.1106  0.0528
  160loPI   C4B 2560  11.585   1.044   8.529  0.0160  0.2741  0.2760
  161loPI    C1 2561  17.067  12.393   9.575  0.2054 -0.0585  0.2832
  161loPI    C2 2562  16.835  12.313   9.891  0.0102  0.0252  0.1630
  161loPI    C3 2563  17.213  12.184   9.883 -0.0879 -0.2795  0.2775
  161loPI   PO4 2564  16.845  12.536   9.402 -0.0227  0.1733  0.4137
  161loPI   GL1 2565  16.877  12.906   9.218 -0.2306 -0.2061  0.1330
  161loPI   GL2 2566  16.703  13.126   9.382 -0.0589  0.0909  0.2642
  161loPI   C1A 2567  16.891  12.819   8.795 -0.0261 -0.0039  0.1926
  161loPI   C2A 2568  16.864  12.786   8.283  0.0009 -0.3491  0.0119
  161loPI   C3A 2569  17.230  12.867   8.039 -0.3276  0.1047  0.1171
  161loPI   C4A 2570  17.302  12.894   7.675 -0.3668  0.1193  0.1991
  161loPI   C5A 2571  17.151  13.089   7.288 -0.0676 -0.3403 -0.1615
  161loPI   C6A 2572  17.013  13.399   7.021 -0.1393  0.0144  0.2103
  161loPI   C1B 2573  16.499  13.115   8.948 -0.3842  0.1276 -0.0729
  161loPI   C2B 2574  16.563  13.177   8.469  0.0733 -0.1870 -0.1611
  161loPI   C3B 2575  16.341  13.443   8.165 -0.1099  0.3151 -0.1831
  161loPI   C4B 2576  16.008  13.761   7.976 -0.2748  0.0457  0.3439
  162loPI    C1 2577   1.472   8.719   9.280  0.1872 -0.1799  0.0545
  162loPI    C2 2578   1.285   8.399   9.130 -0.2201  0.2418 -0.3705
  162loPI    C3 2579   1.302   8.453   9.526 -0.0497 -0.3520 -0.2876
  162loPI   PO4 2580   1.685   8.722   9.156  0.0496  0.1417 -0.1184
  162loPI   GL1 2581   1.770   8.808   8.741 -0.0647 -0.1343  0.1321
  162loPI   GL2 2582   1.424   8.701   8.687 -0.3530  0.2593  0.0376
  162loPI   C1A 2583   1.719   8.894   8.317  0.3545  0.0069  0.2397
  162loPI   C2A 2584   1.593   8.593   8.030 -0.0395  0.2352 -0.0960
  162loPI   C3A 2585   1.416   8.581   7.651  0.0116 -0.2632  0.0297
  162loPI   C4A 2586   1.135   8.650   7.382 -0.2273 -0.2457 -0.0229
  162loPI   C5A 2587   0.898   8.838   7.113  0.0500 -0.2151  0.1632
  162loPI   C6A 2588   0.662   8.924   6.615  0.0055 -0.1202 -0.0604
  162loPI   C1B 2589   1.443   8.330   8.569 -0.2503 -0.3310  0.0910
  162loPI   C2B 2590   1.734   8.103   8.320  0.2813 -0.1015  0.2552
  162loPI   C3B 2591   1.860   8.002   7.853  0.0318  0.1183 -0.0754
  162loPI   C4B 2592   1.841   7.702   7.651  0.0259  0.2621  0.0748
  163loPI    C1 2593   7.638  10.424   9.411 -0.0266  0.2358  0.0129
  163loPI    C2 2594   7.908  10.698   9.519  0.2660 -0.0103 -0.0775
  163loPI    C3 2595   7.988  10.310   9.568 -0.2760 -0.0789  0.3564
  163loPI   PO4 2596   7.576  10.485   9.166  0.1116 -0.0312  0.0479
  163loPI   GL1 2597   7.478  10.506   8.833  0.0257  0.1393 -0.0908
  163loPI   GL2 2598   7.759  10.264   8.742  0.0677 -0.1540 -0.3063
  163loPI   C1A 2599   7.518  10.734   8.500  0.2229  0.0659  0.2367
  163loPI   C2A 2600   7.507  10.961   8.165 -0.1164  0.0565 -0.1857
  163loPI   C3A 2601   7.653  11.001   7.809  0.2648  0.0367  0.7304
  163loPI   C4A 2602   7.825  11.084   7.376  0.1096 -0.1243  0.3784
  163loPI   C5A 2603   7.971  11.078   6.982  0.1495  0.0591  0.0861
  163loPI   C6A 2604   8.089  11.419   6.647 -0.1463  0.1043  0.0789
  163loPI   C1B 2605   7.650  10.293   8.301 -0.2741  0.2842  0.0417
  163loPI   C2B 2606   7.541  10.405   7.813  0.0001  0.0719 -0.0696
  163loPI   C3B 2607   7.791  10.561   7.509  0.1749  0.2996  0.2348
  163loPI   C4B 2608   7.898  10.570   7.119 -0.1872 -0.2206 -0.1109
  164loPI    C1 2609   5.055   5.948   9.696  0.1277  0.3911 -0.0239
  164loPI    C2 2610   4.788   6.183   9.879 -0.0141  0.1288  0.1135
  164loPI    C3 2611   4.690   5.808   9.782  0.1410  0.1860 -0.2870
  164loPI   PO4 2612   5.225   6.125   9.458  0.0524 -0.2287  0.0296
  164loPI   GL1 2613   5.296   6.399   9.074  0.0259 -0.4347  0.3119
  164loPI   GL2 2614   5.070   6.358   8.829  0.3819  0.1993  0.0875
  164loPI   C1A 2615   5.572   6.261   8.727  0.2187  0.3498 -0.2192
  164loPI   C2A 2616   5.513   6.333   8.406 -0.1864 -0.1116 -0.1419
  164loPI   C3A 2617   5.574   6.478   7.948 -0.0336  0.2429 -0.1243
  164loPI   C4A 2618   5.382   6.675   7.653  0.0386  0.1269 -0.3549
  164loPI   C5A 2619   5.013   6.770   7.367  0.1923 -0.1344  0.2065
  164loPI   C6A 2620   4.501   6.677   7.182 -0.4304  0.3021 -0.2691
  164loPI   C1B 2621   4.961   6.286   8.336  0.0047  0.1886  0.0903
  164loPI   C2B 2622   5.159   6.280   8.017  0.1371 -0.0035  0.1566
  164loPI   C3B 2623   5.168   6.172   7.595 -0.0140  0.0980 -0.2957
  164loPI   C4B 2624   4.961   6.241   7.205  0.0814  0.1359 -0.0260
  165loPI    C1 2625  10.807   2.450  10.230 -0.0294 -0.0956  0.1079
  165loPI    C2 2626  10.616   2.494  10.578 -0.0979  0.2904  0.0255
  165loPI    C3 2627  10.434   2.311  10.272 -0.1979  0.3280  0.0620
  165loPI   PO4 2628  10.854   2.666  10.201  0.0588 -0.0526 -0.0783
  165loPI   GL1 2629  11.140   2.816   9.909  0.3229  0.1690  0.1358
  165loPI   GL2 2630  10.913   2.747   9.731 -0.1510  0.2739  0.2769
  165loPI   C1A 2631  11.374   2.843   9.546 -0.0496 -0.1076 -0.1264
  165loPI   C2A 2632  11.430   2.979   9.130 -0.4162 -0.1433  0.1712
  165loPI   C3A 2633  11.217   3.027   8.769 -0.0548 -0.0960 -0.1697
  165loPI   C4A 2634  11.047   2.887   8.439  0.0383 -0.0515  0.2024
  165loPI   C5A 2635  11.107   2.697   8.015 -0.3785 -0.1742  0.2548
  165loPI   C6A 2636  11.074   2.318   7.567 -0.0934 -0.0498  0.0474
  165loPI   C1B 2637  10.904   2.780   9.384  0.2380  0.0141 -0.1457
  165loPI   C2B 2638  10.724   2.906   8.944  0.4507  0.1422 -0.0712
  165loPI   C3B 2639  10.570   2.907   8.532  0.1018 -0.3732 -0.0153
  165loPI   C4B 2640  10.687   2.873   8.103 -0.1124 -0.1398 -0.0817
  166loPI    C1 2641   5.139   1.898   9.365  0.1664 -0.2796  0.0875
  166loPI    C2 2642   5.440   2.150   9.288 -0.0571 -0.0616 -0.0938
  166loPI    C3 2643   5.251   2.166   9.640  0.0196 -0.0711 -0.0520
  166loPI   PO4 2644   4.940   1.893   9.143  0.1338 -0.1211 -0.0333
  166loPI   GL1 2645   5.162   2.093   8.793  0.0280  0.1434 -0.4147
  166loPI   GL2 2646   5.517   2.002   8.787  0.0786 -0.0163  0.1758
  166loPI   C1A 2647   4.979   2.210   8.472 -0.0644 -0.5559  0.0001
  166loPI   C2A 2648   4.810   2.453   8.130  0.1346  0.0278 -0.1447
  166loPI   C3A 2649   4.616   2.829   7.864 -0.3466  0.1905 -0.2498
  166loPI   C4A 2650   4.626   2.879   7.402  0.0329 -0.0225 -0.4021
  166loPI   C5A 2651   4.524   3.139   7.089  0.0667  0.1673 -0.0438
  166loPI   C6A 2652   4.428   3.502   7.248 -0.0216 -0.1840 -0.3014
  166loPI   C1B 2653   5.467   2.021   8.365 -0.1338 -0.2906 -0.0691
  166loPI   C2B 2654   5.187   2.032   8.051 -0.2488  0.3491  0.4239
  166loPI   C3B 2655   4.981   2.254   7.734 -0.0338  0.1235  0.4267
  166loPI   C4B 2656   4.680   2.327   7.422  0.1127 -0.0434  0.4674
  167loPI    C1 2657   9.107   4.022   9.681 -0.0476 -0.0187 -0.1016
  167loPI    C2 2658   9.028   4.405   9.766 -0.1238 -0.0093 -0.2123
  167loPI    C3 2659   8.882   4.114   9.999  0.2386  0.0405  0.0876
  167loPI   PO4 2660   9.097   3.964   9.455 -0.2582  0.3304  0.0170
  167loPI   GL1 2661   8.787   3.749   9.235  0.0832 -0.0188 -0.3444
  167loPI   GL2 2662   8.864   4.025   9.036 -0.1714 -0.0053 -0.0282
  167loPI   C1A 2663   8.849   3.482   8.860  0.0258  0.0981 -0.0872
  167loPI   C2A 2664   9.003   3.403   8.420 -0.1139  0.2290 -0.1233
  167loPI   C3A 2665   8.958   3.235   8.084  0.0457 -0.0093  0.0132
  167loPI   C4A 2666   8.870   3.052   7.686  0.2583  0.2695 -0.1438
  167loPI   C5A 2667   8.678   3.217   7.315 -0.0540  0.1557 -0.0884
  167loPI   C6A 2668   8.476   3.574   6.986 -0.0718  0.2563 -0.1827
  167loPI   C1B 2669   9.094   3.896   8.689  0.0173  0.1324 -0.4085
  167loPI   C2B 2670   9.056   3.971   8.380  0.3338 -0.0100  0.0313
  167loPI   C3B 2671   9.144   3.855   8.007 -0.1433 -0.1869  0.0015
  167loPI   C4B 2672   9.358   3.936   7.569  0.2217  0.2334  0.3290
  168loPI    C1 2673  14.331  11.770   9.627  0.1068  0.0133  0.0229
  168loPI    C2 2674  14.122  11.993   9.884 -0.2102 -0.2133 -0.0328
  168loPI    C3 2675  14.509  11.919   9.953 -0.2018  0.0226  0.1901
  168loPI   PO4 2676  14.205  11.624   9.589 -0.3305 -0.1588 -0.1385
  168loPI   GL1 2677  14.318  11.383   9.304  0.1912  0.1823  0.2083
  168loPI   GL2 2678  14.131  11.132   9.346 -0.0609 -0.0379 -0.1393
  168loPI   C1A 2679  14.274  11.616   8.956 -0.1751 -0.1070  0.4821
  168loPI   C2A 2680  14.294  11.483   8.512  0.1951  0.0668 -0.0118
  168loPI   C3A 2681  14.479  11.310   8.181  0.0071  0.0421 -0.1168
  168loPI   C4A 2682  14.682  10.898   7.926  0.1697 -0.1032 -0.0003
  168loPI   C5A 2683  14.548  10.744   7.623 -0.1858  0.1631  0.3213
  168loPI   C6A 2684  14.835  10.663   7.327  0.1863  0.2667 -0.1637
  168loPI   C1B 2685  14.009  11.230   8.933  0.1398 -0.4193  0.0359
  168loPI   C2B 2686  13.881  11.015   8.528  0.1468  0.1311 -0.1096
  168loPI   C3B 2687  13.789  10.785   8.223  0.3215 -0.1945 -0.0373
  168loPI   C4B 2688  13.915  10.688   7.834  0.2234 -0.0746 -0.2572
  169loPI    C1 2689   9.428  12.305  10.137 -0.1515 -0.0688  0.0399
  169loPI    C2 2690   9.794  12.425  10.246 -0.0318 -0.0298 -0.3886
  169loPI    C3 2691   9.627  12.107  10.421  0.1753 -0.0036 -0.1390
  169loPI   PO4 2692   9.442  12.351   9.787  0.1934  0.0127  0.1242
  169loPI   GL1 2693   9.791  12.359   9.481 -0.1052 -0.3495 -0.1284
  169loPI   GL2 2694   9.483  12.527   9.315 -0.0688 -0.1604 -0.0187
  169loPI   C1A 2695   9.944  12.370   9.091 -0.1194  0.1293 -0.3078
  169loPI   C2A 2696   9.965  12.422   8.697  0.1302  0.0533 -0.1826
  169loPI   C3A 2697   9.888  12.276   8.298 -0.1070  0.0611 -0.2297
  169loPI   C4A 2698   9.742  12.582   7.974 -0.1358 -0.1271  0.1475
  169loPI   C5A 2699   9.932  12.618   7.536 -0.1369 -0.1041 -0.1912
  169loPI   C6A 2700   9.957  12.902   7.207 -0.1274  0.0635 -0.0507
  169loPI   C1B 2701   9.547  12.614   8.938  0.2797 -0.1955 -0.1355
  169loPI   C2B 2702   9.587  12.610   8.436 -0.2522 -0.0144 -0.4414
  169loPI   C3B 2703   9.298  12.285   8.152  0.1417 -0.1377 -0.0614
  169loPI   C4B 2704   9.096  12.123   7.755  0.1260 -0.2029  0.1505
  170loPI    C1 2705   5.743  10.142   9.866  0.0306 -0.3019 -0.1081
  170loPI    C2 2706   5.461   9.908  10.027 -0.1029  0.0044  0.1131
  170loPI    C3 2707   5.467  10.300  10.109 -0.0260  0.1265 -0.4389
  170loPI   PO4 2708   5.758   9.979   9.621 -0.1725  0.0547 -0.0184
  170loPI   GL1 2709   5.746  10.025   9.230  0.0713 -0.0905 -0.0979
  170loPI   GL2 2710   5.540   9.809   9.154  0.0368  0.2122  0.4157
  170loPI   C1A 2711   5.520  10.248   8.894 -0.0010  0.1893  0.3811
  170loPI   C2A 2712   5.698  10.071   8.522 -0.2260 -0.2244  0.1078
  170loPI   C3A 2713   5.816   9.985   8.144  0.0676 -0.0153  0.1688
  170loPI   C4A 2714   5.969   9.848   7.827 -0.0684 -0.5095  0.4906
  170loPI   C5A 2715   6.047   9.549   7.675 -0.2213  0.1089  0.1920
  170loPI   C6A 2716   6.170   9.436   7.296 -0.0866  0.0716  0.1425
  170loPI   C1B 2717   5.416   9.756   8.716  0.0069  0.0449 -0.1392
  170loPI   C2B 2718   5.221   9.743   8.398 -0.2779  0.1322  0.2335
  170loPI   C3B 2719   5.063   9.457   8.053  0.1494  0.1438  0.2385
  170loPI   C4B 2720   5.046   9.267   7.747  0.1527 -0.1136 -0.3456
  171loPI    C1 2721   0.135  10.615   9.431  0.2141  0.1283 -0.0020
  171loPI    C2 2722  -0.069  10.625   9.776 -0.3762  0.1011 -0.3369
  171loPI    C3 2723   0.106  10.957   9.637  0.0215  0.0710  0.0685
  171loPI   PO4 2724  -0.042  10.497   9.233  0.0942  0.2106  0.1456
  171loPI   GL1 2725   0.106  10.521   8.894 -0.1782 -0.0560  0.0336
  171loPI   GL2 2726   0.452  10.349   8.859  0.0270 -0.1929 -0.2432
  171loPI   C1A 2727   0.037  10.494   8.383  0.0554  0.3131 -0.3153
  171loPI   C2A 2728  -0.014  10.480   7.923  0.2341  0.1039 -0.1037
  171loPI   C3A 2729  -0.028  10.496   7.451  0.0214  0.0694  0.0719
  171loPI   C4A 2730  -0.197  10.542   7.043  0.0147  0.1694  0.1297
  171loPI   C5A 2731  -0.241  10.852   6.727 -0.1843 -0.1597  0.0902
  171loPI   C6A 2732  -0.178  11.244   6.750 -0.0709 -0.0185 -0.2088
  171loPI   C1B 2733   0.568  10.378   8.428  0.0059 -0.1096  0.1217
  171loPI   C2B 2734   0.475  10.640   8.008 -0.1924 -0.1985 -0.1028
  171loPI   C3B 2735   0.560  10.698   7.500 -0.0204  0.0936  0.0893
  171loPI   C4B 2736   0.560  10.706   7.043 -0.0350  0.2536  0.2698
  172loPI    C1 2737  13.242  10.482   9.573 -0.1897 -0.0541 -0.2656
  172loPI    C2 2738  13.176  10.340   9.941 -0.0320  0.2348 -0.1221
  172loPI    C3 2739  13.487  10.206   9.728 -0.0024  0.2173 -0.0680
  172loPI   PO4 2740  13.168  10.729   9.455  0.1695  0.0272  0.0266
  172loPI   GL1 2741  13.108  10.684   9.084  0.0762  0.1288  0.0005
  172loPI   GL2 2742  13.444  10.488   9.134 -0.0515  0.2922  0.0926
  172loPI   C1A 2743  13.042  10.749   8.528  0.4835 -0.1234  0.0330
  172loPI   C2A 2744  13.122  10.842   8.059 -0.1788 -0.0316 -0.1855
  172loPI   C3A 2745  13.266  10.950   7.664  0.0299 -0.1843 -0.1311
  172loPI   C4A 2746  13.119  11.280   7.541  0.2925 -0.0601 -0.2093
  172loPI   C5A 2747  13.203  11.669   7.473 -0.1772  0.0020 -0.2724
  172loPI   C6A 2748  13.572  11.898   7.356 -0.0957  0.1757 -0.0299
  172loPI   C1B 2749  13.433  10.486   8.695  0.1588 -0.1906 -0.0717
  172loPI   C2B 2750  13.430  10.414   8.264 -0.2209  0.1774 -0.2299
  172loPI   C3B 2751  13.485  10.488   7.877  0.1056 -0.0068 -0.2451
  172loPI   C4B 2752  13.381  10.463   7.514  0.1863  0.0406 -0.0595
  173loPI    C1 2753  13.551  13.076  10.069  0.1418  0.1789  0.1798
  173loPI    C2 2754  13.319  13.395  10.002  0.0238  0.0210 -0.1914
  173loPI    C3 2755  13.672  13.362   9.816  0.2928  0.1969  0.2709
  173loPI   PO4 2756  13.304  12.879   9.970 -0.0032  0.0542 -0.3640
  173loPI   GL1 2757  13.056  12.746   9.629  0.0472  0.3438 -0.1276
  173loPI   GL2 2758  12.714  12.643   9.607 -0.0544 -0.0521  0.1255
  173loPI   C1A 2759  13.115  12.500   9.166 -0.1718 -0.0875 -0.2422
  173loPI   C2A 2760  13.109  12.670   8.792  0.1085  0.0262 -0.0861
  173loPI   C3A 2761  12.789  12.713   8.502  0.0992 -0.0350  0.0686
  173loPI   C4A 2762  12.544  12.669   8.058  0.1461 -0.0174 -0.0334
  173loPI   C5A 2763  12.215  12.781   7.785 -0.1869 -0.1557  0.1698
  173loPI   C6A 2764  11.844  12.725   7.572 -0.1108 -0.0660  0.0735
  173loPI   C1B 2765  12.621  12.727   9.278 -0.1936 -0.0020  0.2260
  173loPI   C2B 2766  12.496  12.634   8.959  0.0340  0.2500 -0.1607
  173loPI   C3B 2767  12.296  12.747   8.673 -0.0732 -0.1281 -0.2771
  173loPI   C4B 2768  12.122  12.685   8.309  0.0087  0.1814  0.5160
  174loPI    C1 2769  17.756   9.790   9.662  0.0361  0.2727  0.0676
  174loPI    C2 2770  17.983   9.490   9.799 -0.0147  0.1391 -0.1366
  174loPI    C3 2771  17.941   9.824  10.015  0.0442  0.0007  0.0915
  174loPI   PO4 2772  17.513   9.679   9.649 -0.0597 -0.3858 -0.1815
  174loPI   GL1 2773  17.342   9.563   9.265 -0.0572  0.1035 -0.0340
  174loPI   GL2 2774  17.509   9.712   8.934 -0.2475 -0.0799  0.1265
  174loPI   C1A 2775  17.123   9.430   8.900 -0.1112  0.1214 -0.0141
  174loPI   C2A 2776  17.126   9.498   8.444 -0.0997  0.1926  0.0162
  174loPI   C3A 2777  17.344   9.802   8.214 -0.2850 -0.3301 -0.1574
  174loPI   C4A 2778  17.475   9.910   7.878 -0.3767 -0.1923 -0.2671
  174loPI   C5A 2779  17.441   9.864   7.455  0.0784  0.2135 -0.0157
  174loPI   C6A 2780  17.402   9.834   7.075 -0.1055  0.2181 -0.0864
  174loPI   C1B 2781  17.648   9.949   8.606 -0.1529  0.0811  0.0872
  174loPI   C2B 2782  17.879   9.836   8.250 -0.1127 -0.1690  0.1729
  174loPI   C3B 2783  17.959   9.717   7.905  0.0656 -0.1129  0.1048
  174loPI   C4B 2784  18.026   9.680   7.516 -0.1726  0.1511  0.0713
  175loPI    C1 2785  15.681  12.143   9.470 -0.1766  0.2114  0.0667
  175loPI    C2 2786  15.797  12.404   9.750 -0.1657  0.1850  0.0868
  175loPI    C3 2787  15.937  12.436   9.377 -0.0713  0.1363  0.1175
  175loPI   PO4 2788  15.619  11.966   9.619 -0.0352 -0.3203  0.1713
  175loPI   GL1 2789  15.390  11.698   9.423 -0.1002  0.2882 -0.1742
  175loPI   GL2 2790  15.150  11.932   9.260 -0.2883 -0.2037 -0.2115
  175loPI   C1A 2791  15.471  11.777   8.940  0.0176  0.0865  0.0800
  175loPI   C2A 2792  15.287  11.650   8.617  0.0562 -0.0986  0.3395
  175loPI   C3A 2793  15.259  11.699   8.143 -0.0646  0.1929  0.0844
  175loPI   C4A 2794  15.406  11.498   7.839  0.0424  0.0201 -0.2614
  175loPI   C5A 2795  15.353  11.544   7.427  0.0445 -0.0957  0.1034
  175loPI   C6A 2796  15.246  11.334   6.992 -0.1220 -0.0964 -0.1808
  175loPI   C1B 2797  15.031  12.080   8.869  0.0613  0.0139  0.0510
  175loPI   C2B 2798  14.941  12.026   8.433  0.1650  0.3174  0.2333
  175loPI   C3B 2799  15.253  12.158   8.045  0.1166 -0.1203 -0.2628
  175loPI   C4B 2800  15.388  12.015   7.590 -0.0436 -0.0566  0.1357
  176loPI    C1 2801   0.657  16.490   9.717 -0.0323 -0.2190 -0.0135
  176loPI    C2 2802   0.791  16.272  10.024 -0.0017 -0.0998  0.0583
  176loPI    C3 2803   0.887  16.659   9.997  0.0971 -0.1383 -0.1668
  176loPI   PO4 2804   0.740  16.388   9.500  0.2516  0.1542 -0.2423
  176loPI   GL1 2805   0.850  16.570   9.125  0.1018 -0.0448  0.0230
  176loPI   GL2 2806   0.711  16.859   9.064 -0.0431  0.3843  0.0117
  176loPI   C1A 2807   1.025  16.481   8.736  0.2832  0.1118  0.0384
  176loPI   C2A 2808   0.982  16.372   8.366 -0.1095  0.1039 -0.0439
  176loPI   C3A 2809   0.971  16.094   8.164  0.1819  0.2317 -0.1647
  176loPI   C4A 2810   0.917  15.965   7.670  0.1976  0.2033 -0.1175
  176loPI   C5A 2811   0.725  16.031   7.227 -0.0397  0.0510 -0.0729
  176loPI   C6A 2812   0.435  16.033   6.958  0.0184  0.0890 -0.2433
  176loPI   C1B 2813   0.728  16.972   8.703  0.1479  0.2745 -0.0277
  176loPI   C2B 2814   0.706  17.011   8.232 -0.1591  0.1293 -0.2277
  176loPI   C3B 2815   0.783  17.159   7.781  0.1331  0.0775  0.0206
  176loPI   C4B 2816   0.909  17.567   7.785  0.0977 -0.0329 -0.0063
  177loPI    C1 2817   3.533   7.111   9.330 -0.0301  0.1462  0.3338
  177loPI    C2 2818   3.591   6.720   9.267 -0.0516  0.1973 -0.0251
  177loPI    C3 2819   3.693   6.883   9.618 -0.0603 -0.1318  0.1348
  177loPI   PO4 2820   3.551   7.221   9.023  0.1485 -0.0439  0.2514
  177loPI   GL1 2821   3.835   7.309   8.654 -0.3112 -0.1243 -0.1222
  177loPI   GL2 2822   3.487   7.412   8.533 -0.2554  0.1806 -0.3215
  177loPI   C1A 2823   3.696   7.048   8.194 -0.1814  0.3139  0.2581
  177loPI   C2A 2824   3.562   6.672   7.929 -0.0286 -0.2044 -0.0491
  177loPI   C3A 2825   3.512   6.650   7.484 -0.0356 -0.4415  0.3713
  177loPI   C4A 2826   3.506   7.078   7.246  0.1036  0.0828  0.1650
  177loPI   C5A 2827   3.390   7.147   6.875  0.0421  0.1429  0.0173
  177loPI   C6A 2828   3.039   7.261   6.609  0.2382 -0.0027  0.0026
  177loPI   C1B 2829   3.277   7.742   8.361  0.0298  0.1409  0.2106
  177loPI   C2B 2830   3.006   8.020   8.520  0.3034 -0.1092 -0.0670
  177loPI   C3B 2831   2.588   8.135   8.568 -0.0783  0.0283 -0.0854
  177loPI   C4B 2832   2.263   8.116   8.326  0.0869  0.1722  0.4111
  178loPI    C1 2833  10.540   3.481   9.952 -0.2164  0.1971  0.0548
  178loPI    C2 2834  10.573   3.088  10.017  0.1384  0.1881 -0.1526
  178loPI    C3 2835  10.239   3.281  10.122 -0.0424 -0.1684 -0.0568
  178loPI   PO4 2836  10.630   3.554   9.609 -0.1878  0.0182  0.5634
  178loPI   GL1 2837  10.643   3.392   9.172 -0.1307 -0.4301 -0.0083
  178loPI   GL2 2838  10.992   3.230   9.326  0.2683 -0.0898 -0.0383
  178loPI   C1A 2839  10.809   3.399   8.741 -0.1074 -0.0066  0.0771
  178loPI   C2A 2840  10.876   3.417   8.326  0.0126 -0.0751  0.1972
  178loPI   C3A 2841  11.017   3.264   7.843  0.0968 -0.2076 -0.0029
  178loPI   C4A 2842  11.253   3.061   7.561  0.1968  0.1204 -0.3556
  178loPI   C5A 2843  11.356   2.729   7.341 -0.0373  0.0111  0.3384
  178loPI   C6A 2844  11.521   2.271   7.345 -0.0496  0.0411 -0.1071
  178loPI   C1B 2845  11.186   3.416   9.075 -0.0167  0.0209  0.2684
  178loPI   C2B 2846  11.316   3.503   8.682  0.0790 -0.3063 -0.0350
  178loPI   C3B 2847  11.578   3.565   8.215  0.1231  0.0257 -0.3661
  178loPI   C4B 2848  11.561   3.356   7.756 -0.1779 -0.1745  0.0597
  179loPI    C1 2849   0.018  12.987   9.306  0.1413  0.0380 -0.0261
  179loPI    C2 2850  -0.219  13.238   9.103 -0.1548 -0.3080 -0.1206
  179loPI    C3 2851  -0.332  13.102   9.462  0.0405 -0.2492 -0.0350
  179loPI   PO4 2852   0.213  12.908   9.158 -0.1496  0.0577  0.1841
  179loPI   GL1 2853   0.464  12.954   8.797  0.1955 -0.0811 -0.1708
  179loPI   GL2 2854   0.551  13.224   8.715 -0.2317  0.1660 -0.0580
  179loPI   C1A 2855   0.274  12.803   8.328 -0.0603 -0.3855 -0.0501
  179loPI   C2A 2856   0.270  12.847   7.893 -0.0006  0.1266  0.0187
  179loPI   C3A 2857   0.292  12.935   7.424 -0.1988 -0.0543  0.1407
  179loPI   C4A 2858   0.498  13.172   7.087  0.0177 -0.2306  0.0949
  179loPI   C5A 2859   0.680  13.516   6.914  0.1484  0.0587  0.0074
  179loPI   C6A 2860   0.795  13.805   7.241  0.1262 -0.1174 -0.0397
  179loPI   C1B 2861   0.835  13.559   8.378  0.3135  0.0020  0.1744
  179loPI   C2B 2862   1.194  13.879   8.272  0.1203 -0.1702 -0.2553
  179loPI   C3B 2863   1.425  14.045   7.942  0.0869  0.0718  0.0988
  179loPI   C4B 2864   1.612  14.425   7.622  0.1277 -0.0542  0.4984
  180loPI    C1 2865   2.557   4.155   9.132 -0.1061 -0.4411 -0.0552
  180loPI    C2 2866   2.467   4.122   9.520  0.2296  0.2241  0.0946
  180loPI    C3 2867   2.835   4.034   9.392  0.0883 -0.1031 -0.0996
  180loPI   PO4 2868   2.437   4.426   8.972 -0.3591  0.2480 -0.0198
  180loPI   GL1 2869   2.352   4.723   8.545  0.0232 -0.3555 -0.2175
  180loPI   GL2 2870   2.127   4.504   8.553  0.0452 -0.1216 -0.0244
  180loPI   C1A 2871   2.681   4.804   8.229 -0.0890  0.2523  0.2449
  180loPI   C2A 2872   3.027   4.802   7.988  0.0774 -0.0641  0.0454
  180loPI   C3A 2873   3.055   4.708   7.560  0.4712 -0.3322  0.0963
  180loPI   C4A 2874   3.019   5.061   7.357 -0.4133  0.2584 -0.0286
  180loPI   C5A 2875   3.223   5.255   6.958  0.2763  0.0898  0.0425
  180loPI   C6A 2876   3.196   5.586   6.620  0.2073  0.1812 -0.0549
  180loPI   C1B 2877   2.306   4.438   8.108 -0.1529  0.0063  0.0016
  180loPI   C2B 2878   2.653   4.452   7.807  0.2916  0.0161 -0.0119
  180loPI   C3B 2879   2.559   4.767   7.466  0.2968  0.0689 -0.1814
  180loPI   C4B 2880   2.376   4.875   7.136 -0.1498 -0.1096 -0.1112
  181loPI    C1 2881   4.556   9.310   9.544  0.0271  0.0280 -0.0888
  181loPI    C2 2882   4.208   9.493   9.472  0.0983  0.1859 -0.0378
  181loPI    C3 2883   4.394   9.549   9.821  0.1657  0.0865 -0.0574
  181loPI   PO4 2884   4.618   9.162   9.258  0.1969  0.0024 -0.3575
  181loPI   GL1 2885   4.639   9.394   8.839 -0.0213  0.1480  0.3126
  181loPI   GL2 2886   4.485   9.019   8.829 -0.0982  0.2342  0.1304
  181loPI   C1A 2887   4.804   9.650   8.606  0.3428 -0.1264 -0.1222
  181loPI   C2A 2888   4.703   9.703   8.211  0.0013  0.1503  0.1811
  181loPI   C3A 2889   4.761   9.772   7.819 -0.3004 -0.2403  0.1322
  181loPI   C4A 2890   5.031   9.809   7.574 -0.0019  0.2912  0.0677
  181loPI   C5A 2891   5.103   9.475   7.298  0.1732 -0.0500 -0.0427
  181loPI   C6A 2892   5.344   9.396   6.918 -0.1585 -0.1788  0.1470
  181loPI   C1B 2893   4.608   9.216   8.426  0.1509  0.3450 -0.1568
  181loPI   C2B 2894   4.602   9.223   7.907  0.3190 -0.2312 -0.0936
  181loPI   C3B 2895   4.694   9.220   7.362  0.1548  0.2018 -0.0312
  181loPI   C4B 2896   4.903   8.951   7.112  0.1931 -0.1116 -0.1261
  182loPI    C1 2897  13.974   6.655   9.646  0.1322  0.0707 -0.1945
  182loPI    C2 2898  14.286   6.433   9.762  0.0309 -0.0209 -0.0961
  182loPI    C3 2899  14.003   6.534  10.026 -0.0511  0.0153 -0.1973
  182loPI   PO4 2900  13.924   6.606   9.432 -0.0676  0.2273 -0.0230
  182loPI   GL1 2901  13.978   6.723   9.082 -0.2522 -0.0608 -0.4203
  182loPI   GL2 2902  14.269   6.442   9.082 -0.0044  0.0155 -0.2960
  182loPI   C1A 2903  14.196   6.872   8.804 -0.0398 -0.0465  0.2011
  182loPI   C2A 2904  14.375   6.775   8.396  0.0213  0.0387  0.4685
  182loPI   C3A 2905  14.204   6.776   8.057 -0.1420  0.2175 -0.1374
  182loPI   C4A 2906  14.270   6.944   7.583 -0.2688 -0.2096  0.1180
  182loPI   C5A 2907  14.333   7.060   7.130 -0.1948  0.1333  0.2944
  182loPI   C6A 2908  14.401   7.484   7.124  0.1178  0.2094 -0.0341
  182loPI   C1B 2909  14.019   6.293   8.828  0.2235  0.1048 -0.1028
  182loPI   C2B 2910  13.611   6.234   8.626  0.0379  0.3358 -0.0084
  182loPI   C3B 2911  13.569   5.773   8.499  0.0671 -0.0794  0.2468
  182loPI   C4B 2912  13.915   5.472   8.368 -0.3799 -0.0483 -0.1436
  183loPI    C1 2913   9.281   2.928   9.824 -0.1139  0.1066  0.0962
  183loPI    C2 2914   9.462   2.868  10.176  0.0818  0.0311 -0.0155
  183loPI    C3 2915   9.147   2.644  10.073  0.0254  0.0516  0.1094
  183loPI   PO4 2916   9.462   3.014   9.669 -0.0176  0.0014  0.1524
  183loPI   GL1 2917   9.305   3.004   9.239 -0.0487 -0.0077 -0.1983
  183loPI   GL2 2918   8.964   2.936   9.405  0.1202  0.0005  0.0846
  183loPI   C1A 2919   9.358   2.828   8.751  0.1787 -0.0639 -0.0995
  183loPI   C2A 2920   9.423   2.598   8.318  0.0301 -0.3354  0.4597
  183loPI   C3A 2921   9.588   2.419   7.932  0.2941  0.3514 -0.1057
  183loPI   C4A 2922   9.924   2.197   7.812  0.0754 -0.2845  0.1377
  183loPI   C5A 2923  10.312   2.097   8.086  0.1716  0.0233  0.0381
  183loPI   C6A 2924  10.411   2.006   8.493 -0.1658 -0.0798 -0.3988
  183loPI   C1B 2925   8.848   2.949   8.920 -0.0839 -0.2244 -0.3147
  183loPI   C2B 2926   8.884   2.871   8.495  0.0155  0.1119  0.1386
  183loPI   C3B 2927   9.015   2.713   8.063 -0.0309  0.2748  0.2395
  183loPI   C4B 2928   9.268   2.702   7.688 -0.2232  0.1782  0.3085
  184loPI    C1 2929  12.030  14.773  10.335  0.1560 -0.1751 -0.0261
  184loPI    C2 2930  12.273  14.566  10.577 -0.0086 -0.2018  0.1182
  184loPI    C3 2931  11.876  14.525  10.608 -0.0329 -0.1737 -0.1298
  184loPI   PO4 2932  12.196  15.133  10.359 -0.0652 -0.2912 -0.0213
  184loPI   GL1 2933  12.536  15.145  10.047  0.4126  0.2373 -0.1960
  184loPI   GL2 2934  12.811  15.085  10.259  0.5101 -0.0395 -0.0961
  184loPI   C1A 2935  12.784  15.130   9.682 -0.4725  0.0607 -0.1048
  184loPI   C2A 2936  12.587  14.890   9.296 -0.0606 -0.1634 -0.0518
  184loPI   C3A 2937  12.563  14.857   8.889 -0.0986  0.1555  0.0590
  184loPI   C4A 2938  12.775  14.923   8.566 -0.0555  0.1587  0.0530
  184loPI   C5A 2939  12.782  14.844   8.220 -0.1735  0.3527  0.1064
  184loPI   C6A 2940  12.961  14.708   7.785 -0.1808  0.0004  0.2737
  184loPI   C1B 2941  13.215  15.180  10.111 -0.0739 -0.1590 -0.3437
  184loPI   C2B 2942  13.472  15.336   9.723 -0.1512  0.1170 -0.0047
  184loPI   C3B 2943  13.735  15.419   9.382  0.1382  0.1936  0.0769
  184loPI   C4B 2944  14.035  15.447   9.125 -0.0527 -0.2893 -0.0507
  185loPI    C1 2945   0.323   0.238  10.094  0.1720  0.0339 -0.0888
  185loPI    C2 2946   0.385   0.612  10.222 -0.0493 -0.0001  0.1250
  185loPI    C3 2947   0.014   0.489  10.135  0.0202 -0.1750  0.0701
  185loPI   PO4 2948   0.523   0.228   9.846 -0.3669  0.2171  0.0111
  185loPI   GL1 2949   0.434   0.247   9.396 -0.1438  0.0385 -0.2024
  185loPI   GL2 2950   0.642   0.338   9.322  0.0163 -0.2073 -0.2911
  185loPI   C1A 2951   0.134   0.288   9.042 -0.3187 -0.2491  0.1159
  185loPI   C2A 2952   0.024   0.448   8.657 -0.0169 -0.2890  0.0649
  185loPI   C3A 2953   0.132   0.471   8.288 -0.1712  0.0090 -0.2670
  185loPI   C4A 2954   0.057   0.333   7.866  0.1388 -0.1853 -0.0523
  185loPI   C5A 2955  -0.268   0.346   7.522 -0.1429 -0.1956 -0.1720
  185loPI   C6A 2956  -0.501  -0.022   7.277 -0.0639 -0.3433 -0.2914
  185loPI   C1B 2957   0.560   0.372   8.875 -0.1171 -0.3221 -0.0006
  185loPI   C2B 2958   0.368   0.089   8.507  0.0650 -0.2023 -0.1913
  185loPI   C3B 2959   0.457  -0.014   8.078 -0.1903  0.1990 -0.2609
  185loPI   C4B 2960   0.202  -0.074   7.708 -0.3662 -0.0854  0.5649
  186loPI    C1 2961  16.894   8.244   9.440 -0.2531  0.0670 -0.1543
  186loPI    C2 2962  17.002   8.608   9.314 -0.2219  0.0993 -0.0352
  186loPI    C3 2963  17.011   8.520   9.704 -0.4314  0.0376 -0.0427
  186loPI   PO4 2964  16.672   8.236   9.200  0.2350  0.1756 -0.0387
  186loPI   GL1 2965  16.724   8.526   8.867 -0.1195 -0.0204  0.1164
  186loPI   GL2 2966  16.371   8.566   8.982 -0.1854 -0.4250 -0.2676
  186loPI   C1A 2967  16.942   8.271   8.504  0.1436 -0.0013 -0.3484
  186loPI   C2A 2968  16.960   8.098   8.138  0.0047 -0.1325  0.2017
  186loPI   C3A 2969  16.711   8.036   7.743  0.0996  0.3458 -0.1035
  186loPI   C4A 2970  16.502   7.774   7.468 -0.2220  0.1089  0.0857
  186loPI   C5A 2971  16.333   7.431   7.092 -0.0435  0.2764  0.0951
  186loPI   C6A 2972  15.881   7.061   7.120 -0.3382 -0.1904 -0.1865
  186loPI   C1B 2973  16.339   8.768   8.512 -0.0794 -0.1105 -0.1254
  186loPI   C2B 2974  16.047   8.712   8.233 -0.1082  0.3188 -0.0720
  186loPI   C3B 2975  15.707   8.542   7.810 -0.3504 -0.3485 -0.2664
  186loPI   C4B 2976  15.560   8.708   7.377  0.3202 -0.1796 -0.1366
  187loPI    C1 2977  14.898  10.373  10.207  0.1495 -0.1655 -0.0678
  187loPI    C2 2978  14.952  10.275  10.591  0.2134 -0.1565 -0.0742
  187loPI    C3 2979  15.105  10.616  10.448 -0.2041  0.0715  0.0048
  187loPI   PO4 2980  14.763  10.185  10.117  0.2488 -0.2172 -0.3830
  187loPI   GL1 2981  14.685  10.055   9.672  0.0052 -0.1373  0.3375
  187loPI   GL2 2982  14.431  10.224   9.506 -0.0936 -0.1937 -0.1056
  187loPI   C1A 2983  14.877   9.776   9.215  0.1884  0.0133 -0.1408
  187loPI   C2A 2984  15.179   9.740   8.932 -0.1021  0.0061  0.0930
  187loPI   C3A 2985  15.169   9.653   8.513  0.6400  0.1478 -0.0537
  187loPI   C4A 2986  15.350   9.843   8.144 -0.0658  0.1582 -0.0323
  187loPI   C5A 2987  15.306  10.246   7.884  0.4072 -0.0668  0.0175
  187loPI   C6A 2988  15.169  10.656   7.722 -0.1524 -0.1512  0.3098
  187loPI   C1B 2989  14.428  10.101   9.100 -0.0899 -0.2322  0.0231
  187loPI   C2B 2990  14.537   9.724   8.796  0.0178  0.1324 -0.1278
  187loPI   C3B 2991  14.720   9.549   8.476  0.0020 -0.1415 -0.1581
  187loPI   C4B 2992  14.710   9.357   8.035  0.2319 -0.1465  0.0258
  188loPI    C1 2993   0.937   2.798   9.545  0.2370  0.0301  0.0224
  188loPI    C2 2994   1.247   2.930   9.762  0.1888 -0.1222  0.1856
  188loPI    C3 2995   0.892   2.868   9.936  0.0568  0.0791 -0.0064
  188loPI   PO4 2996   0.875   2.902   9.338  0.2786  0.2016  0.0199
  188loPI   GL1 2997   1.011   2.786   8.789 -0.0215 -0.3187  0.2054
  188loPI   GL2 2998   0.660   2.861   8.892  0.1627 -0.1774  0.1007
  188loPI   C1A 2999   0.979   2.828   8.318  0.0468 -0.0818 -0.0353
  188loPI   C2A 3000   0.978   2.775   7.848  0.2430 -0.0873 -0.0757
  188loPI   C3A 3001   0.663   2.813   7.569 -0.0738 -0.2473 -0.0024
  188loPI   C4A 3002   0.596   3.230   7.308 -0.0974 -0.1005 -0.2480
  188loPI   C5A 3003   0.475   3.491   6.930  0.2073  0.0634 -0.0295
  188loPI   C6A 3004   0.223   3.922   6.781 -0.1428  0.1005 -0.1030
  188loPI   C1B 3005   0.391   2.547   8.766  0.3080 -0.4142 -0.4381
  188loPI   C2B 3006   0.109   2.308   8.931 -0.1321 -0.0983  0.3611
  188loPI   C3B 3007  -0.276   2.032   8.823 -0.2501  0.2095 -0.0922
  188loPI   C4B 3008  -0.336   1.625   8.972  0.0890  0.2576  0.2899
  189loPI    C1 3009   7.538  15.066  10.230 -0.1446 -0.2107  0.0611
  189loPI    C2 3010   7.818  14.960  10.495  0.0242 -0.0985 -0.0701
  189loPI    C3 3011   7.444  15.030  10.617  0.1082 -0.0126  0.1440
  189loPI   PO4 3012   7.570  14.884  10.022  0.0136  0.0671  0.1864
  189loPI   GL1 3013   7.736  14.815   9.653 -0.1652 -0.4187 -0.1293
  189loPI   GL2 3014   7.442  14.642   9.529 -0.0262  0.0717  0.1516
  189loPI   C1A 3015   7.884  14.787   9.267  0.0395 -0.0382  0.0944
  189loPI   C2A 3016   7.811  14.774   8.851 -0.0641 -0.1562  0.0247
  189loPI   C3A 3017   7.991  14.923   8.499 -0.1092 -0.1504  0.1041
  189loPI   C4A 3018   7.811  15.009   8.180  0.0530  0.1040 -0.0202
  189loPI   C5A 3019   7.819  15.352   7.868  0.0731  0.1051 -0.0473
  189loPI   C6A 3020   8.068  15.337   7.481  0.0466 -0.0625 -0.0384
  189loPI   C1B 3021   7.394  14.761   9.120 -0.3873 -0.0205 -0.2951
  189loPI   C2B 3022   7.388  14.928   8.644 -0.0169  0.1053  0.0929
  189loPI   C3B 3023   7.312  15.120   8.102 -0.0043 -0.2429  0.1728
  189loPI   C4B 3024   7.253  15.417   7.693 -0.0192 -0.0051 -0.5213
  190loPI    C1 3025  17.424  18.181  10.422  0.1278 -0.0359  0.1592
  190loPI    C2 3026  17.091  17.983  10.517  0.0136 -0.1234 -0.3912
  190loPI    C3 3027  17.444  17.796  10.526  0.0874  0.0209  0.3819
  190loPI   PO4 3028  17.283  18.312  10.175  0.0323  0.0762 -0.0190
  190loPI   GL1 3029  17.206  18.494   9.905  0.2434 -0.4915 -0.1217
  190loPI   GL2 3030  17.555  18.726   9.862 -0.0907  0.1761 -0.0090
  190loPI   C1A 3031  17.217  18.541   9.517  0.0479  0.0703  0.1904
  190loPI   C2A 3032  17.258  18.710   9.174  0.0468  0.0137 -0.0342
  190loPI   C3A 3033  17.204  18.475   8.850 -0.0741 -0.0019  0.0587
  190loPI   C4A 3034  17.306  18.707   8.326  0.3329  0.1943 -0.0765
  190loPI   C5A 3035  17.495  19.013   8.058  0.2564 -0.0990 -0.1289
  190loPI   C6A 3036  17.569  19.377   7.844  0.1962  0.1049 -0.1275
  190loPI   C1B 3037  17.679  18.671   9.447 -0.0350  0.3604 -0.0123
  190loPI   C2B 3038  17.656  18.434   9.016 -0.2139 -0.3121  0.1059
  190loPI   C3B 3039  17.551  18.159   8.545  0.0508 -0.2043 -0.1307
  190loPI   C4B 3040  17.266  18.020   8.271 -0.0588  0.4366 -0.0575
  191loPI    C1 3041  16.897  17.267  10.186 -0.0548  0.0706  0.1092
  191loPI    C2 3042  17.060  17.473  10.487 -0.0882 -0.0416  0.2045
  191loPI    C3 3043  17.127  17.080  10.454  0.0555  0.0012 -0.0325
  191loPI   PO4 3044  16.998  17.374   9.944  0.0949  0.3582 -0.3978
  191loPI   GL1 3045  16.868  17.424   9.536 -0.1423 -0.3472  0.1276
  191loPI   GL2 3046  16.728  17.658   9.599  0.1907  0.1211  0.0030
  191loPI   C1A 3047  16.725  17.294   9.135 -0.2363  0.4027  0.1589
  191loPI   C2A 3048  16.660  17.079   8.760  0.0984  0.0086  0.2226
  191loPI   C3A 3049  16.502  16.884   8.468 -0.1966 -0.0367  0.1176
  191loPI   C4A 3050  16.619  16.732   7.963 -0.1318  0.2873 -0.0939
  191loPI   C5A 3051  16.789  16.928   7.529  0.1686 -0.1923  0.1215
  191loPI   C6A 3052  16.823  17.355   7.730  0.0305  0.3550 -0.3061
  191loPI   C1B 3053  16.871  17.786   9.154  0.2406 -0.0597 -0.0589
  191loPI   C2B 3054  16.812  17.954   8.763 -0.2803 -0.0258  0.0343
  191loPI   C3B 3055  16.593  18.004   8.444  0.1110  0.0337 -0.2425
  191loPI   C4B 3056  16.234  17.908   8.363  0.0838  0.1226  0.2040
  192loPI    C1 3057  15.579  17.069  10.264  0.2428  0.2818 -0.0854
  192loPI    C2 3058  15.452  17.195  10.621 -0.0503 -0.0549 -0.0655
  192loPI    C3 3059  15.605  16.828  10.582  0.3180  0.1104 -0.2196
  192loPI   PO4 3060  15.333  17.175  10.132  0.2018 -0.0517  0.1872
  192loPI   GL1 3061  15.295  17.394   9.683  0.1049 -0.1397 -0.4858
  192loPI   GL2 3062  15.514  17.488   9.480  0.0250  0.1169  0.0338
  192loPI   C1A 3063  15.310  17.063   9.393  0.0649  0.1761 -0.2018
  192loPI   C2A 3064  15.211  16.900   9.043  0.1590  0.0266 -0.0708
  192loPI   C3A 3065  15.007  16.812   8.524  0.5026  0.0644  0.1335
  192loPI   C4A 3066  14.723  16.661   8.290 -0.2388 -0.1279 -0.1326
  192loPI   C5A 3067  14.492  16.436   7.982  0.2442 -0.0222 -0.1756
  192loPI   C6A 3068  14.167  16.384   7.607  0.2632 -0.1993  0.0695
  192loPI   C1B 3069  15.453  17.416   9.014  0.0080 -0.2502  0.1376
  192loPI   C2B 3070  15.540  17.211   8.675 -0.1839 -0.0827  0.0926
  192loPI   C3B 3071  15.524  17.066   8.315  0.2128 -0.3749  0.3195
  192loPI   C4B 3072  15.242  17.334   8.077  0.4928 -0.1019  0.2071
  193loPI    C1 3073   2.698   0.927   9.950  0.1828 -0.0563 -0.0988
  193loPI    C2 3074   2.629   0.625  10.202  0.0491 -0.0385 -0.1136
  193loPI    C3 3075   2.929   0.880  10.273 -0.0425  0.0184  0.0752
  193loPI   PO4 3076   2.704   0.850   9.617 -0.1447  0.2849  0.1807
  193loPI   GL1 3077   2.781   1.010   9.240 -0.2773 -0.0953  0.3006
  193loPI   GL2 3078   2.575   1.127   9.084 -0.0129  0.0561 -0.1252
  193loPI   C1A 3079   3.100   0.891   8.931 -0.3650  0.1243 -0.0468
  193loPI   C2A 3080   3.075   0.755   8.512 -0.0221 -0.4175  0.6127
  193loPI   C3A 3081   3.064   0.829   8.165 -0.0955  0.0866 -0.2165
  193loPI   C4A 3082   3.120   0.799   7.745  0.1523  0.0654  0.2677
  193loPI   C5A 3083   3.169   1.034   7.300  0.3098 -0.2901  0.1363
  193loPI   C6A 3084   3.512   1.318   7.283  0.1527 -0.3752 -0.1945
  193loPI   C1B 3085   2.584   0.851   8.769 -0.1235  0.3776 -0.1355
  193loPI   C2B 3086   2.619   0.932   8.312  0.1066  0.2587  0.1118
  193loPI   C3B 3087   2.383   0.738   7.946 -0.1568 -0.0068  0.2834
  193loPI   C4B 3088   2.255   0.272   7.739 -0.0718  0.0901 -0.2349
  194loPI    C1 3089  12.747  17.169  10.150 -0.0448  0.0598 -0.1167
  194loPI    C2 3090  12.653  16.823  10.328  0.2030  0.0908  0.0812
  194loPI    C3 3091  12.715  17.151  10.549  0.1702  0.2141 -0.0904
  194loPI   PO4 3092  12.575  17.219   9.957 -0.2861  0.0075 -0.1942
  194loPI   GL1 3093  12.379  17.355   9.542 -0.0984 -0.0477 -0.2448
  194loPI   GL2 3094  12.610  17.041   9.432  0.2530  0.3686 -0.0671
  194loPI   C1A 3095  12.381  17.427   9.075  0.1291 -0.0722  0.5383
  194loPI   C2A 3096  12.243  17.509   8.583  0.0834 -0.0996  0.1136
  194loPI   C3A 3097  12.248  17.298   8.200  0.0968 -0.0933  0.0289
  194loPI   C4A 3098  12.414  17.525   7.794 -0.1693  0.1719  0.0485
  194loPI   C5A 3099  12.828  17.329   7.677 -0.1176  0.3143 -0.0914
  194loPI   C6A 3100  13.022  17.096   7.444  0.0618  0.2748 -0.3086
  194loPI   C1B 3101  12.714  17.021   9.025 -0.4637 -0.1333 -0.0111
  194loPI   C2B 3102  13.028  17.136   8.756  0.0408  0.0663 -0.1474
  194loPI   C3B 3103  13.302  17.228   8.516  0.1848  0.0805  0.3066
  194loPI   C4B 3104  13.736  17.437   8.351  0.0657 -0.1876  0.2532
  195loPI    C1 3105   8.337  13.482  10.429 -0.1969 -0.0710 -0.0635
  195loPI    C2 3106   8.622  13.627  10.669 -0.0251  0.2399 -0.4438
  195loPI    C3 3107   8.373  13.344  10.802  0.1264  0.3349  0.0630
  195loPI   PO4 3108   8.582  13.548  10.103  0.0669 -0.0952 -0.1329
  195loPI   GL1 3109   8.725  13.656   9.684 -0.2309 -0.3161  0.0195
  195loPI   GL2 3110   8.495  13.523   9.473  0.2319  0.0593  0.3762
  195loPI   C1A 3111   8.688  13.962   9.308 -0.1040  0.0605  0.0573
  195loPI   C2A 3112   8.492  13.995   8.899 -0.0449 -0.0490 -0.2583
  195loPI   C3A 3113   8.577  14.095   8.584  0.2301 -0.0732  0.1077
  195loPI   C4A 3114   8.427  14.512   8.311  0.0297 -0.0935  0.4923
  195loPI   C5A 3115   8.201  14.689   8.014  0.0515 -0.0400 -0.0641
  195loPI   C6A 3116   7.974  14.871   7.661  0.1366  0.0371  0.3264
  195loPI   C1B 3117   8.575  13.516   9.042  0.3216 -0.0615 -0.1316
  195loPI   C2B 3118   8.554  13.582   8.628 -0.0424  0.1124  0.3885
  195loPI   C3B 3119   8.483  13.547   8.161  0.0097  0.0355  0.0634
  195loPI   C4B 3120   8.309  13.729   7.785  0.0354 -0.0731  0.1075
  196loPI    C1 3121   4.322  17.453   9.915  0.0402  0.1073  0.0006
  196loPI    C2 3122   4.100  17.702  10.136 -0.1651 -0.1187  0.0535
  196loPI    C3 3123   4.332  17.428  10.314 -0.0136 -0.0300 -0.0058
  196loPI   PO4 3124   4.186  17.307   9.749  0.2611 -0.0695  0.1269
  196loPI   GL1 3125   4.170  17.161   9.319 -0.0824 -0.1309  0.0668
  196loPI   GL2 3126   4.399  16.913   9.221 -0.3123 -0.2010 -0.0067
  196loPI   C1A 3127   3.942  16.916   9.071  0.0114 -0.0313 -0.3351
  196loPI   C2A 3128   4.054  16.724   8.820  0.0534  0.2814  0.0453
  196loPI   C3A 3129   4.337  16.553   8.520  0.1948 -0.0209  0.1539
  196loPI   C4A 3130   4.334  16.453   8.042  0.0967  0.0051 -0.0487
  196loPI   C5A 3131   4.375  16.773   7.687 -0.2274 -0.0808 -0.1457
  196loPI   C6A 3132   4.556  16.751   7.306  0.0011 -0.2133 -0.0643
  196loPI   C1B 3133   4.355  17.090   8.787  0.3524 -0.1651 -0.0500
  196loPI   C2B 3134   4.454  17.060   8.420 -0.0713 -0.0151 -0.0657
  196loPI   C3B 3135   4.139  17.141   8.035 -0.1586  0.2280 -0.1935
  196loPI   C4B 3136   3.865  17.082   7.697  0.1940  0.3293  0.0521
  197loPI    C1 3137   0.380   8.874   9.500 -0.2058  0.1812  0.1705
  197loPI    C2 3138   0.518   8.908   9.874 -0.1969  0.2228  0.1634
  197loPI    C3 3139   0.196   8.683   9.799 -0.1618  0.1644  0.1869
  197loPI   PO4 3140   0.306   9.051   9.365 -0.0855 -0.2819 -0.0028
  197loPI   GL1 3141   0.384   9.372   8.913 -0.2535  0.3779 -0.1883
  197loPI   GL2 3142   0.438   9.114   8.802  0.2824  0.2562 -0.0939
  197loPI   C1A 3143   0.528   9.470   8.509 -0.4026 -0.2879  0.1376
  197loPI   C2A 3144   0.684   9.413   8.037 -0.0254  0.0950  0.0059
  197loPI   C3A 3145   0.955   9.102   7.764 -0.5325 -0.3601 -0.0094
  197loPI   C4A 3146   1.190   9.212   7.342  0.0893  0.1542 -0.0343
  197loPI   C5A 3147   1.166   9.471   7.018  0.1426 -0.1151 -0.0731
  197loPI   C6A 3148   1.191   9.716   6.714 -0.0706 -0.2665  0.0632
  197loPI   C1B 3149   0.248   8.985   8.514 -0.0883 -0.0828  0.1742
  197loPI   C2B 3150   0.251   8.888   8.090 -0.1560  0.0659  0.1731
  197loPI   C3B 3151   0.424   8.961   7.785 -0.1279  0.0981 -0.1078
  197loPI   C4B 3152   0.537   9.382   7.480 -0.2813  0.1428  0.2736
  198loPI    C1 3153   6.470   6.335   9.448 -0.0526 -0.1473  0.0565
  198loPI    C2 3154   6.358   6.013   9.656 -0.0539 -0.0225  0.2516
  198loPI    C3 3155   6.490   6.339   9.847  0.1943  0.0015  0.0452
  198loPI   PO4 3156   6.472   6.188   9.162 -0.2169 -0.0916 -0.2188
  198loPI   GL1 3157   6.569   6.075   8.688 -0.0761  0.0935 -0.1329
  198loPI   GL2 3158   6.530   6.446   8.694  0.3571  0.2986  0.1354
  198loPI   C1A 3159   6.964   6.191   8.569 -0.4006  0.0716  0.4046
  198loPI   C2A 3160   7.126   6.216   8.200 -0.0288 -0.2650 -0.2918
  198loPI   C3A 3161   7.001   6.335   7.795 -0.2499 -0.0099  0.0644
  198loPI   C4A 3162   7.256   6.516   7.443  0.0432  0.2037  0.0134
  198loPI   C5A 3163   7.576   6.747   7.248  0.1285 -0.0436 -0.0595
  198loPI   C6A 3164   8.016   6.720   7.373 -0.0993  0.3109  0.0273
  198loPI   C1B 3165   6.558   6.356   8.321 -0.2122  0.3023 -0.0251
  198loPI   C2B 3166   6.665   6.065   8.131  0.0087 -0.1012 -0.2244
  198loPI   C3B 3167   6.906   5.638   7.832 -0.0305 -0.2544 -0.0260
  198loPI   C4B 3168   7.313   5.553   7.977 -0.1347 -0.1722 -0.0557
  199loPI    C1 3169  19.276   5.950   9.490 -0.1735  0.0482 -0.2455
  199loPI    C2 3170  18.956   6.168   9.589 -0.0940  0.0886 -0.0719
  199loPI    C3 3171  19.202   6.035   9.874 -0.0985 -0.1633 -0.1832
  199loPI   PO4 3172  19.393   6.082   9.182  0.0764  0.0738  0.0542
  199loPI   GL1 3173  19.592   6.015   8.755  0.1733  0.5852  0.1874
  199loPI   GL2 3174  19.410   6.311   8.755  0.2689  0.2533  0.1919
  199loPI   C1A 3175  19.545   5.678   8.436  0.0040 -0.0761  0.1369
  199loPI   C2A 3176  19.325   5.430   8.124  0.1965  0.0868  0.1323
  199loPI   C3A 3177  19.474   5.515   7.762  0.0101 -0.2569  0.0889
  199loPI   C4A 3178  19.482   5.681   7.462 -0.0084  0.0948  0.0189
  199loPI   C5A 3179  19.135   5.895   7.438  0.0509  0.0027  0.2285
  199loPI   C6A 3180  18.823   6.069   7.515 -0.0896 -0.0564 -0.3233
  199loPI   C1B 3181  19.401   6.487   8.378 -0.1140  0.0650 -0.1373
  199loPI   C2B 3182  19.441   6.530   8.003  0.0049  0.1055  0.1506
  199loPI   C3B 3183  19.596   6.723   7.619 -0.1333 -0.3582 -0.1344
  199loPI   C4B 3184  19.869   6.461   7.374 -0.2257 -0.0691  0.1816
  200loPI    C1 3185   3.873  14.591   9.858 -0.2214  0.2163 -0.1475
  200loPI    C2 3186   3.666  14.551  10.198 -0.3300  0.0901 -0.2276
  200loPI    C3 3187   4.057  14.467  10.191 -0.3243  0.1073 -0.1309
  200loPI   PO4 3188   3.762  14.479   9.647  0.0152 -0.1769  0.1544
  200loPI   GL1 3189   3.885  14.360   9.333 -0.3540  0.0670  0.2674
  200loPI   GL2 3190   3.939  14.604   9.128  0.0649  0.0144 -0.1214
  200loPI   C1A 3191   3.538  14.330   8.979  0.3384  0.0616  0.0553
  200loPI   C2A 3192   3.452  14.070   8.644 -0.1303 -0.0336 -0.2842
  200loPI   C3A 3193   3.383  14.005   8.229 -0.0167 -0.1742 -0.0888
  200loPI   C4A 3194   3.303  13.890   7.844 -0.0890 -0.0687 -0.0411
  200loPI   C5A 3195   3.307  13.884   7.386 -0.0860 -0.5439  0.1482
  200loPI   C6A 3196   3.595  13.631   7.086 -0.1415  0.0044  0.2075
  200loPI   C1B 3197   4.219  14.431   8.995  0.0792 -0.0808 -0.0708
  200loPI   C2B 3198   4.320  14.223   8.647  0.1989 -0.0179 -0.0808
  200loPI   C3B 3199   4.264  14.254   8.122 -0.1016  0.1753  0.1819
  200loPI   C4B 3200   4.287  14.173   7.678 -0.0859  0.1451 -0.0833
  201loPI    C1 3201  13.622   3.689  10.404 -0.3106 -0.0508 -0.0286
  201loPI    C2 3202  13.820   4.015  10.524 -0.0996 -0.3391  0.4357
  201loPI    C3 3203  13.423   4.029  10.474 -0.0454  0.0906  0.0544
  201loPI   PO4 3204  13.831   3.590  10.223 -0.0833  0.0524  0.0755
  201loPI   GL1 3205  13.795   3.398   9.841 -0.0279  0.2183 -0.0141
  201loPI   GL2 3206  13.751   3.653   9.675  0.1781  0.0001 -0.1563
  201loPI   C1A 3207  14.062   3.471   9.366  0.1720  0.0790 -0.3341
  201loPI   C2A 3208  14.390   3.161   9.171  0.0171  0.2389  0.1632
  201loPI   C3A 3209  14.540   3.047   8.835 -0.1282 -0.1220  0.0277
  201loPI   C4A 3210  14.661   2.904   8.427  0.0938 -0.0595  0.2227
  201loPI   C5A 3211  14.855   2.616   8.221 -0.0800 -0.1949 -0.0340
  201loPI   C6A 3212  15.126   2.265   8.001  0.1192 -0.0967  0.0499
  201loPI   C1B 3213  13.542   3.464   9.391 -0.4286 -0.0259  0.0561
  201loPI   C2B 3214  13.651   3.435   8.926  0.0169 -0.1861 -0.1846
  201loPI   C3B 3215  14.074   3.474   8.782  0.0491 -0.2655 -0.1294
  201loPI   C4B 3216  14.290   3.355   8.499 -0.0734 -0.0154 -0.2598
  202loPI    C1 3217   0.110   5.564   9.314  0.0347 -0.3457 -0.2202
  202loPI    C2 3218   0.305   5.569   8.965 -0.0489 -0.0553 -0.2660
  202loPI    C3 3219   0.439   5.787   9.272 -0.0827 -0.1613 -0.1752
  202loPI   PO4 3220  -0.025   5.300   9.284  0.0727 -0.1022  0.1519
  202loPI   GL1 3221  -0.366   5.307   9.000  0.1303 -0.1330  0.1567
  202loPI   GL2 3222  -0.543   5.160   8.810  0.3479  0.2355 -0.2550
  202loPI   C1A 3223  -0.072   5.274   8.674 -0.1461  0.0729  0.0166
  202loPI   C2A 3224   0.203   5.090   8.462 -0.1121  0.2140 -0.3140
  202loPI   C3A 3225   0.532   5.312   8.241  0.2051 -0.1776  0.0155
  202loPI   C4A 3226   0.590   5.484   7.824 -0.4887 -0.0840 -0.0359
  202loPI   C5A 3227   0.779   5.854   7.646  0.1300  0.2589  0.0917
  202loPI   C6A 3228   0.583   5.938   7.382  0.0468 -0.1105  0.0817
  202loPI   C1B 3229  -0.467   5.094   8.374 -0.0991  0.0467  0.5352
  202loPI   C2B 3230  -0.517   5.185   7.958  0.0512 -0.0388  0.1790
  202loPI   C3B 3231  -0.713   4.999   7.582  0.1846  0.1510  0.0176
  202loPI   C4B 3232  -1.104   5.144   7.393 -0.0271  0.0986 -0.0569
  203loPI    C1 3233  14.075  12.803  10.186  0.0624 -0.0951  0.0171
  203loPI    C2 3234  13.709  12.712  10.318 -0.0295  0.3988  0.1230
  203loPI    C3 3235  14.029  12.616  10.537 -0.0960  0.0398  0.0696
  203loPI   PO4 3236  14.103  12.788   9.994 -0.1147  0.0768  0.0402
  203loPI   GL1 3237  13.815  12.762   9.724  0.0455 -0.1895 -0.1531
  203loPI   GL2 3238  13.928  12.742   9.477  0.0747  0.2342 -0.0080
  203loPI   C1A 3239  13.651  13.135   9.387  0.1214 -0.2781 -0.0045
  203loPI   C2A 3240  13.732  13.464   9.110 -0.1090  0.5408  0.0871
  203loPI   C3A 3241  13.761  13.520   8.681  0.0046 -0.3921 -0.1744
  203loPI   C4A 3242  13.836  13.487   8.390  0.2105 -0.1279 -0.0676
  203loPI   C5A 3243  13.732  13.711   8.063  0.0529 -0.2433  0.0232
  203loPI   C6A 3244  13.960  13.951   7.787  0.3992 -0.1837 -0.0225
  203loPI   C1B 3245  14.098  12.536   9.198 -0.1731  0.1463 -0.2912
  203loPI   C2B 3246  14.237  12.598   8.763  0.2421  0.0644  0.0342
  203loPI   C3B 3247  14.365  12.654   8.339 -0.2688 -0.1049 -0.0262
  203loPI   C4B 3248  14.416  12.854   8.016  0.1776 -0.0010 -0.1326
  204loPI    C1 3249   9.578   8.032   9.875  0.1059 -0.2250  0.0417
  204loPI    C2 3250   9.224   8.200   9.957  0.2377  0.0158  0.1277
  204loPI    C3 3251   9.264   7.802   9.967 -0.0748 -0.0236 -0.0615
  204loPI   PO4 3252   9.780   8.135   9.564 -0.2287  0.0904  0.2019
  204loPI   GL1 3253   9.780   7.897   9.199  0.3737  0.2478 -0.0374
  204loPI   GL2 3254   9.535   8.052   9.087 -0.2085  0.0102  0.1423
  204loPI   C1A 3255   9.791   7.718   8.771 -0.0896  0.0859 -0.2699
  204loPI   C2A 3256   9.956   7.522   8.262  0.2240 -0.0220  0.5518
  204loPI   C3A 3257   9.823   7.684   7.900  0.1095  0.2348  0.0002
  204loPI   C4A 3258   9.553   7.442   7.501 -0.2316  0.0522  0.0458
  204loPI   C5A 3259   9.180   7.215   7.226 -0.3822  0.1168 -0.0350
  204loPI   C6A 3260   8.890   7.069   6.978  0.0868 -0.3425  0.0905
  204loPI   C1B 3261   9.487   8.367   8.727  0.0793 -0.1161 -0.2962
  204loPI   C2B 3262   9.597   8.539   8.451  0.1852 -0.2635 -0.2475
  204loPI   C3B 3263   9.592   8.763   8.030  0.0824 -0.1275 -0.4782
  204loPI   C4B 3264   9.665   8.830   7.595  0.0252 -0.2188  0.4862
  205loPI    C1 3265  16.953  14.904   9.562  0.0207 -0.1362 -0.1499
  205loPI    C2 3266  17.209  14.797   9.851  0.0313  0.1565 -0.0482
  205loPI    C3 3267  16.840  14.641   9.842  0.0864  0.0206  0.0254
  205loPI   PO4 3268  16.922  15.141   9.501 -0.0627  0.0822 -0.0170
  205loPI   GL1 3269  16.770  15.353   9.139  0.1691 -0.1183  0.0994
  205loPI   GL2 3270  17.004  15.550   9.150 -0.2576 -0.0716 -0.0004
  205loPI   C1A 3271  16.848  15.287   8.769 -0.0494 -0.4243  0.3779
  205loPI   C2A 3272  17.040  15.542   8.371  0.0646  0.5008  0.1732
  205loPI   C3A 3273  17.356  15.669   8.122  0.1127 -0.0230 -0.1520
  205loPI   C4A 3274  17.570  15.727   7.794  0.0499 -0.0924 -0.2304
  205loPI   C5A 3275  17.564  15.967   7.521 -0.0367 -0.4048  0.0183
  205loPI   C6A 3276  17.294  16.010   7.104  0.0691 -0.4381 -0.0550
  205loPI   C1B 3277  16.995  15.728   8.933  0.1379  0.0127  0.0701
  205loPI   C2B 3278  17.158  16.021   8.640  0.0288 -0.0304 -0.0163
  205loPI   C3B 3279  17.459  16.063   8.428  0.1503 -0.3461  0.2569
  205loPI   C4B 3280  17.377  16.194   8.017 -0.0517  0.1284  0.1933
  206loPI    C1 3281   3.276   3.948   9.155  0.0929 -0.2631 -0.1816
  206loPI    C2 3282   3.642   4.028   9.014  0.0921  0.0555 -0.0128
  206loPI    C3 3283   3.583   3.993   9.408 -0.0814  0.1246 -0.0321
  206loPI   PO4 3284   3.209   3.768   8.939 -0.0827 -0.0707  0.0531
  206loPI   GL1 3285   3.297   3.568   8.506  0.3359  0.3027 -0.1700
  206loPI   GL2 3286   3.499   3.799   8.501  0.0844  0.0185 -0.0611
  206loPI   C1A 3287   3.255   3.357   8.106  0.2187 -0.2258  0.0094
  206loPI   C2A 3288   3.180   3.135   7.749  0.0121 -0.1854 -0.0587
  206loPI   C3A 3289   3.106   3.230   7.311 -0.0628  0.1930  0.5356
  206loPI   C4A 3290   3.155   3.191   6.913  0.0509  0.3965  0.0638
  206loPI   C5A 3291   3.247   3.312   6.451 -0.0089 -0.0898 -0.2721
  206loPI   C6A 3292   3.138   3.598   6.114  0.1684  0.1552 -0.0178
  206loPI   C1B 3293   3.445   3.840   7.996 -0.2136  0.3363 -0.2276
  206loPI   C2B 3294   3.530   3.777   7.551 -0.0061  0.2654 -0.0344
  206loPI   C3B 3295   3.438   3.612   7.200 -0.1193  0.4430 -0.1768
  206loPI   C4B 3296   3.568   3.452   6.761 -0.3071 -0.0963 -0.1382
  207loPI    C1 3297   5.222   5.255   9.336 -0.1496  0.0796  0.0513
  207loPI    C2 3298   5.403   5.601   9.420 -0.0165  0.0340 -0.0440
  207loPI    C3 3299   5.501   5.270   9.622 -0.0253  0.0183 -0.0654
  207loPI   PO4 3300   5.266   5.247   9.086 -0.3971  0.0145  0.0268
  207loPI   GL1 3301   5.254   5.405   8.704 -0.1404 -0.0874  0.3781
  207loPI   GL2 3302   5.579   5.541   8.833  0.1007  0.2896  0.1609
  207loPI   C1A 3303   5.183   5.204   8.362 -0.2020 -0.0408 -0.1390
  207loPI   C2A 3304   5.143   5.356   7.909  0.0774 -0.1360 -0.3701
  207loPI   C3A 3305   5.272   5.657   7.687 -0.2070 -0.1342  0.2035
  207loPI   C4A 3306   5.343   5.740   7.273 -0.1773  0.2507 -0.2021
  207loPI   C5A 3307   5.477   6.082   7.108  0.0734 -0.2711 -0.2409
  207loPI   C6A 3308   5.365   6.541   7.131  0.1768  0.2434  0.3378
  207loPI   C1B 3309   5.711   5.802   8.497  0.0546  0.1124 -0.0259
  207loPI   C2B 3310   5.581   6.010   8.054 -0.5616 -0.1853  0.3326
  207loPI   C3B 3311   5.643   6.097   7.617  0.0918  0.4096 -0.0363
  207loPI   C4B 3312   5.850   6.416   7.255 -0.3410  0.1184 -0.0951
  208loPI    C1 3313  18.091   2.832   9.626  0.1347 -0.2025 -0.1652
  208loPI    C2 3314  18.102   2.808  10.025 -0.1048 -0.1075 -0.1509
  208loPI    C3 3315  18.431   2.730   9.811  0.0446 -0.0894  0.0676
  208loPI   PO4 3316  17.879   2.715   9.565  0.1413  0.2680  0.5512
  208loPI   GL1 3317  17.707   2.485   9.302  0.3483  0.1028  0.2029
  208loPI   GL2 3318  17.389   2.440   9.356 -0.0422 -0.2195  0.0705
  208loPI   C1A 3319  17.846   2.539   8.944 -0.0176  0.2539 -0.1025
  208loPI   C2A 3320  17.914   2.288   8.583 -0.3530  0.0538 -0.0247
  208loPI   C3A 3321  17.553   2.250   8.317  0.4093 -0.2761  0.2985
  208loPI   C4A 3322  17.274   2.503   8.146  0.1836  0.0811 -0.0828
  208loPI   C5A 3323  17.487   2.715   7.709  0.3478  0.1348  0.2082
  208loPI   C6A 3324  17.246   2.783   7.270  0.0628 -0.2550 -0.1213
  208loPI   C1B 3325  17.414   2.450   8.848  0.1606 -0.2265  0.0240
  208loPI   C2B 3326  17.624   2.706   8.452  0.1200  0.1114  0.1955
  208loPI   C3B 3327  17.796   2.625   8.055 -0.0990  0.0648  0.2231
  208loPI   C4B 3328  17.832   2.219   7.763 -0.3012 -0.0387 -0.2071
  209loPI    C1 3329   0.994   5.972   9.247  0.0978 -0.1096  0.0017
  209loPI    C2 3330   0.896   5.728   9.548 -0.0101  0.0652  0.1106
  209loPI    C3 3331   0.791   6.114   9.562 -0.0873  0.0576 -0.1893
  209loPI   PO4 3332   0.998   5.797   9.062  0.4806 -0.3942  0.3349
  209loPI   GL1 3333   0.971   5.594   8.713 -0.2830  0.0785 -0.0157
  209loPI   GL2 3334   0.702   5.682   8.626  0.0946 -0.0820  0.0065
  209loPI   C1A 3335   1.064   5.520   8.284  0.2056 -0.1198 -0.1535
  209loPI   C2A 3336   1.089   5.592   7.893  0.0437 -0.0736 -0.2812
  209loPI   C3A 3337   1.401   5.510   7.595 -0.1016  0.2787  0.0812
  209loPI   C4A 3338   1.761   5.478   7.269 -0.0155 -0.2966 -0.1145
  209loPI   C5A 3339   2.150   5.470   6.996  0.3487  0.2660 -0.1293
  209loPI   C6A 3340   2.228   5.784   6.710  0.2453 -0.0494 -0.0485
  209loPI   C1B 3341   0.660   5.855   8.171 -0.2325  0.0177  0.1113
  209loPI   C2B 3342   0.335   6.006   7.834  0.1160  0.1757 -0.0002
  209loPI   C3B 3343   0.130   6.194   7.685  0.0365 -0.1389  0.0628
  209loPI   C4B 3344   0.120   6.208   7.281 -0.1210  0.0293  0.1277
  210loPI    C1 3345  12.466  10.310   9.785  0.1045  0.0940 -0.0647
  210loPI    C2 3346  12.388  10.035   9.505  0.0667  0.1231 -0.0829
  210loPI    C3 3347  12.088  10.202   9.711  0.0853  0.1918 -0.1112
  210loPI   PO4 3348  12.654  10.601   9.735  0.3611  0.0821 -0.0913
  210loPI   GL1 3349  12.679  10.807   9.435  0.0025  0.2589  0.1018
  210loPI   GL2 3350  12.537  11.127   9.448 -0.0756  0.0042 -0.1874
  210loPI   C1A 3351  12.579  10.788   9.028  0.2656 -0.0172 -0.1286
  210loPI   C2A 3352  12.529  10.775   8.559  0.2842 -0.0894 -0.1283
  210loPI   C3A 3353  12.659  10.678   8.206  0.2811 -0.1069  0.2911
  210loPI   C4A 3354  12.653  10.948   7.803  0.1501  0.1260  0.2036
  210loPI   C5A 3355  12.660  11.177   7.372  0.2015  0.0961 -0.2381
  210loPI   C6A 3356  12.743  11.619   7.161  0.1115  0.1751  0.1561
  210loPI   C1B 3357  12.903  11.296   9.205  0.0332  0.2689 -0.2170
  210loPI   C2B 3358  12.955  11.120   8.878  0.0637 -0.1493  0.1116
  210loPI   C3B 3359  12.951  11.247   8.527 -0.2695 -0.3619 -0.0961
  210loPI   C4B 3360  12.650  11.152   8.255 -0.2244  0.0382 -0.2444
  211loPI    C1 3361   8.691   6.770   9.653 -0.2435  0.1148 -0.1595
  211loPI    C2 3362   8.555   7.104   9.826  0.0693  0.1510  0.0239
  211loPI    C3 3363   8.933   6.987   9.886  0.0579 -0.0645 -0.2995
  211loPI   PO4 3364   8.549   6.746   9.445  0.4953  0.0529  0.2029
  211loPI   GL1 3365   8.488   6.886   9.009 -0.1231 -0.1532  0.0731
  211loPI   GL2 3366   8.192   7.088   9.018  0.0505 -0.1802  0.4027
  211loPI   C1A 3367   8.452   6.486   8.709  0.2351  0.2360  0.0083
  211loPI   C2A 3368   8.355   6.222   8.388 -0.0898  0.3159  0.1146
  211loPI   C3A 3369   8.104   6.403   8.049 -0.4384 -0.1199  0.3042
  211loPI   C4A 3370   8.121   6.330   7.706 -0.1356  0.0375 -0.2206
  211loPI   C5A 3371   7.740   6.265   7.541 -0.1062  0.0674 -0.0004
  211loPI   C6A 3372   7.414   5.997   7.769  0.1621  0.0253 -0.3900
  211loPI   C1B 3373   7.972   7.083   8.521 -0.0931  0.0852 -0.0735
  211loPI   C2B 3374   7.964   7.047   8.116  0.2466  0.3260  0.0933
  211loPI   C3B 3375   7.867   7.224   7.637 -0.0439 -0.0188  0.1010
  211loPI   C4B 3376   7.807   7.353   7.241 -0.3066 -0.0998 -0.2426
  212loPI    C1 3377   4.727   7.553   9.040 -0.3276  0.0129  0.1024
  212loPI    C2 3378   4.890   7.688   9.380  0.2543  0.3141 -0.2787
  212loPI    C3 3379   4.934   7.304   9.275 -0.0846  0.1749  0.0638
  212loPI   PO4 3380   4.752   7.789   8.896  0.0459  0.2094 -0.0667
  212loPI   GL1 3381   4.796   7.913   8.627  0.2231 -0.3626 -0.1364
  212loPI   GL2 3382   4.818   8.223   8.555  0.0590  0.0875 -0.1484
  212loPI   C1A 3383   4.742   7.733   8.208  0.0629 -0.0551  0.0115
  212loPI   C2A 3384   4.599   7.760   7.759  0.1159  0.0745 -0.1695
  212loPI   C3A 3385   4.814   7.535   7.444  0.1393 -0.0654 -0.0093
  212loPI   C4A 3386   5.222   7.644   7.331 -0.3010 -0.2625  0.2908
  212loPI   C5A 3387   5.464   8.021   7.287  0.0226  0.1700  0.0294
  212loPI   C6A 3388   5.488   8.283   6.950 -0.1169  0.0107 -0.1565
  212loPI   C1B 3389   4.678   8.177   8.085 -0.1392 -0.0562  0.0269
  212loPI   C2B 3390   4.754   8.317   7.670 -0.2414 -0.4243 -0.3063
  212loPI   C3B 3391   4.890   8.082   7.279 -0.0412 -0.3037  0.0069
  212loPI   C4B 3392   4.811   7.659   6.975 -0.1457 -0.1389 -0.2237
  213loPI    C1 3393   3.564   0.800   9.858 -0.0956 -0.0610 -0.0168
  213loPI    C2 3394   3.851   0.716  10.122 -0.0972  0.1437  0.0515
  213loPI    C3 3395   3.467   0.687  10.229 -0.1000  0.0530  0.0172
  213loPI   PO4 3396   3.631   0.722   9.696  0.0209  0.1325 -0.0187
  213loPI   GL1 3397   3.581   0.877   9.298 -0.0308 -0.2307 -0.1506
  213loPI   GL2 3398   3.886   0.962   9.367  0.5031 -0.0368 -0.2101
  213loPI   C1A 3399   3.568   0.880   8.808 -0.1029 -0.1233 -0.0488
  213loPI   C2A 3400   3.594   0.880   8.446 -0.4558 -0.1813  0.2080
  213loPI   C3A 3401   3.599   0.808   8.068 -0.1494 -0.1629  0.2793
  213loPI   C4A 3402   3.668   0.900   7.642  0.2471  0.0549 -0.1992
  213loPI   C5A 3403   3.661   0.893   7.206  0.1034  0.1652 -0.2803
  213loPI   C6A 3404   3.434   1.099   6.795 -0.0952 -0.2162  0.2183
  213loPI   C1B 3405   4.099   0.931   8.946  0.3291 -0.1505  0.0660
  213loPI   C2B 3406   4.081   1.029   8.444  0.0775  0.2056  0.1000
  213loPI   C3B 3407   4.444   0.941   8.183  0.0733 -0.0010 -0.3742
  213loPI   C4B 3408   4.615   0.779   7.752 -0.2131 -0.1113 -0.1736
  214loPI    C1 3409  11.011  18.735  10.115  0.0883 -0.0241  0.0320
  214loPI    C2 3410  11.177  18.577  10.443 -0.2138 -0.1332  0.1371
  214loPI    C3 3411  10.841  18.421  10.295 -0.1328 -0.0236 -0.1713
  214loPI   PO4 3412  11.177  18.671   9.892  0.0952  0.4836 -0.1709
  214loPI   GL1 3413  10.995  18.471   9.555  0.0360  0.0253  0.0247
  214loPI   GL2 3414  10.714  18.472   9.771 -0.1732 -0.1425 -0.1023
  214loPI   C1A 3415  11.172  18.675   9.235 -0.0710 -0.3264 -0.1518
  214loPI   C2A 3416  11.272  18.762   8.779  0.1734 -0.0025 -0.1316
  214loPI   C3A 3417  11.369  18.404   8.466  0.1854  0.1586 -0.0747
  214loPI   C4A 3418  11.483  18.196   8.088  0.0096  0.2473 -0.2150
  214loPI   C5A 3419  11.497  18.179   7.681  0.2295 -0.0783  0.2548
  214loPI   C6A 3420  11.569  18.503   7.362  0.0184 -0.0475 -0.0254
  214loPI   C1B 3421  10.364  18.510   9.585  0.2125 -0.3050 -0.1610
  214loPI   C2B 3422  10.225  18.801   9.287  0.4810  0.1472  0.0692
  214loPI   C3B 3423  10.262  19.006   8.930 -0.1858  0.1753 -0.4789
  214loPI   C4B 3424  10.251  18.971   8.451 -0.2311  0.0240 -0.0693
  215loPI    C1 3425  17.366  16.017  10.039  0.2212 -0.1994  0.0594
  215loPI    C2 3426  17.178  16.049  10.391 -0.0013  0.0151 -0.0762
  215loPI    C3 3427  17.510  16.261  10.321 -0.0374  0.0812 -0.0466
  215loPI   PO4 3428  17.181  16.020   9.828  0.1562 -0.2231  0.3554
  215loPI   GL1 3429  17.142  16.317   9.610  0.4989  0.0542 -0.0056
  215loPI   GL2 3430  17.227  16.599   9.535  0.2629  0.2241  0.0075
  215loPI   C1A 3431  17.166  16.280   9.050  0.0380  0.2672  0.0908
  215loPI   C2A 3432  17.038  16.553   8.668  0.1737 -0.1625 -0.1452
  215loPI   C3A 3433  16.930  16.346   8.222 -0.1074 -0.0208 -0.3424
  215loPI   C4A 3434  17.107  16.664   7.860  0.2744 -0.0421 -0.0036
  215loPI   C5A 3435  17.310  16.957   7.644  0.0643  0.0258  0.3120
  215loPI   C6A 3436  17.645  17.243   7.574  0.1178  0.2046 -0.1812
  215loPI   C1B 3437  17.424  16.663   9.208 -0.0999 -0.1333  0.0812
  215loPI   C2B 3438  17.670  17.033   9.061 -0.2820  0.2071 -0.2302
  215loPI   C3B 3439  17.831  17.191   8.693 -0.2019 -0.0782 -0.0010
  215loPI   C4B 3440  18.111  17.425   8.295 -0.1972  0.1553  0.0319
  216loPI    C1 3441  13.734   4.459  10.310 -0.1448  0.2144 -0.1811
  216loPI    C2 3442  13.921   4.650  10.608 -0.2047 -0.1079  0.0690
  216loPI    C3 3443  13.573   4.465  10.676 -0.1624 -0.2822 -0.1743
  216loPI   PO4 3444  13.742   4.575  10.164  0.4773 -0.2293 -0.1152
  216loPI   GL1 3445  13.651   4.377   9.775 -0.0556 -0.0464 -0.1956
  216loPI   GL2 3446  13.443   4.633   9.681 -0.2135 -0.2380 -0.0355
  216loPI   C1A 3447  13.660   4.066   9.487  0.1012  0.2111  0.0571
  216loPI   C2A 3448  13.808   3.849   9.157 -0.1185 -0.0344  0.0393
  216loPI   C3A 3449  13.834   3.930   8.753  0.1910 -0.0500  0.1145
  216loPI   C4A 3450  13.868   3.627   8.369 -0.0931  0.3374  0.2028
  216loPI   C5A 3451  14.037   3.411   8.065 -0.0611 -0.1176 -0.2571
  216loPI   C6A 3452  13.824   2.997   7.872 -0.1073  0.0726  0.2557
  216loPI   C1B 3453  13.192   4.223   9.569 -0.1726  0.1741 -0.0651
  216loPI   C2B 3454  13.144   3.981   9.272 -0.0772  0.0226  0.0089
  216loPI   C3B 3455  13.349   3.882   8.921 -0.1830  0.2922 -0.2097
  216loPI   C4B 3456  13.420   3.769   8.544  0.0725 -0.4172 -0.2287
  217loPI    C1 3457   0.166   9.653   9.494 -0.0223 -0.0181 -0.0603
  217loPI    C2 3458   0.385   9.400   9.714  0.0402  0.0032 -0.0978
  217loPI    C3 3459   0.036   9.536   9.854 -0.0147 -0.1381 -0.0961
  217loPI   PO4 3460   0.177   9.575   9.275  0.0283 -0.0476 -0.1622
  217loPI   GL1 3461  -0.114   9.292   9.154  0.0516 -0.0263  0.2238
  217loPI   GL2 3462  -0.309   9.562   9.041  0.0024  0.4050  0.0442
  217loPI   C1A 3463  -0.121   9.112   8.794  0.0236  0.3487  0.1373
  217loPI   C2A 3464  -0.317   9.043   8.381 -0.1005  0.0848  0.1778
  217loPI   C3A 3465  -0.273   9.066   7.930 -0.0447 -0.2340 -0.0362
  217loPI   C4A 3466  -0.558   9.039   7.520 -0.3722 -0.2811  0.1284
  217loPI   C5A 3467  -0.657   8.867   7.054 -0.3679 -0.0926 -0.0016
  217loPI   C6A 3468  -0.617   8.519   6.782 -0.1674 -0.0604 -0.1017
  217loPI   C1B 3469  -0.482   9.472   8.598  0.0560  0.0477 -0.1380
  217loPI   C2B 3470  -0.655   9.380   8.188  0.0326 -0.3722 -0.3824
  217loPI   C3B 3471  -0.836   9.163   7.973  0.2168  0.4216  0.0000
  217loPI   C4B 3472  -1.143   8.852   8.071  0.3062 -0.0321  0.0499
  218loPI    C1 3473  11.947   1.141  10.598  0.0853 -0.2082 -0.0401
  218loPI    C2 3474  12.288   1.318  10.711 -0.0213 -0.0222 -0.0062
  218loPI    C3 3475  11.945   1.404  10.899 -0.1044 -0.1329 -0.1054
  218loPI   PO4 3476  12.030   1.151  10.301 -0.2083 -0.0448 -0.1755
  218loPI   GL1 3477  12.095   1.244   9.918 -0.1076 -0.0905  0.0335
  218loPI   GL2 3478  11.875   0.964   9.914 -0.0136 -0.0311  0.0996
  218loPI   C1A 3479  12.388   1.144   9.614 -0.0085 -0.2981  0.0457
  218loPI   C2A 3480  12.326   1.055   9.253 -0.1015  0.0320 -0.5296
  218loPI   C3A 3481  12.313   0.963   8.768  0.0928  0.0191  0.0859
  218loPI   C4A 3482  12.077   0.859   8.435 -0.0520 -0.0042  0.2007
  218loPI   C5A 3483  12.158   0.584   8.102 -0.2600  0.0275  0.0081
  218loPI   C6A 3484  12.175   0.247   7.763 -0.5475  0.0516 -0.1845
  218loPI   C1B 3485  11.930   0.822   9.483 -0.2979 -0.5134 -0.2688
  218loPI   C2B 3486  11.785   1.030   9.017 -0.1063  0.0142  0.0244
  218loPI   C3B 3487  11.475   1.261   9.122 -0.0565 -0.4543  0.0182
  218loPI   C4B 3488  11.273   1.636   9.339  0.0857 -0.1305 -0.3158
  219loPI    C1 3489  12.095  15.855  10.596 -0.1973  0.0202  0.2405
  219loPI    C2 3490  11.963  16.213  10.716 -0.3399 -0.0180  0.1992
  219loPI    C3 3491  11.929  15.896  10.957 -0.5415 -0.0755  0.0971
  219loPI   PO4 3492  12.058  15.878  10.357  0.0916 -0.2271  0.1764
  219loPI   GL1 3493  12.322  15.818   9.971  0.2087 -0.2025 -0.2146
  219loPI   GL2 3494  12.224  15.567   9.992 -0.1209 -0.0116 -0.0784
  219loPI   C1A 3495  12.418  15.482   9.544 -0.2954 -0.0817 -0.0682
  219loPI   C2A 3496  12.467  15.324   9.122  0.1050 -0.1540  0.1338
  219loPI   C3A 3497  12.505  15.342   8.721  0.0494 -0.2688  0.2090
  219loPI   C4A 3498  12.619  15.326   8.264  0.0356  0.1422  0.4734
  219loPI   C5A 3499  12.629  15.392   7.818  0.0614  0.2230  0.2138
  219loPI   C6A 3500  12.660  15.014   7.597 -0.0387 -0.1659  0.1446
  219loPI   C1B 3501  11.962  15.662   9.673  0.0042  0.0444 -0.0460
  219loPI   C2B 3502  11.862  15.854   9.286 -0.2523 -0.0816  0.0253
  219loPI   C3B 3503  12.140  16.204   9.037 -0.1298 -0.0492  0.4256
  219loPI   C4B 3504  12.072  16.324   8.689 -0.1134 -0.1164 -0.0375
  220loPI    C1 3505   4.700  14.095   9.812 -0.1423 -0.0904  0.2868
  220loPI    C2 3506   4.898  14.208   9.484 -0.2933 -0.1059  0.1891
  220loPI    C3 3507   5.024  14.326   9.844 -0.1357 -0.0757  0.1249
  220loPI   PO4 3508   4.616  13.907   9.729 -0.0094  0.0401  0.3132
  220loPI   GL1 3509   4.652  13.661   9.337  0.1823  0.0739 -0.3540
  220loPI   GL2 3510   4.742  13.503   9.403 -0.3273  0.1473 -0.4029
  220loPI   C1A 3511   4.816  13.911   9.047  0.3887  0.0299  0.1319
  220loPI   C2A 3512   4.815  13.943   8.561 -0.0157  0.0461 -0.3376
  220loPI   C3A 3513   4.700  13.978   8.105 -0.0159 -0.2066  0.0751
  220loPI   C4A 3514   4.686  14.391   7.841 -0.0188  0.0852 -0.3748
  220loPI   C5A 3515   5.084  14.589   7.590  0.1638  0.1721 -0.1354
  220loPI   C6A 3516   5.480  14.458   7.551  0.1300  0.3923  0.0958
  220loPI   C1B 3517   4.866  13.410   8.981  0.1406  0.0059 -0.0991
  220loPI   C2B 3518   5.051  13.429   8.558  0.0741 -0.1221  0.1817
  220loPI   C3B 3519   5.128  13.518   8.183  0.2324 -0.4257 -0.2302
  220loPI   C4B 3520   5.288  13.550   7.717  0.3578 -0.2577 -0.1343
  221loPI    C1 3521  17.625  17.460   9.795  0.0700 -0.0279  0.0108
  221loPI    C2 3522  17.424  17.460  10.140  0.2153 -0.2072  0.0972
  221loPI    C3 3523  17.692  17.174  10.066  0.3269 -0.0580 -0.0823
  221loPI   PO4 3524  17.329  17.636   9.646  0.1360 -0.1463  0.0934
  221loPI   GL1 3525  17.137  18.036   9.546 -0.1998  0.1034  0.0884
  221loPI   GL2 3526  16.905  18.118   9.611 -0.1607  0.3154 -0.0007
  221loPI   C1A 3527  17.305  18.070   9.141 -0.0458  0.0223  0.1600
  221loPI   C2A 3528  17.293  17.857   8.851 -0.2201 -0.0754 -0.0906
  221loPI   C3A 3529  17.458  17.450   8.601 -0.1543 -0.2725 -0.0071
  221loPI   C4A 3530  17.653  17.202   8.199 -0.0080 -0.1993 -0.1179
  221loPI   C5A 3531  18.006  16.971   8.123 -0.1616  0.2005 -0.2486
  221loPI   C6A 3532  18.439  16.866   8.101  0.0308  0.1878  0.0057
  221loPI   C1B 3533  16.808  18.348   9.223  0.1805  0.1464  0.2277
  221loPI   C2B 3534  16.511  18.349   8.840  0.1353 -0.1980 -0.0447
  221loPI   C3B 3535  16.733  18.482   8.559  0.1415 -0.1075 -0.0661
  221loPI   C4B 3536  16.909  18.322   8.263  0.1748 -0.2378 -0.5292
  222loPI    C1 3537  18.678   0.529  10.306 -0.0365 -0.0174 -0.1551
  222loPI    C2 3538  18.897   0.322  10.569 -0.0862  0.1462  0.0174
  222loPI    C3 3539  18.917   0.721  10.562 -0.3726  0.1626  0.0295
  222loPI   PO4 3540  18.760   0.526  10.021 -0.0340 -0.1216 -0.2054
  222loPI   GL1 3541  18.526   0.545   9.609  0.2113  0.0336  0.0691
  222loPI   GL2 3542  18.824   0.336   9.587 -0.1760 -0.2029  0.2717
  222loPI   C1A 3543  18.130   0.265   9.361 -0.1089 -0.1040 -0.1336
  222loPI   C2A 3544  17.973   0.106   9.062 -0.0528 -0.3102  0.1590
  222loPI   C3A 3545  17.879   0.002   8.714 -0.1462 -0.0938  0.1117
  222loPI   C4A 3546  17.980  -0.255   8.290 -0.1339  0.0574  0.0654
  222loPI   C5A 3547  18.049  -0.029   7.836  0.1587 -0.0880 -0.0207
  222loPI   C6A 3548  18.311   0.096   7.381 -0.1216  0.1624  0.0637
  222loPI   C1B 3549  18.655   0.486   9.103 -0.1310 -0.2463  0.3045
  222loPI   C2B 3550  18.649   0.631   8.609 -0.1177  0.1302 -0.1606
  222loPI   C3B 3551  18.486   0.768   8.186 -0.0838 -0.0122  0.2418
  222loPI   C4B 3552  18.382   1.060   8.180 -0.1825  0.2034 -0.0095
  223loPI    C1 3553   9.243  11.653  10.156  0.1391  0.0803  0.2688
  223loPI    C2 3554   9.358  11.270  10.170 -0.1624 -0.0139  0.2464
  223loPI    C3 3555   8.985  11.363  10.058 -0.2025  0.2656  0.5938
  223loPI   PO4 3556   9.467  11.779  10.041  0.0211  0.2173  0.1413
  223loPI   GL1 3557   9.410  11.875   9.671 -0.1824  0.0123  0.2152
  223loPI   GL2 3558   9.705  11.801   9.571  0.3554 -0.1152  0.1546
  223loPI   C1A 3559   9.443  12.016   9.192 -0.0648 -0.1006 -0.1017
  223loPI   C2A 3560   9.524  12.152   8.737  0.1410  0.2518  0.2125
  223loPI   C3A 3561   9.466  11.880   8.372  0.2404  0.0273  0.1440
  223loPI   C4A 3562   9.804  11.701   8.101 -0.4205  0.1088 -0.2617
  223loPI   C5A 3563   9.989  11.649   7.582 -0.0183 -0.1516 -0.0068
  223loPI   C6A 3564  10.056  12.106   7.478 -0.1833  0.1844  0.0387
  223loPI   C1B 3565   9.935  11.845   9.189 -0.2006 -0.0499 -0.4454
  223loPI   C2B 3566   9.926  11.884   8.719  0.2009  0.2717 -0.1554
  223loPI   C3B 3567  10.153  11.885   8.328  0.0958  0.3552 -0.0545
  223loPI   C4B 3568  10.241  11.897   7.923  0.1233  0.1433  0.0363
  224loPI    C1 3569   3.331   9.432   9.220 -0.1601  0.0042 -0.0404
  224loPI    C2 3570   3.696   9.491   9.066 -0.1949  0.1740 -0.0602
  224loPI    C3 3571   3.653   9.414   9.456 -0.1601  0.4717  0.0048
  224loPI   PO4 3572   3.091   9.606   9.074 -0.2208  0.0364  0.1315
  224loPI   GL1 3573   3.072   9.941   8.762 -0.0437 -0.0915  0.1128
  224loPI   GL2 3574   3.438   9.690   8.667 -0.1108 -0.0575  0.0934
  224loPI   C1A 3575   3.130  10.046   8.319 -0.0404  0.1242  0.0291
  224loPI   C2A 3576   3.067  10.171   7.928  0.0937  0.2042  0.5691
  224loPI   C3A 3577   3.383  10.226   7.643 -0.0765  0.2470 -0.3558
  224loPI   C4A 3578   3.605  10.232   7.229  0.1855 -0.1096  0.0892
  224loPI   C5A 3579   3.946  10.225   7.050  0.0064 -0.2301 -0.0834
  224loPI   C6A 3580   4.235   9.888   6.886 -0.0748 -0.1890 -0.0224
  224loPI   C1B 3581   3.182   9.527   8.324 -0.2138 -0.1608 -0.2180
  224loPI   C2B 3582   3.193   9.333   7.971  0.3278  0.0785  0.0397
  224loPI   C3B 3583   3.125   8.918   7.739  0.1858  0.0493  0.1283
  224loPI   C4B 3584   3.240   8.525   7.641  0.2228 -0.1379 -0.1996
  225loPI    C1 3585   1.714   0.381   9.755 -0.3589 -0.1862 -0.0563
  225loPI    C2 3586   2.055   0.181   9.698 -0.2918 -0.1161  0.0944
  225loPI    C3 3587   1.925   0.254  10.070 -0.3186  0.1137  0.0416
  225loPI   PO4 3588   1.530   0.292   9.526  0.5630 -0.1033 -0.0062
  225loPI   GL1 3589   1.497  -0.001   9.260  0.0480  0.1169 -0.0569
  225loPI   GL2 3590   1.774  -0.170   9.382  0.1580 -0.0853 -0.0656
  225loPI   C1A 3591   1.479   0.268   8.910  0.0601 -0.2120  0.1844
  225loPI   C2A 3592   1.600   0.567   8.463 -0.3705 -0.0073  0.2376
  225loPI   C3A 3593   1.622   0.776   8.049 -0.3783  0.2107 -0.0529
  225loPI   C4A 3594   1.554   0.606   7.645 -0.3499 -0.0516 -0.2077
  225loPI   C5A 3595   1.690   0.457   7.296 -0.2939 -0.1245 -0.2817
  225loPI   C6A 3596   1.480   0.434   6.909  0.0909 -0.1605 -0.3575
  225loPI   C1B 3597   2.018  -0.405   9.086 -0.0633 -0.0172  0.0990
  225loPI   C2B 3598   2.021  -0.264   8.634 -0.2706 -0.2965 -0.1350
  225loPI   C3B 3599   1.775  -0.436   8.290 -0.0592 -0.2112 -0.0505
  225loPI   C4B 3600   1.645  -0.474   7.870 -0.3044 -0.0109 -0.4860
  226loPI    C1 3601  18.969  13.944   9.275  0.1290  0.0537 -0.1410
  226loPI    C2 3602  18.968  13.600   9.480 -0.0934  0.0527 -0.1422
  226loPI    C3 3603  19.300  13.718   9.291 -0.0265 -0.1801 -0.1738
  226loPI   PO4 3604  18.712  13.893   9.098 -0.0855 -0.0788  0.2438
  226loPI   GL1 3605  18.799  13.777   8.650 -0.0815  0.0303  0.1324
  226loPI   GL2 3606  18.450  13.603   8.634  0.2520  0.2783 -0.3058
  226loPI   C1A 3607  18.841  13.597   8.275 -0.0753 -0.2118  0.0839
  226loPI   C2A 3608  18.761  13.433   7.936 -0.1846  0.0595  0.1574
  226loPI   C3A 3609  18.671  13.410   7.453 -0.2241 -0.0031  0.1697
  226loPI   C4A 3610  18.395  13.525   7.245 -0.0871 -0.2566 -0.1757
  226loPI   C5A 3611  18.122  13.168   7.263  0.2765 -0.0714  0.3047
  226loPI   C6A 3612  17.730  12.831   7.348 -0.1430 -0.1525  0.0864
  226loPI   C1B 3613  18.315  13.466   8.221  0.1436 -0.0782  0.0678
  226loPI   C2B 3614  18.374  13.199   7.747  0.0635  0.1381  0.0633
  226loPI   C3B 3615  18.289  12.904   7.638  0.1672 -0.2917 -0.0888
  226loPI   C4B 3616  18.315  12.622   7.419  0.0523 -0.4154  0.0770
  227loPI    C1 3617  13.456   0.667  10.779  0.1898 -0.2246 -0.1118
  227loPI    C2 3618  13.733   0.914  10.927  0.0108 -0.2608  0.2966
  227loPI    C3 3619  13.358   0.931  11.063 -0.2158 -0.1535 -0.3107
  227loPI   PO4 3620  13.561   0.707  10.486 -0.0577 -0.0380 -0.2139
  227loPI   GL1 3621  13.430   0.462  10.173 -0.0901  0.1797  0.0649
  227loPI   GL2 3622  13.532   0.705   9.889  0.0457  0.2461  0.0614
  227loPI   C1A 3623  13.599   0.126   9.799 -0.4027 -0.0345 -0.1007
  227loPI   C2A 3624  13.591   0.231   9.408  0.0172 -0.2893  0.0443
  227loPI   C3A 3625  13.683   0.230   8.974 -0.1642 -0.2200 -0.0116
  227loPI   C4A 3626  13.731   0.112   8.587  0.0970  0.2047  0.2029
  227loPI   C5A 3627  13.635   0.009   8.233  0.2103 -0.1521 -0.1028
  227loPI   C6A 3628  13.796   0.090   7.853 -0.0516 -0.0488  0.0130
  227loPI   C1B 3629  13.764   0.957   9.497  0.5576  0.3040  0.0711
  227loPI   C2B 3630  13.838   1.127   9.098  0.1787  0.3210  0.0373
  227loPI   C3B 3631  13.706   1.399   8.788 -0.1370 -0.2412 -0.2324
  227loPI   C4B 3632  13.846   1.667   8.492 -0.1449 -0.2312  0.2566
  228loPI    C1 3633   9.094  16.852  10.460 -0.0350 -0.1599 -0.1474
  228loPI    C2 3634   8.748  17.012  10.580  0.0177 -0.0256 -0.1733
  228loPI    C3 3635   9.034  16.931  10.848 -0.0306 -0.1296 -0.1529
  228loPI   PO4 3636   9.073  16.936  10.161  0.3225 -0.1582  0.1601
  228loPI   GL1 3637   8.992  17.325   9.779  0.0417 -0.4817 -0.1092
  228loPI   GL2 3638   9.254  17.086   9.638  0.1173 -0.0307  0.2660
  228loPI   C1A 3639   8.888  17.327   9.347 -0.2236  0.3478  0.0018
  228loPI   C2A 3640   8.799  17.358   8.910 -0.1491 -0.0516 -0.1500
  228loPI   C3A 3641   8.931  17.364   8.553 -0.1282  0.2488 -0.1417
  228loPI   C4A 3642   9.228  17.283   8.163  0.1157 -0.1926 -0.0662
  228loPI   C5A 3643   9.522  17.340   7.855 -0.1356  0.0436  0.1036
  228loPI   C6A 3644   9.631  17.334   7.454 -0.0066 -0.1249 -0.2830
  228loPI   C1B 3645   9.322  16.803   9.370  0.0116 -0.2734 -0.1297
  228loPI   C2B 3646   9.517  16.686   9.087 -0.1619 -0.2342  0.0184
  228loPI   C3B 3647   9.604  16.502   8.686 -0.0749 -0.1020  0.3029
  228loPI   C4B 3648   9.483  16.425   8.315  0.0813 -0.1738  0.0154
  229loPI    C1 3649   1.537  15.347   9.762  0.1057  0.1996  0.1136
  229loPI    C2 3650   1.190  15.221   9.915 -0.0020  0.1483 -0.1672
  229loPI    C3 3651   1.465  15.388  10.154 -0.3072  0.3908  0.0227
  229loPI   PO4 3652   1.465  15.325   9.477 -0.0063  0.1108  0.0771
  229loPI   GL1 3653   1.712  15.451   9.035 -0.3955 -0.0597 -0.1301
  229loPI   GL2 3654   1.502  15.211   8.984  0.0585 -0.1432  0.1446
  229loPI   C1A 3655   1.413  15.814   8.957  0.3928  0.0497  0.4956
  229loPI   C2A 3656   1.337  16.000   8.609  0.1710 -0.0389 -0.0081
  229loPI   C3A 3657   1.516  16.203   8.154  0.0288 -0.1255 -0.0014
  229loPI   C4A 3658   1.324  16.294   7.814  0.0424 -0.0107  0.1115
  229loPI   C5A 3659   1.602  16.471   7.586 -0.0409 -0.0597 -0.0253
  229loPI   C6A 3660   2.049  16.517   7.435  0.1163  0.1118 -0.1658
  229loPI   C1B 3661   1.373  15.262   8.632 -0.0810 -0.1580  0.1522
  229loPI   C2B 3662   1.279  15.117   8.323 -0.1214 -0.3795  0.0969
  229loPI   C3B 3663   0.945  15.291   8.079  0.0055  0.0913  0.2293
  229loPI   C4B 3664   0.695  15.626   8.051 -0.3550 -0.3051 -0.2110
  230loPI    C1 3665  13.425   5.172   9.917 -0.0968  0.2733 -0.2127
  230loPI    C2 3666  13.584   5.461  10.143 -0.3106 -0.0213  0.3324
  230loPI    C3 3667  13.645   5.077  10.236 -0.4285 -0.1507 -0.1011
  230loPI   PO4 3668  13.553   5.148   9.590  0.0044  0.4037 -0.1113
  230loPI   GL1 3669  13.648   4.876   9.251  0.0139 -0.2323  0.2431
  230loPI   GL2 3670  13.911   4.661   9.380  0.0899  0.0190  0.0262
  230loPI   C1A 3671  13.940   4.962   8.909  0.1612  0.0696 -0.2985
  230loPI   C2A 3672  13.865   4.844   8.468  0.1380 -0.0677 -0.0969
  230loPI   C3A 3673  13.743   4.547   8.095 -0.1557  0.0356  0.3430
  230loPI   C4A 3674  13.663   4.405   7.706 -0.2112 -0.0018 -0.1371
  230loPI   C5A 3675  13.552   4.101   7.445  0.2214  0.2281 -0.4565
  230loPI   C6A 3676  13.246   3.880   7.334 -0.0639  0.0945  0.1705
  230loPI   C1B 3677  13.547   4.386   9.149 -0.0204 -0.1281  0.1434
  230loPI   C2B 3678  13.204   4.397   8.894 -0.0889 -0.1209  0.2126
  230loPI   C3B 3679  13.055   4.139   8.421  0.5139 -0.1273 -0.1366
  230loPI   C4B 3680  12.837   4.366   8.125  0.1875  0.5148 -0.0456
  231loPI    C1 3681  18.490   4.424   9.147 -0.1822  0.0350 -0.0031
  231loPI    C2 3682  18.455   4.309   8.765 -0.1822 -0.1802  0.0601
  231loPI    C3 3683  18.637   4.071   9.030 -0.2535 -0.0679  0.2121
  231loPI   PO4 3684  18.200   4.463   9.225 -0.3353 -0.1413  0.0007
  231loPI   GL1 3685  17.927   4.295   8.920 -0.0151 -0.0533  0.0106
  231loPI   GL2 3686  17.714   4.181   8.995 -0.0017 -0.4156 -0.1619
  231loPI   C1A 3687  18.050   4.281   8.490  0.0101 -0.0264  0.1515
  231loPI   C2A 3688  18.354   4.329   8.149 -0.0170 -0.2928 -0.0658
  231loPI   C3A 3689  18.461   4.328   7.725  0.0450  0.1776  0.0011
  231loPI   C4A 3690  18.662   4.171   7.227 -0.0845 -0.3349 -0.0653
  231loPI   C5A 3691  18.362   4.337   6.899  0.2183  0.1583  0.0510
  231loPI   C6A 3692  18.069   4.565   6.807  0.2082 -0.2350  0.4065
  231loPI   C1B 3693  17.530   4.079   8.602  0.0764  0.2414 -0.0490
  231loPI   C2B 3694  17.443   4.021   8.178 -0.1129  0.0442  0.0301
  231loPI   C3B 3695  17.324   4.114   7.749 -0.2843 -0.0509  0.2261
  231loPI   C4B 3696  17.383   4.075   7.302  0.0632  0.2270 -0.0459
  232loPI    C1 3697  14.170  13.331  10.335  0.1196 -0.0082  0.1253
  232loPI    C2 3698  13.929  13.183  10.618 -0.0123  0.1890  0.1179
  232loPI    C3 3699  14.317  13.087  10.616 -0.0805 -0.0971  0.1551
  232loPI   PO4 3700  14.046  13.285  10.143  0.3094  0.0021  0.0050
  232loPI   GL1 3701  14.109  13.177   9.704  0.1169 -0.2428 -0.0381
  232loPI   GL2 3702  14.382  13.009   9.605 -0.2206 -0.1817 -0.2008
  232loPI   C1A 3703  14.166  13.579   9.446  0.2526 -0.3661  0.0324
  232loPI   C2A 3704  14.386  13.561   9.055  0.0587  0.1905 -0.1487
  232loPI   C3A 3705  14.249  13.609   8.692  0.0796 -0.1171 -0.2595
  232loPI   C4A 3706  14.339  13.682   8.269  0.0558 -0.0870 -0.1609
  232loPI   C5A 3707  14.654  13.852   8.139  0.0773  0.0100 -0.2875
  232loPI   C6A 3708  14.874  13.653   7.803 -0.1470  0.1545  0.1911
  232loPI   C1B 3709  14.225  13.051   9.195  0.0501 -0.5815 -0.1795
  232loPI   C2B 3710  14.006  13.130   8.838 -0.2116 -0.1198  0.0729
  232loPI   C3B 3711  13.880  12.913   8.297  0.0801 -0.2876 -0.1318
  232loPI   C4B 3712  13.891  12.706   8.049 -0.0819  0.1128  0.0776
  233loPI    C1 3713  15.615   3.232  10.306  0.0030 -0.0815 -0.4704
  233loPI    C2 3714  15.940   3.057  10.460 -0.0546 -0.0298 -0.2872
  233loPI    C3 3715  15.947   3.446  10.366 -0.1321  0.0251 -0.0712
  233loPI   PO4 3716  15.546   3.080  10.061  0.3318  0.0548  0.0360
  233loPI   GL1 3717  15.514   3.094   9.683  0.1878 -0.0689  0.2930
  233loPI   GL2 3718  15.323   3.316   9.596  0.0304 -0.1803 -0.0590
  233loPI   C1A 3719  15.199   2.839   9.398 -0.1131 -0.3080 -0.0149
  233loPI   C2A 3720  15.211   2.508   9.060 -0.3345 -0.2716 -0.2586
  233loPI   C3A 3721  15.375   2.365   8.544  0.2793  0.3019  0.1557
  233loPI   C4A 3722  15.528   2.506   8.200 -0.1242 -0.2204 -0.0268
  233loPI   C5A 3723  15.960   2.511   7.968  0.0130 -0.1978  0.0289
  233loPI   C6A 3724  16.352   2.549   7.827 -0.0596  0.0617 -0.0454
  233loPI   C1B 3725  15.363   3.253   9.169  0.2404 -0.0052 -0.2170
  233loPI   C2B 3726  15.538   3.349   8.807 -0.2019 -0.2115  0.3233
  233loPI   C3B 3727  15.508   3.301   8.475  0.0260  0.1312 -0.2046
  233loPI   C4B 3728  15.589   3.492   8.067  0.0420  0.0053  0.1526
  234loPI    C1 3729  16.594   1.537  10.703  0.2366  0.1417  0.1231
  234loPI    C2 3730  16.546   1.239  10.966  0.0663 -0.0373 -0.1064
  234loPI    C3 3731  16.908   1.397  10.906  0.1470 -0.1572  0.0601
  234loPI   PO4 3732  16.409   1.412  10.457  0.1580 -0.2814 -0.1056
  234loPI   GL1 3733  16.017   1.152  10.339  0.2835 -0.3165 -0.1120
  234loPI   GL2 3734  16.234   1.260  10.055  0.0897 -0.0379  0.1714
  234loPI   C1A 3735  15.762   1.199   9.922  0.4413  0.2955 -0.0858
  234loPI   C2A 3736  15.755   1.309   9.468  0.1179 -0.0893  0.1214
  234loPI   C3A 3737  15.904   1.088   9.082  0.2230  0.1803  0.4122
  234loPI   C4A 3738  15.874   1.116   8.677 -0.0637  0.0726 -0.1829
  234loPI   C5A 3739  15.648   1.296   8.280 -0.0808  0.0441 -0.2155
  234loPI   C6A 3740  15.658   1.597   8.027 -0.3500 -0.2106 -0.0822
  234loPI   C1B 3741  16.183   1.026   9.594 -0.1175 -0.1501 -0.1506
  234loPI   C2B 3742  16.432   0.967   9.318 -0.2071  0.1072 -0.1424
  234loPI   C3B 3743  16.289   0.838   8.868  0.1078 -0.1165 -0.0323
  234loPI   C4B 3744  16.013   0.608   8.817  0.0915 -0.2550  0.2141
  235loPI    C1 3745   3.122  12.739   9.848 -0.0355  0.0559  0.1484
  235loPI    C2 3746   2.739  12.637   9.792 -0.1178  0.2202  0.3928
  235loPI    C3 3747   2.989  12.384   9.976 -0.0668  0.0481  0.0949
  235loPI   PO4 3748   3.182  12.790   9.636 -0.0486  0.0177  0.0726
  235loPI   GL1 3749   3.435  12.763   9.250 -0.3077 -0.5703  0.1677
  235loPI   GL2 3750   3.088  12.826   9.169  0.0037  0.1730  0.0067
  235loPI   C1A 3751   3.626  12.810   8.924 -0.1003  0.1776  0.1218
  235loPI   C2A 3752   3.933  12.822   8.594  0.2394  0.0607  0.0096
  235loPI   C3A 3753   4.105  12.995   8.211  0.1505  0.0661  0.0191
  235loPI   C4A 3754   4.242  13.035   7.754 -0.2858 -0.1436  0.0219
  235loPI   C5A 3755   4.188  13.250   7.402 -0.0735 -0.2579  0.0616
  235loPI   C6A 3756   4.083  13.476   7.059  0.1050 -0.2951 -0.1079
  235loPI   C1B 3757   2.787  12.652   8.883  0.2831  0.0858 -0.0042
  235loPI   C2B 3758   2.644  12.594   8.514  0.1757  0.3283 -0.1945
  235loPI   C3B 3759   2.698  12.794   8.071  0.0800  0.2088 -0.1638
  235loPI   C4B 3760   2.869  12.513   7.630 -0.1504  0.0401 -0.2087
  236loPI    C1 3761   3.001   4.343   9.000  0.1035  0.0044  0.1487
  236loPI    C2 3762   3.092   4.728   9.060  0.0289  0.0098  0.2284
  236loPI    C3 3763   2.840   4.540   9.308 -0.1420 -0.0172  0.0369
  236loPI   PO4 3764   3.158   4.293   8.799 -0.1735 -0.1085 -0.0593
  236loPI   GL1 3765   3.266   4.520   8.429 -0.2358 -0.1279 -0.0344
  236loPI   GL2 3766   3.543   4.766   8.292  0.0613  0.1416 -0.0842
  236loPI   C1A 3767   3.047   4.274   8.096  0.2995  0.3886  0.1495
  236loPI   C2A 3768   3.184   4.212   7.658 -0.1238  0.1763  0.2022
  236loPI   C3A 3769   2.967   4.232   7.216 -0.2657 -0.1794 -0.3670
  236loPI   C4A 3770   2.578   4.347   7.176  0.1245  0.2234  0.0266
  236loPI   C5A 3771   2.169   4.086   7.080  0.1736  0.0876  0.1900
  236loPI   C6A 3772   1.690   3.922   7.154 -0.0947 -0.4196 -0.0554
  236loPI   C1B 3773   3.481   4.679   7.899 -0.0515  0.2984  0.0079
  236loPI   C2B 3774   3.559   4.509   7.520 -0.0650  0.0997 -0.1170
  236loPI   C3B 3775   3.447   4.475   7.143 -0.0591  0.1918 -0.0106
  236loPI   C4B 3776   3.070   4.767   6.955  0.2061 -0.0927  0.0187
  237loPI    C1 3777   5.650  19.140  10.128 -0.1643  0.0277 -0.0661
  237loPI    C2 3778   5.774  19.369   9.824 -0.3215  0.0976 -0.0785
  237loPI    C3 3779   5.962  19.386  10.177 -0.0470 -0.0902 -0.2124
  237loPI   PO4 3780   5.479  18.981   9.965 -0.1395  0.0032  0.1705
  237loPI   GL1 3781   5.480  18.771   9.580 -0.0644  0.2360  0.2638
  237loPI   GL2 3782   5.539  18.478   9.451 -0.1281 -0.0106  0.0236
  237loPI   C1A 3783   5.519  18.729   9.076  0.2520 -0.1340 -0.1072
  237loPI   C2A 3784   5.824  18.495   8.882  0.0561 -0.1778  0.0524
  237loPI   C3A 3785   6.071  18.492   8.506 -0.1134  0.0355 -0.3411
  237loPI   C4A 3786   6.354  18.350   8.147 -0.1517  0.1365  0.1177
  237loPI   C5A 3787   6.488  17.861   7.998 -0.0361 -0.0128 -0.0105
  237loPI   C6A 3788   6.556  17.808   7.609  0.0888  0.3182  0.1005
  237loPI   C1B 3789   5.547  18.157   9.263 -0.1132  0.0674  0.1869
  237loPI   C2B 3790   5.445  18.087   8.830  0.2286  0.1380  0.1216
  237loPI   C3B 3791   5.693  18.067   8.448 -0.3480 -0.0397  0.1043
  237loPI   C4B 3792   5.863  18.407   8.063 -0.2740 -0.0935  0.2191
  238loPI    C1 3793   0.184  19.107   9.876  0.0932 -0.0817 -0.0443
  238loPI    C2 3794   0.064  19.208  10.244  0.1182 -0.1905 -0.0059
  238loPI    C3 3795   0.442  19.092  10.181  0.1656  0.0106 -0.1006
  238loPI   PO4 3796   0.115  19.256   9.735 -0.0889  0.3245 -0.0853
  238loPI   GL1 3797  -0.042  19.601   9.505  0.1140 -0.1369  0.1183
  238loPI   GL2 3798  -0.106  20.013   9.354  0.0287  0.2373  0.3208
  238loPI   C1A 3799  -0.260  19.446   9.231  0.1744  0.0276  0.2294
  238loPI   C2A 3800  -0.422  19.555   8.809  0.0323 -0.0813  0.1559
  238loPI   C3A 3801  -0.370  19.693   8.318 -0.1835  0.1325  0.0223
  238loPI   C4A 3802  -0.599  19.722   7.863 -0.1458 -0.1403  0.2991
  238loPI   C5A 3803  -1.018  19.828   7.714 -0.1258 -0.2710  0.0657
  238loPI   C6A 3804  -1.475  19.745   7.555 -0.1169  0.2218  0.5310
  238loPI   C1B 3805  -0.287  20.040   8.932 -0.3252 -0.2990 -0.1218
  238loPI   C2B 3806  -0.227  20.294   8.649  0.0984  0.2952  0.3941
  238loPI   C3B 3807  -0.216  20.155   8.177 -0.0559 -0.1202 -0.1923
  238loPI   C4B 3808  -0.435  20.167   7.825  0.0158  0.1699 -0.1955
  239loPI    C1 3809  19.121  18.373   9.886  0.0351  0.1258  0.0908
  239loPI    C2 3810  18.858  18.429   9.589  0.2318  0.0875 -0.0934
  239loPI    C3 3811  18.730  18.400   9.967 -0.0070  0.2939 -0.1553
  239loPI   PO4 3812  19.363  18.194   9.761 -0.0099  0.1234 -0.2290
  239loPI   GL1 3813  19.298  18.086   9.329  0.1754  0.3218 -0.4116
  239loPI   GL2 3814  19.355  17.808   9.307 -0.0145  0.3047 -0.2619
  239loPI   C1A 3815  19.043  18.272   9.095  0.1566  0.2677  0.0063
  239loPI   C2A 3816  18.990  18.530   8.829 -0.1801  0.2248 -0.0442
  239loPI   C3A 3817  18.926  18.697   8.520 -0.0749  0.1340 -0.1375
  239loPI   C4A 3818  18.942  18.851   8.132  0.1259  0.4853 -0.0564
  239loPI   C5A 3819  18.747  18.591   7.733  0.0949 -0.0959 -0.4572
  239loPI   C6A 3820  18.609  18.658   7.278 -0.0732 -0.2047  0.0591
  239loPI   C1B 3821  19.056  17.798   8.897 -0.2797 -0.0484  0.2604
  239loPI   C2B 3822  18.794  17.560   8.621 -0.1153 -0.1249 -0.3881
  239loPI   C3B 3823  18.519  17.209   8.465 -0.0365 -0.0578  0.0570
  239loPI   C4B 3824  18.219  16.886   8.561 -0.1091  0.1380  0.0604
  240loPI    C1 3825   4.325   6.635   9.307  0.0145  0.0376  0.0776
  240loPI    C2 3826   3.985   6.529   9.490 -0.0443 -0.1934 -0.1595
  240loPI    C3 3827   4.315   6.596   9.705 -0.2286 -0.0026  0.0695
  240loPI   PO4 3828   4.469   6.633   9.050 -0.1845  0.1352 -0.2997
  240loPI   GL1 3829   4.317   6.590   8.729 -0.0836  0.1179  0.1114
  240loPI   GL2 3830   4.274   6.849   8.579  0.0447  0.0524 -0.1286
  240loPI   C1A 3831   4.534   6.538   8.336 -0.0196 -0.0569 -0.0997
  240loPI   C2A 3832   4.504   6.160   7.994  0.1852 -0.0408 -0.3557
  240loPI   C3A 3833   4.314   5.905   7.748 -0.1167  0.0873  0.2492
  240loPI   C4A 3834   4.377   5.607   7.362  0.1481 -0.2588 -0.1832
  240loPI   C5A 3835   4.247   5.678   7.003  0.0287  0.1270 -0.1686
  240loPI   C6A 3836   4.057   5.666   6.628  0.1744  0.1990  0.1691
  240loPI   C1B 3837   4.179   7.130   8.293 -0.2346 -0.0086  0.3625
  240loPI   C2B 3838   4.205   7.314   7.905  0.0604 -0.2297 -0.0508
  240loPI   C3B 3839   4.228   7.458   7.446 -0.0143  0.3103  0.3457
  240loPI   C4B 3840   3.787   7.572   7.270  0.0708 -0.0340 -0.0669
  241loPI    C1 3841  12.789   1.664  10.506 -0.2379  0.2640  0.0480
  241loPI    C2 3842  12.822   1.452  10.844 -0.0130  0.2317  0.0071
  241loPI    C3 3843  12.979   1.820  10.822  0.2335  0.1192 -0.1560
  241loPI   PO4 3844  12.893   1.511  10.309 -0.1403 -0.0061  0.0472
  241loPI   GL1 3845  13.035   1.699   9.994 -0.0724 -0.0408 -0.2177
  241loPI   GL2 3846  13.036   2.011   9.854 -0.3268 -0.0501  0.0620
  241loPI   C1A 3847  12.934   1.556   9.557 -0.1940  0.1447 -0.3898
  241loPI   C2A 3848  12.535   1.737   9.274 -0.0278  0.0836 -0.1897
  241loPI   C3A 3849  12.492   1.766   8.816 -0.1822  0.2125  0.1134
  241loPI   C4A 3850  12.494   1.634   8.318  0.0299 -0.1931 -0.2393
  241loPI   C5A 3851  12.490   1.449   7.923  0.1038  0.0019  0.1983
  241loPI   C6A 3852  12.655   1.132   7.819 -0.0894  0.0836  0.2917
  241loPI   C1B 3853  12.904   2.099   9.346  0.2881  0.0895  0.0097
  241loPI   C2B 3854  13.145   2.233   8.975  0.1718  0.1325 -0.0574
  241loPI   C3B 3855  13.178   2.445   8.677 -0.3057  0.0549  0.3440
  241loPI   C4B 3856  12.982   2.580   8.252 -0.2280  0.1158  0.0566
  242loPI    C1 3857  14.881   9.220   9.917  0.2402 -0.0854  0.0321
  242loPI    C2 3858  14.732   9.092  10.266  0.1716 -0.1577 -0.0234
  242loPI    C3 3859  15.082   9.285  10.257  0.2129 -0.2273  0.0761
  242loPI   PO4 3860  14.888   9.058   9.817  0.1025  0.2363  0.2427
  242loPI   GL1 3861  14.657   8.998   9.517 -0.1442  0.1245 -0.1416
  242loPI   GL2 3862  14.585   9.217   9.254 -0.0729 -0.1480  0.0664
  242loPI   C1A 3863  14.976   8.783   9.190 -0.0441  0.3152  0.0827
  242loPI   C2A 3864  14.995   8.610   8.691  0.3559 -0.0166 -0.1220
  242loPI   C3A 3865  15.203   8.635   8.267 -0.2230  0.2232  0.0797
  242loPI   C4A 3866  15.180   8.541   7.776  0.1338  0.0637 -0.1693
  242loPI   C5A 3867  15.056   8.220   7.486  0.3146 -0.1398 -0.1082
  242loPI   C6A 3868  14.870   8.147   7.149 -0.1161 -0.2979  0.0407
  242loPI   C1B 3869  14.348   9.229   8.843 -0.2746 -0.3006  0.0946
  242loPI   C2B 3870  14.282   9.364   8.366  0.3144 -0.0266 -0.0712
  242loPI   C3B 3871  14.192   9.389   7.925  0.0278  0.1099 -0.2081
  242loPI   C4B 3872  13.885   9.125   7.776 -0.3750 -0.1085  0.3075
  243loPI    C1 3873   5.099   8.036   9.068 -0.0114  0.1240 -0.0050
  243loPI    C2 3874   5.382   8.220   9.283  0.0764 -0.1989  0.1626
  243loPI    C3 3875   5.003   8.216   9.412  0.0481 -0.0217  0.0886
  243loPI   PO4 3876   5.267   7.807   8.970 -0.0019 -0.3041 -0.1779
  243loPI   GL1 3877   5.143   7.554   8.700  0.2051 -0.0463 -0.1385
  243loPI   GL2 3878   5.094   7.264   8.761  0.3938 -0.1497 -0.3911
  243loPI   C1A 3879   5.224   7.785   8.282  0.0875 -0.0547  0.1180
  243loPI   C2A 3880   5.571   7.824   8.029  0.0109 -0.2438  0.2029
  243loPI   C3A 3881   5.610   8.180   7.766 -0.1269 -0.1190 -0.5238
  243loPI   C4A 3882   5.732   8.586   7.477 -0.2899  0.0065 -0.0318
  243loPI   C5A 3883   5.860   9.005   7.402  0.0934  0.2007 -0.0945
  243loPI   C6A 3884   5.645   9.436   7.449 -0.2253  0.0264  0.1827
  243loPI   C1B 3885   5.472   7.204   8.437  0.2539  0.0357  0.1393
  243loPI   C2B 3886   5.627   7.328   8.125 -0.0920  0.1949  0.0669
  243loPI   C3B 3887   5.466   7.226   7.794 -0.0182 -0.0135 -0.0213
  243loPI   C4B 3888   5.119   7.204   7.544 -0.3267  0.0740  0.6164
  244loPI    C1 3889   1.736  13.612   9.581 -0.0755 -0.1920 -0.0829
  244loPI    C2 3890   2.053  13.767   9.770 -0.1463  0.0886 -0.1896
  244loPI    C3 3891   1.842  13.474   9.942  0.1753 -0.1092 -0.1228
  244loPI   PO4 3892   1.862  13.695   9.313 -0.0214  0.0300 -0.3496
  244loPI   GL1 3893   1.862  13.926   9.063 -0.1039  0.0784  0.1880
  244loPI   GL2 3894   2.051  14.136   8.987  0.0059  0.0397 -0.3205
  244loPI   C1A 3895   1.641  13.918   8.702 -0.2024 -0.2301 -0.3621
  244loPI   C2A 3896   1.636  13.672   8.227  0.0629 -0.3140  0.1252
  244loPI   C3A 3897   1.793  13.730   7.825  0.0897  0.0260 -0.0762
  244loPI   C4A 3898   1.737  13.694   7.430 -0.0545 -0.2281  0.2789
  244loPI   C5A 3899   1.457  13.685   6.983  0.1537  0.1665 -0.1265
  244loPI   C6A 3900   1.100  13.767   6.717  0.1362 -0.5381 -0.2722
  244loPI   C1B 3901   2.202  13.913   8.581  0.0025 -0.2392 -0.0067
  244loPI   C2B 3902   1.995  13.995   8.213 -0.2199 -0.1404 -0.2642
  244loPI   C3B 3903   2.087  14.122   7.782  0.0506 -0.1546  0.3176
  244loPI   C4B 3904   2.024  14.113   7.478 -0.0873  0.0109 -0.0261
  245loPI    C1 3905  10.734  15.058  10.489  0.2601 -0.1147  0.0758
  245loPI    C2 3906  11.094  15.041  10.661  0.2036  0.1259  0.2221
  245loPI    C3 3907  10.807  15.269  10.820 -0.0796 -0.2227  0.2243
  245loPI   PO4 3908  10.807  15.018  10.267 -0.1305 -0.0726 -0.3707
  245loPI   GL1 3909  10.901  15.034   9.882 -0.1299  0.0988  0.1184
  245loPI   GL2 3910  10.657  15.179   9.825  0.2521  0.2087  0.3429
  245loPI   C1A 3911  10.951  14.708   9.552 -0.1473  0.0872 -0.0367
  245loPI   C2A 3912  11.161  14.436   9.117  0.0486  0.6848 -0.2087
  245loPI   C3A 3913  11.221  13.992   8.812  0.0112 -0.0879 -0.0663
  245loPI   C4A 3914  11.341  13.956   8.350 -0.0131  0.0598  0.0296
  245loPI   C5A 3915  11.497  14.372   8.103  0.0450  0.1364 -0.1104
  245loPI   C6A 3916  11.866  14.588   7.828  0.2249 -0.6560 -0.1922
  245loPI   C1B 3917  11.051  15.212   9.464  0.0136 -0.1007  0.1921
  245loPI   C2B 3918  11.169  14.923   9.110  0.0174 -0.2329  0.0653
  245loPI   C3B 3919  11.200  14.955   8.738  0.0301 -0.0174 -0.0202
  245loPI   C4B 3920  10.985  15.186   8.450 -0.3393  0.2239 -0.0767
  246loPI    C1 3921  17.355  10.906   9.249 -0.0573  0.0022 -0.2339
  246loPI    C2 3922  17.590  10.747   9.531 -0.2237  0.0754 -0.0514
  246loPI    C3 3923  17.738  10.825   9.168 -0.0485 -0.1652 -0.0344
  246loPI   PO4 3924  17.264  11.104   9.312  0.2353  0.0930  0.1716
  246loPI   GL1 3925  16.993  11.122   8.984  0.0244 -0.2830  0.0079
  246loPI   GL2 3926  17.017  11.375   8.874 -0.3510 -0.1978  0.1010
  246loPI   C1A 3927  16.797  10.825   8.695  0.0261 -0.2501 -0.1776
  246loPI   C2A 3928  16.377  10.795   8.592 -0.1669 -0.2148 -0.1488
  246loPI   C3A 3929  16.291  10.995   8.235 -0.2502 -0.0293 -0.0335
  246loPI   C4A 3930  16.126  11.092   7.790  0.0767  0.1520  0.0113
  246loPI   C5A 3931  15.896  10.973   7.469  0.3119 -0.1355  0.1756
  246loPI   C6A 3932  15.469  11.044   7.470 -0.0962  0.3144 -0.1914
  246loPI   C1B 3933  17.079  11.349   8.566 -0.0566 -0.1196  0.0190
  246loPI   C2B 3934  17.259  11.425   8.174  0.1061  0.3216 -0.2189
  246loPI   C3B 3935  17.159  11.279   7.789  0.1632  0.1195 -0.2338
  246loPI   C4B 3936  16.920  11.147   7.342 -0.1789 -0.3505  0.0453
  247loPI    C1 3937  14.796   6.168   9.338  0.0379  0.2092  0.0427
  247loPI    C2 3938  15.186   6.121   9.260  0.0644  0.1418  0.2118
  247loPI    C3 3939  15.004   5.881   9.523 -0.2069 -0.1540 -0.2320
  247loPI   PO4 3940  14.739   6.415   9.433  0.0654 -0.0804 -0.0530
  247loPI   GL1 3941  14.593   6.826   9.221 -0.3341  0.2883 -0.2461
  247loPI   GL2 3942  14.485   7.174   9.159 -0.0899  0.2230  0.2346
  247loPI   C1A 3943  14.791   6.710   8.836  0.2486 -0.0410 -0.2267
  247loPI   C2A 3944  14.841   6.851   8.481  0.0683  0.1208  0.0887
  247loPI   C3A 3945  14.760   6.876   8.091  0.3903  0.0929  0.0923
  247loPI   C4A 3946  14.644   7.138   7.904  0.0226  0.0921 -0.1062
  247loPI   C5A 3947  14.797   7.341   7.497 -0.2452  0.0764 -0.0506
  247loPI   C6A 3948  14.628   7.730   7.569  0.2136  0.1092 -0.1798
  247loPI   C1B 3949  14.566   7.220   8.780 -0.4038 -0.1127  0.2791
  247loPI   C2B 3950  14.770   7.363   8.435 -0.0051  0.0597 -0.0900
  247loPI   C3B 3951  15.153   7.567   8.313 -0.0701  0.1131 -0.0121
  247loPI   C4B 3952  15.449   7.809   8.497  0.1973  0.1046  0.3077
  248loPI    C1 3953  13.412   7.601   9.670 -0.0103  0.0162  0.0047
  248loPI    C2 3954  13.656   7.826   9.894 -0.0733  0.0715  0.0180
  248loPI    C3 3955  13.577   7.448  10.001 -0.1778  0.1276  0.1409
  248loPI   PO4 3956  13.168   7.691   9.644 -0.1258  0.0317  0.1328
  248loPI   GL1 3957  12.999   7.613   9.263  0.1827 -0.0590  0.0481
  248loPI   GL2 3958  13.203   7.865   9.180 -0.1269  0.0321 -0.2951
  248loPI   C1A 3959  12.746   7.538   8.893 -0.1574  0.3447 -0.4455
  248loPI   C2A 3960  12.884   7.330   8.478  0.1301 -0.0445 -0.0045
  248loPI   C3A 3961  12.959   7.377   8.077  0.1435 -0.2476  0.2905
  248loPI   C4A 3962  13.154   7.182   7.677  0.0457 -0.1385  0.2405
  248loPI   C5A 3963  13.320   6.874   7.428 -0.0090  0.2202  0.0825
  248loPI   C6A 3964  13.187   6.842   7.052 -0.0901 -0.2611 -0.2671
  248loPI   C1B 3965  13.237   7.728   8.746 -0.1461  0.4416 -0.2558
  248loPI   C2B 3966  13.367   7.514   8.297  0.1968  0.2317  0.3065
  248loPI   C3B 3967  13.531   7.638   7.931  0.2553  0.2730 -0.0628
  248loPI   C4B 3968  13.564   7.597   7.484 -0.0335  0.3366  0.1926
  249loPI    C1 3969   3.642   6.229   9.408 -0.0937  0.2143  0.0828
  249loPI    C2 3970   3.855   5.913   9.285 -0.0765  0.3064 -0.1292
  249loPI    C3 3971   3.797   5.976   9.676  0.1427  0.1875 -0.0759
  249loPI   PO4 3972   3.411   6.258   9.209 -0.3615 -0.0343  0.0285
  249loPI   GL1 3973   3.357   6.446   8.870  0.0587  0.1963  0.1964
  249loPI   GL2 3974   2.983   6.498   8.725 -0.0995 -0.0891  0.0420
  249loPI   C1A 3975   3.400   6.340   8.511  0.1495 -0.0646 -0.1183
  249loPI   C2A 3976   3.216   5.999   8.236 -0.0722 -0.3335 -0.2986
  249loPI   C3A 3977   3.138   5.629   8.020 -0.1342 -0.2888  0.0431
  249loPI   C4A 3978   3.192   5.340   7.740  0.2013 -0.0687 -0.3179
  249loPI   C5A 3979   3.315   5.439   7.431 -0.1209 -0.1081  0.0829
  249loPI   C6A 3980   3.389   5.806   7.177  0.1471  0.2259 -0.1313
  249loPI   C1B 3981   2.917   6.454   8.333 -0.3172  0.2189 -0.2401
  249loPI   C2B 3982   3.041   6.376   7.878 -0.3026  0.1324  0.0304
  249loPI   C3B 3983   2.973   6.630   7.444 -0.1673  0.2758  0.0087
  249loPI   C4B 3984   3.207   6.752   7.060  0.1714  0.1400  0.0264
  250loPI    C1 3985   2.610   8.540   9.267  0.0607  0.0414  0.0031
  250loPI    C2 3986   2.710   8.204   9.075 -0.3571 -0.1056  0.0322
  250loPI    C3 3987   2.836   8.265   9.450  0.3008  0.0952 -0.2067
  250loPI   PO4 3988   2.659   8.721   9.042 -0.0102 -0.0867 -0.3643
  250loPI   GL1 3989   2.574   8.843   8.681 -0.4062  0.0084  0.3291
  250loPI   GL2 3990   2.698   9.125   8.799  0.2652  0.1824 -0.0720
  250loPI   C1A 3991   2.510   8.603   8.404  0.3767 -0.0760  0.1356
  250loPI   C2A 3992   2.314   8.423   7.961 -0.4738  0.0056 -0.2314
  250loPI   C3A 3993   2.268   8.304   7.538 -0.1164  0.0239  0.3006
  250loPI   C4A 3994   2.546   8.226   7.187 -0.1260 -0.2270  0.0668
  250loPI   C5A 3995   2.739   8.140   6.837  0.0924  0.1063  0.0764
  250loPI   C6A 3996   2.786   7.652   6.821  0.1031 -0.3355 -0.1410
  250loPI   C1B 3997   2.687   9.525   8.538  0.0009 -0.1201 -0.0087
  250loPI   C2B 3998   2.799   9.691   8.048 -0.0137  0.1041 -0.2605
  250loPI   C3B 3999   2.633  10.016   7.789 -0.0722  0.2447 -0.1196
  250loPI   C4B 4000   2.789  10.085   7.372 -0.2577 -0.1117  0.0530
  251loPI    C1 4001  13.075  16.541  10.566 -0.1636 -0.2140  0.0012
  251loPI    C2 4002  12.749  16.360  10.711 -0.4266  0.2961  0.0663
  251loPI    C3 4003  12.856  16.721  10.848  0.1451  0.1564  0.0129
  251loPI   PO4 4004  12.962  16.448  10.221 -0.0492 -0.1174  0.1043
  251loPI   GL1 4005  13.022  16.663   9.899 -0.1594 -0.0217  0.2873
  251loPI   GL2 4006  12.900  16.800   9.775 -0.0763  0.1731 -0.0166
  251loPI   C1A 4007  13.208  16.350   9.605 -0.2533  0.0323  0.0140
  251loPI   C2A 4008  13.215  16.262   9.168 -0.1501  0.2866  0.2113
  251loPI   C3A 4009  13.175  16.321   8.706  0.1552  0.0978 -0.0161
  251loPI   C4A 4010  13.183  16.737   8.422  0.4995  0.1625  0.2005
  251loPI   C5A 4011  13.321  17.071   8.038 -0.1530  0.1354  0.0921
  251loPI   C6A 4012  13.588  16.971   7.598 -0.0622 -0.1190 -0.2625
  251loPI   C1B 4013  13.165  17.066   9.513 -0.3677  0.0030 -0.0106
  251loPI   C2B 4014  13.457  17.024   9.233 -0.2234 -0.0556 -0.2376
  251loPI   C3B 4015  13.691  17.354   9.019  0.2283  0.0492 -0.2270
  251loPI   C4B 4016  14.109  17.329   8.743  0.0969  0.3011  0.4719
  252loPI    C1 4017   4.470  11.588   9.926  0.1123 -0.0959  0.1029
  252loPI    C2 4018   4.766  11.418  10.134  0.1750 -0.0246  0.0727
  252loPI    C3 4019   4.663  11.797  10.208 -0.0340 -0.1070  0.2126
  252loPI   PO4 4020   4.537  11.601   9.662 -0.4279 -0.2653 -0.2542
  252loPI   GL1 4021   4.551  12.043   9.382 -0.1649  0.0462 -0.2838
  252loPI   GL2 4022   4.450  11.774   9.113  0.1610 -0.0484 -0.3552
  252loPI   C1A 4023   4.805  12.064   9.025  0.2972 -0.0029 -0.0056
  252loPI   C2A 4024   4.846  12.075   8.502 -0.1533 -0.0101 -0.2398
  252loPI   C3A 4025   4.822  12.183   8.075  0.1837 -0.1418  0.1624
  252loPI   C4A 4026   4.835  12.258   7.683 -0.0599 -0.0380 -0.1917
  252loPI   C5A 4027   4.439  12.611   7.457  0.2806 -0.0225 -0.0054
  252loPI   C6A 4028   4.155  12.768   7.316  0.0607 -0.3553 -0.4333
  252loPI   C1B 4029   4.389  11.516   8.728  0.2477 -0.1037  0.1364
  252loPI   C2B 4030   4.233  11.520   8.346  0.0612  0.1466  0.2314
  252loPI   C3B 4031   4.264  11.422   7.817 -0.1411 -0.0122  0.2437
  252loPI   C4B 4032   4.053  11.521   7.392 -0.0440 -0.0814  0.0614
  253loPI    C1 4033  13.369  10.798  10.001 -0.1534 -0.4245  0.1363
  253loPI    C2 4034  12.977  10.871   9.964 -0.0553  0.0668 -0.0171
  253loPI    C3 4035  13.165  10.956  10.307 -0.0149  0.1722 -0.0652
  253loPI   PO4 4036  13.538  10.796   9.831  0.3656 -0.0039 -0.3644
  253loPI   GL1 4037  13.699  10.868   9.361 -0.0193  0.2880 -0.1613
  253loPI   GL2 4038  13.506  11.038   9.321  0.0461 -0.1916 -0.1814
  253loPI   C1A 4039  13.853  10.758   9.041 -0.2152 -0.0161 -0.1843
  253loPI   C2A 4040  14.009  10.562   8.666  0.1184 -0.1973 -0.0962
  253loPI   C3A 4041  14.194  10.157   8.496 -0.1428  0.0927 -0.1465
  253loPI   C4A 4042  14.278   9.832   8.284  0.0190 -0.1724 -0.0064
  253loPI   C5A 4043  14.150   9.942   7.900 -0.1044  0.0539 -0.0865
  253loPI   C6A 4044  14.085   9.634   7.473 -0.0016  0.0243 -0.0184
  253loPI   C1B 4045  13.470  10.988   8.890  0.0060 -0.0604  0.1139
  253loPI   C2B 4046  13.422  11.044   8.439  0.1464  0.1217 -0.1617
  253loPI   C3B 4047  13.491  11.178   8.040  0.2968 -0.1187  0.1542
  253loPI   C4B 4048  13.900  11.341   8.116 -0.0351 -0.2605  0.5690
  254loPI    C1 4049   1.470  15.826   9.447  0.0113 -0.1815  0.2419
  254loPI    C2 4050   1.123  16.019   9.402  0.1288 -0.0447 -0.1089
  254loPI    C3 4051   1.155  15.637   9.289  0.1368 -0.0080 -0.2323
  254loPI   PO4 4052   1.594  16.076   9.523 -0.2647  0.0394  0.0449
  254loPI   GL1 4053   2.016  16.278   9.202 -0.1863 -0.1981 -0.2179
  254loPI   GL2 4054   1.867  16.076   8.960  0.0054 -0.1003  0.0653
  254loPI   C1A 4055   2.230  16.354   8.839 -0.1571  0.1572  0.3578
  254loPI   C2A 4056   2.249  16.343   8.476  0.3751  0.0065 -0.0273
  254loPI   C3A 4057   1.988  16.260   8.194 -0.1520  0.2118 -0.1099
  254loPI   C4A 4058   1.807  16.108   7.792 -0.1633  0.0551  0.3534
  254loPI   C5A 4059   1.406  16.028   7.410 -0.1441  0.0084 -0.1143
  254loPI   C6A 4060   1.209  15.674   7.273  0.1643 -0.0943 -0.1072
  254loPI   C1B 4061   1.843  15.991   8.634 -0.1544 -0.0933  0.1121
  254loPI   C2B 4062   1.856  15.815   8.170  0.0348 -0.1718 -0.5173
  254loPI   C3B 4063   1.772  15.490   7.848 -0.1841  0.0564  0.0927
  254loPI   C4B 4064   1.699  15.482   7.387  0.1016  0.1767  0.1991
  255loPI    C1 4065   1.368  16.875  10.071  0.0436  0.0879 -0.2872
  255loPI    C2 4066   1.632  17.133  10.224  0.1743 -0.3132  0.1889
  255loPI    C3 4067   1.240  17.194  10.275  0.1918 -0.0517  0.0305
  255loPI   PO4 4068   1.502  16.890   9.767  0.1548 -0.2867  0.0669
  255loPI   GL1 4069   1.806  17.069   9.378 -0.3652  0.2323  0.1718
  255loPI   GL2 4070   1.666  16.962   9.223 -0.2010  0.2344 -0.1332
  255loPI   C1A 4071   2.090  17.322   9.034 -0.1455  0.2586 -0.1790
  255loPI   C2A 4072   2.142  17.475   8.636  0.0365 -0.0793  0.3042
  255loPI   C3A 4073   2.237  17.550   8.215 -0.0067 -0.0653  0.2499
  255loPI   C4A 4074   2.347  17.739   7.720 -0.1265 -0.1138 -0.2937
  255loPI   C5A 4075   2.129  17.901   7.340 -0.2664 -0.1368  0.2015
  255loPI   C6A 4076   1.889  18.060   6.964  0.1420  0.2595  0.0642
  255loPI   C1B 4077   1.707  17.082   8.740  0.2730 -0.0768 -0.2126
  255loPI   C2B 4078   1.846  17.222   8.331  0.1111  0.1751  0.1466
  255loPI   C3B 4079   2.109  17.194   7.929 -0.0807  0.0716  0.2484
  255loPI   C4B 4080   2.349  16.921   7.526  0.0591  0.0687 -0.2294
  256loPI    C1 4081  18.040  10.455   9.458 -0.2252  0.1408  0.1581
  256loPI    C2 4082  18.327  10.474   9.736  0.1568  0.2687 -0.2335
  256loPI    C3 4083  18.067  10.775   9.695 -0.0545  0.1427  0.1371
  256loPI   PO4 4084  18.107  10.422   9.204  0.3104 -0.2136 -0.1173
  256loPI   GL1 4085  18.310  10.341   8.887  0.1764  0.0404 -0.0057
  256loPI   GL2 4086  18.173  10.763   8.832  0.3520 -0.1603 -0.1930
  256loPI   C1A 4087  18.483  10.261   8.622  0.0319  0.0890 -0.1145
  256loPI   C2A 4088  18.437  10.341   8.082 -0.2952 -0.3504 -0.1646
  256loPI   C3A 4089  18.380  10.418   7.664  0.1160  0.1407 -0.1190
  256loPI   C4A 4090  18.284  10.536   7.283  0.0088  0.2198  0.1109
  256loPI   C5A 4091  18.180  10.256   7.000 -0.3726 -0.0634 -0.0555
  256loPI   C6A 4092  17.945  10.098   6.615 -0.5154 -0.0411 -0.1692
  256loPI   C1B 4093  18.399  10.722   8.433  0.1152 -0.0502  0.0011
  256loPI   C2B 4094  18.576  10.797   8.012 -0.0861 -0.4370 -0.0377
  256loPI   C3B 4095  18.850  10.784   7.635  0.1622  0.0164  0.1175
  256loPI   C4B 4096  18.992  10.957   7.281  0.1629  0.1966 -0.2291
  257loPI    C1 4097  12.268   2.799  10.375 -0.0122  0.0123 -0.1960
  257loPI    C2 4098  12.547   3.076  10.306 -0.0955  0.1541  0.0248
  257loPI    C3 4099  12.459   2.971  10.682 -0.0489 -0.1903 -0.0570
  257loPI   PO4 4100  11.994   2.860  10.275 -0.2451 -0.0608  0.3153
  257loPI   GL1 4101  11.873   2.992   9.963  0.1810 -0.0525  0.0193
  257loPI   GL2 4102  11.791   2.751   9.866  0.1107 -0.2173  0.0018
  257loPI   C1A 4103  11.853   3.073   9.483  0.0049  0.0222  0.0416
  257loPI   C2A 4104  11.984   3.013   9.061 -0.1650 -0.0598  0.2837
  257loPI   C3A 4105  12.265   2.882   8.693  0.0103 -0.0595  0.2769
  257loPI   C4A 4106  12.525   2.890   8.323 -0.0864 -0.1410  0.1658
  257loPI   C5A 4107  12.644   2.722   7.931  0.2418 -0.4393  0.1068
  257loPI   C6A 4108  12.581   2.385   7.585  0.0934  0.0853  0.1195
  257loPI   C1B 4109  11.757   2.479   9.528 -0.1656  0.0050  0.2099
  257loPI   C2B 4110  11.881   2.523   9.046 -0.2879  0.4673 -0.0556
  257loPI   C3B 4111  11.700   2.742   8.712 -0.2718 -0.0443 -0.0637
  257loPI   C4B 4112  11.754   3.195   8.627  0.0030 -0.2174  0.0486
  258loPI    C1 4113   8.924   7.602   9.515  0.1620  0.0812  0.0624
  258loPI    C2 4114   8.836   7.531   9.899 -0.0447  0.0054  0.0029
  258loPI    C3 4115   8.793   7.899   9.749 -0.1156  0.0014  0.0127
  258loPI   PO4 4116   8.686   7.463   9.376  0.0706  0.2952 -0.1558
  258loPI   GL1 4117   8.785   7.514   8.852  0.1396  0.1280  0.1542
  258loPI   GL2 4118   8.447   7.645   8.795  0.3319 -0.5390  0.0908
  258loPI   C1A 4119   8.949   7.636   8.498  0.2478 -0.3064 -0.0600
  258loPI   C2A 4120   8.829   7.745   8.021 -0.1564 -0.0160  0.1662
  258loPI   C3A 4121   8.555   7.745   7.642  0.0782 -0.3743 -0.4440
  258loPI   C4A 4122   8.466   7.861   7.276 -0.1843  0.1637 -0.1459
  258loPI   C5A 4123   8.483   7.885   6.847  0.2155 -0.2115  0.1449
  258loPI   C6A 4124   8.676   7.828   6.502  0.0465 -0.0030 -0.1053
  258loPI   C1B 4125   8.489   7.904   8.396 -0.0945  0.1227 -0.3868
  258loPI   C2B 4126   8.292   7.909   8.001 -0.2306  0.0233  0.0754
  258loPI   C3B 4127   8.276   8.212   7.549 -0.1638 -0.2611 -0.1945
  258loPI   C4B 4128   8.157   8.213   7.170  0.0449  0.1921 -0.2110
  259loPI    C1 4129   5.978  13.153   9.891 -0.1650 -0.1855 -0.2690
  259loPI    C2 4130   6.257  12.874   9.959 -0.0667 -0.0723 -0.2030
  259loPI    C3 4131   6.365  13.237   9.828 -0.1806 -0.0188 -0.1497
  259loPI   PO4 4132   5.813  13.128   9.752 -0.0696  0.0001 -0.1022
  259loPI   GL1 4133   6.011  13.077   9.333  0.0313  0.5462  0.1533
  259loPI   GL2 4134   6.252  12.999   9.378  0.2404  0.1812 -0.0131
  259loPI   C1A 4135   5.914  13.021   8.935  0.1222 -0.0932 -0.1955
  259loPI   C2A 4136   6.008  12.911   8.451 -0.0991 -0.0199  0.2124
  259loPI   C3A 4137   6.361  13.012   8.173  0.1206  0.1252  0.0368
  259loPI   C4A 4138   6.516  13.248   7.854  0.1084 -0.2869 -0.1321
  259loPI   C5A 4139   6.410  13.574   7.501  0.0128 -0.1374 -0.1428
  259loPI   C6A 4140   6.784  13.641   7.194  0.1539 -0.1664 -0.0149
  259loPI   C1B 4141   6.318  13.319   9.071  0.0927 -0.1122  0.0415
  259loPI   C2B 4142   6.261  13.398   8.688  0.1208  0.1939  0.0406
  259loPI   C3B 4143   5.954  13.475   8.358 -0.0397 -0.0884  0.1235
  259loPI   C4B 4144   5.863  13.143   7.989 -0.0936 -0.0432  0.3140
  260loPI    C1 4145   9.962   1.996  10.247  0.1235 -0.0483  0.0465
  260loPI    C2 4146  10.322   1.843  10.168  0.1507  0.0499 -0.0219
  260loPI    C3 4147  10.171   1.816  10.537  0.0816 -0.2911 -0.0714
  260loPI   PO4 4148   9.970   2.193  10.016  0.1202  0.1271  0.3739
  260loPI   GL1 4149  10.203   2.187   9.611  0.1365 -0.0348 -0.2578
  260loPI   GL2 4150  10.058   2.427   9.598 -0.2168  0.3596 -0.1331
  260loPI   C1A 4151  10.371   2.075   9.196  0.0185 -0.2150 -0.0400
  260loPI   C2A 4152  10.665   1.838   9.000 -0.1931 -0.0184 -0.0515
  260loPI   C3A 4153  10.835   1.655   8.589 -0.0568 -0.0236  0.1608
  260loPI   C4A 4154  11.067   1.890   8.183  0.0131  0.3117  0.2404
  260loPI   C5A 4155  11.311   2.212   7.976 -0.0971  0.1331 -0.0762
  260loPI   C6A 4156  11.639   2.087   7.849 -0.0577 -0.1029  0.2361
  260loPI   C1B 4157   9.895   2.300   9.231 -0.1008 -0.0264  0.2228
  260loPI   C2B 4158   9.932   2.106   8.741 -0.0480 -0.2754  0.1111
  260loPI   C3B 4159   9.842   1.869   8.422 -0.3993 -0.2159  0.0767
  260loPI   C4B 4160   9.954   1.706   7.901 -0.1264 -0.1749  0.0542
  261loPI    C1 4161  12.883   6.091   9.922 -0.2125  0.2064 -0.0250
  261loPI    C2 4162  12.977   6.219  10.289  0.2360 -0.1880  0.0067
  261loPI    C3 4163  12.698   5.936  10.242  0.0594 -0.0190  0.0274
  261loPI   PO4 4164  13.163   6.208   9.762  0.0175 -0.0109 -0.1311
  261loPI   GL1 4165  13.379   6.233   9.347 -0.2112 -0.2148 -0.0048
  261loPI   GL2 4166  13.581   6.403   9.106 -0.0620 -0.3535  0.0760
  261loPI   C1A 4167  13.097   5.832   9.179  0.0608  0.2263  0.0976
  261loPI   C2A 4168  13.166   5.556   8.745  0.1604 -0.1083  0.1668
  261loPI   C3A 4169  12.949   5.162   8.527 -0.2794  0.0047  0.1447
  261loPI   C4A 4170  12.718   4.944   8.211  0.4378  0.4716 -0.2695
  261loPI   C5A 4171  12.397   4.659   8.061 -0.2035  0.2299  0.1233
  261loPI   C6A 4172  12.271   4.155   8.161 -0.0449 -0.0468 -0.1213
  261loPI   C1B 4173  13.763   6.713   8.667  0.4138  0.1901 -0.0853
  261loPI   C2B 4174  13.860   6.577   8.338 -0.1101  0.0863  0.3454
  261loPI   C3B 4175  13.795   6.522   8.015  0.2303  0.0593 -0.3293
  261loPI   C4B 4176  13.514   6.427   7.704 -0.1005 -0.1085  0.2002
  262loPI    C1 4177  18.176  16.036   9.747  0.0435  0.3659  0.0248
  262loPI    C2 4178  17.939  16.089  10.065 -0.1935 -0.0729 -0.0696
  262loPI    C3 4179  18.107  15.732   9.999 -0.3154 -0.0482 -0.5470
  262loPI   PO4 4180  18.043  16.087   9.583  0.1443  0.0897 -0.0067
  262loPI   GL1 4181  18.276  16.252   9.257  0.0507  0.2117  0.0913
  262loPI   GL2 4182  18.611  16.498   9.333  0.0819 -0.0972 -0.0974
  262loPI   C1A 4183  18.222  16.426   8.845  0.1877 -0.0027  0.0769
  262loPI   C2A 4184  18.042  16.427   8.428  0.5298 -0.2934 -0.3574
  262loPI   C3A 4185  17.860  16.359   8.082  0.0206 -0.1254 -0.0488
  262loPI   C4A 4186  18.118  16.503   7.686  0.0503  0.0762 -0.0615
  262loPI   C5A 4187  18.148  16.959   7.577 -0.0407  0.2862  0.2987
  262loPI   C6A 4188  18.188  17.373   7.796  0.1179  0.0788  0.3382
  262loPI   C1B 4189  18.595  16.739   8.986 -0.0535 -0.0667  0.2958
  262loPI   C2B 4190  18.579  16.554   8.474  0.0562  0.2685  0.0638
  262loPI   C3B 4191  18.939  16.548   8.114 -0.0887  0.3877  0.1704
  262loPI   C4B 4192  18.841  16.527   7.711  0.3139 -0.0434  0.0995
  263loPI    C1 4193   7.767  12.683   9.945 -0.2133  0.0709  0.0176
  263loPI    C2 4194   7.518  12.709  10.258 -0.0403 -0.1928  0.1806
  263loPI    C3 4195   7.886  12.559  10.306 -0.0804 -0.4232 -0.1884
  263loPI   PO4 4196   7.595  12.782   9.768  0.2035  0.1444  0.1287
  263loPI   GL1 4197   7.580  12.779   9.268  0.0907 -0.0306  0.0963
  263loPI   GL2 4198   7.608  13.144   9.426  0.0059  0.2982  0.0661
  263loPI   C1A 4199   7.444  12.754   8.898  0.0196 -0.4171  0.1506
  263loPI   C2A 4200   7.501  12.676   8.492  0.2666  0.2686 -0.0715
  263loPI   C3A 4201   7.721  12.701   8.124 -0.3208  0.1789  0.3174
  263loPI   C4A 4202   7.706  12.959   7.792 -0.0548  0.1986 -0.2831
  263loPI   C5A 4203   7.850  13.349   7.549  0.0311 -0.1475  0.1131
  263loPI   C6A 4204   7.864  13.790   7.443 -0.3217  0.0737 -0.0911
  263loPI   C1B 4205   7.792  13.118   8.975 -0.2870 -0.0403 -0.0666
  263loPI   C2B 4206   7.728  13.126   8.548 -0.2708  0.2065  0.0490
  263loPI   C3B 4207   7.818  13.266   8.183 -0.0534 -0.0482  0.3951
  263loPI   C4B 4208   7.816  13.726   7.939  0.0952  0.5359 -0.2524
  264loPI    C1 4209   2.058   4.936   9.653  0.0960 -0.2558 -0.0040
  264loPI    C2 4210   2.206   5.221   9.415  0.0163 -0.1572  0.0634
  264loPI    C3 4211   2.270   5.237   9.809 -0.0225 -0.2110  0.0720
  264loPI   PO4 4212   1.856   4.833   9.395 -0.2028 -0.2399 -0.2500
  264loPI   GL1 4213   1.580   4.772   9.008 -0.0402 -0.1347 -0.3944
  264loPI   GL2 4214   1.405   4.627   8.591 -0.0006  0.0110  0.0048
  264loPI   C1A 4215   1.788   5.088   8.706 -0.0698 -0.0189  0.3457
  264loPI   C2A 4216   1.871   4.930   8.275 -0.0297 -0.1053  0.1757
  264loPI   C3A 4217   1.749   4.971   7.841 -0.1744 -0.2650  0.1514
  264loPI   C4A 4218   1.377   4.845   7.714  0.3444 -0.1242 -0.0988
  264loPI   C5A 4219   0.976   4.691   7.570 -0.1978 -0.1347 -0.0901
  264loPI   C6A 4220   0.716   4.413   7.738  0.1581 -0.1412  0.0850
  264loPI   C1B 4221   1.538   4.555   8.087  0.2503  0.0084  0.1218
  264loPI   C2B 4222   1.816   4.379   7.871 -0.5403  0.0108  0.2176
  264loPI   C3B 4223   2.195   4.181   7.613  0.2607  0.0464 -0.2300
  264loPI   C4B 4224   2.513   3.965   7.472  0.1308 -0.0180 -0.0022
  265loPI    C1 4225  17.095  12.973   9.637 -0.0044 -0.3469 -0.0045
  265loPI    C2 4226  17.172  12.716   9.934 -0.0977 -0.2466  0.1076
  265loPI    C3 4227  17.059  13.090  10.018  0.2294 -0.1075 -0.0526
  265loPI   PO4 4228  17.333  13.013   9.428 -0.0018  0.2087 -0.1145
  265loPI   GL1 4229  17.433  13.276   9.111 -0.0927  0.0688  0.2260
  265loPI   GL2 4230  17.118  13.392   9.154 -0.2737 -0.0529 -0.0255
  265loPI   C1A 4231  17.343  13.639   8.831 -0.1408 -0.0121 -0.1259
  265loPI   C2A 4232  17.308  13.715   8.475 -0.3279 -0.0397 -0.1410
  265loPI   C3A 4233  17.192  13.732   8.073  0.2878 -0.4862  0.2940
  265loPI   C4A 4234  17.062  13.903   7.667  0.0688 -0.1177  0.1995
  265loPI   C5A 4235  16.991  14.000   7.181  0.1390  0.0445  0.1651
  265loPI   C6A 4236  16.852  13.791   6.756  0.0695 -0.2381  0.2608
  265loPI   C1B 4237  16.901  13.413   8.799 -0.0603  0.1514  0.1605
  265loPI   C2B 4238  16.770  13.668   8.376 -0.3364 -0.0294  0.2924
  265loPI   C3B 4239  16.579  13.686   7.880 -0.0305 -0.2749  0.0405
  265loPI   C4B 4240  16.373  14.103   7.869  0.0886  0.0545  0.0967
  266loPI    C1 4241   7.692  17.576  10.597 -0.1305 -0.0587 -0.3224
  266loPI    C2 4242   8.013  17.733  10.777 -0.0806 -0.1089 -0.3673
  266loPI    C3 4243   7.874  17.377  10.893 -0.2802  0.0312 -0.1677
  266loPI   PO4 4244   7.688  17.689  10.394  0.1433 -0.0581 -0.0829
  266loPI   GL1 4245   7.941  17.714   9.991  0.1234  0.0869 -0.2619
  266loPI   GL2 4246   7.681  17.566   9.880  0.1518  0.1889  0.1295
  266loPI   C1A 4247   8.089  17.829   9.605  0.0477 -0.1131 -0.0235
  266loPI   C2A 4248   8.233  17.633   9.254 -0.1019  0.1940  0.2469
  266loPI   C3A 4249   8.280  17.371   8.898  0.0121 -0.0433  0.0901
  266loPI   C4A 4250   8.401  17.348   8.415 -0.3176 -0.0318 -0.1304
  266loPI   C5A 4251   8.253  17.222   8.025  0.0568 -0.0718 -0.2084
  266loPI   C6A 4252   8.233  17.666   7.675 -0.0327 -0.1007 -0.1083
  266loPI   C1B 4253   7.571  17.882   9.644  0.0133 -0.2408  0.1204
  266loPI   C2B 4254   7.666  17.901   9.223 -0.3092 -0.1323  0.3018
  266loPI   C3B 4255   7.822  17.840   8.875 -0.2114  0.1009  0.4172
  266loPI   C4B 4256   8.054  17.715   8.593 -0.1670 -0.1087 -0.1724
  267loPI    C1 4257  11.846   0.629  10.295 -0.0192  0.0878  0.3128
  267loPI    C2 4258  12.100   0.322  10.333 -0.0820 -0.0224 -0.1080
  267loPI    C3 4259  12.207   0.687  10.456  0.0680 -0.1723  0.2169
  267loPI   PO4 4260  11.608   0.582  10.187 -0.1617 -0.1520 -0.1988
  267loPI   GL1 4261  11.511   0.493   9.776  0.0979  0.1069  0.0523
  267loPI   GL2 4262  11.343   0.207   9.718  0.1782  0.2323 -0.1622
  267loPI   C1A 4263  11.431   0.773   9.473 -0.2656  0.0784 -0.0251
  267loPI   C2A 4264  11.557   0.611   9.084  0.1396 -0.3259 -0.0365
  267loPI   C3A 4265  11.569   0.560   8.667  0.0977 -0.0609  0.0433
  267loPI   C4A 4266  11.575   0.600   8.255 -0.2500  0.2015 -0.0992
  267loPI   C5A 4267  11.643   0.964   7.996 -0.2414  0.1568 -0.0373
  267loPI   C6A 4268  11.349   1.098   7.739  0.0590  0.3650 -0.2184
  267loPI   C1B 4269  11.322   0.243   9.305 -0.1038 -0.1817  0.1701
  267loPI   C2B 4270  11.329   0.173   8.841 -0.0350  0.0296  0.1525
  267loPI   C3B 4271  11.445   0.072   8.416  0.1312  0.1935  0.2687
  267loPI   C4B 4272  11.380   0.157   7.961  0.0584 -0.0455  0.0935
  268loPI    C1 4273  10.564   9.617   9.781  0.1314 -0.0268 -0.0131
  268loPI    C2 4274  10.379   9.740  10.113  0.1273 -0.0589 -0.0036
  268loPI    C3 4275  10.546   9.376  10.099  0.1348 -0.0543 -0.0336
  268loPI   PO4 4276  10.434   9.519   9.603 -0.2355  0.0733 -0.0743
  268loPI   GL1 4277  10.513   9.602   9.248  0.0238  0.3392  0.1714
  268loPI   GL2 4278  10.830   9.564   9.359 -0.0642 -0.0779  0.2517
  268loPI   C1A 4279  10.660   9.497   8.859  0.0049 -0.0019  0.2946
  268loPI   C2A 4280  10.775   9.431   8.359  0.3344 -0.0456 -0.0429
  268loPI   C3A 4281  11.020   9.548   8.066 -0.3224 -0.2140 -0.0779
  268loPI   C4A 4282  11.294   9.676   7.741 -0.1483 -0.1136 -0.1876
  268loPI   C5A 4283  11.685   9.928   7.779 -0.0103 -0.1423 -0.1422
  268loPI   C6A 4284  12.061   9.907   7.869 -0.1447 -0.1277 -0.0145
  268loPI   C1B 4285  11.133   9.521   8.999  0.2682  0.1676  0.1820
  268loPI   C2B 4286  11.220   9.572   8.590  0.0778 -0.4150  0.4145
  268loPI   C3B 4287  11.512   9.536   8.236 -0.2280  0.0008 -0.2686
  268loPI   C4B 4288  11.700   9.407   7.762  0.1992  0.3614 -0.1243
  269loPI    C1 4289   3.860   3.006   9.146  0.0809  0.0576  0.0494
  269loPI    C2 4290   4.238   3.137   9.161  0.1003 -0.0118  0.1775
  269loPI    C3 4291   3.956   3.312   9.385  0.0052  0.2021 -0.1029
  269loPI   PO4 4292   3.781   2.950   8.878 -0.1815  0.2235 -0.2511
  269loPI   GL1 4293   3.916   3.020   8.420  0.2868 -0.2090  0.0115
  269loPI   GL2 4294   3.780   3.309   8.479 -0.2021  0.2189  0.1478
  269loPI   C1A 4295   4.219   2.823   8.170  0.4499 -0.2220 -0.2284
  269loPI   C2A 4296   4.251   2.456   7.830 -0.1762 -0.1105  0.2555
  269loPI   C3A 4297   4.216   2.240   7.479 -0.0708 -0.2779 -0.2220
  269loPI   C4A 4298   4.120   1.936   7.346  0.1522  0.1439  0.1963
  269loPI   C5A 4299   4.199   1.528   7.276  0.1222  0.1494  0.1504
  269loPI   C6A 4300   4.455   1.199   7.118 -0.3918 -0.2063  0.0223
  269loPI   C1B 4301   3.705   3.338   8.122  0.2169 -0.1659  0.0986
  269loPI   C2B 4302   3.722   3.281   7.721  0.0634 -0.4796 -0.0034
  269loPI   C3B 4303   3.681   3.187   7.248 -0.1976  0.2536 -0.0438
  269loPI   C4B 4304   3.924   3.120   6.984 -0.0072  0.1731 -0.1147
  270loPI    C1 4305   2.048  18.199   9.709 -0.0617  0.0477 -0.1990
  270loPI    C2 4306   2.263  18.174   9.372  0.2437  0.2004 -0.0201
  270loPI    C3 4307   2.437  18.292   9.712 -0.1580  0.4684  0.1002
  270loPI   PO4 4308   1.837  18.030   9.583  0.1313 -0.2931  0.2539
  270loPI   GL1 4309   1.500  17.951   9.314 -0.1520  0.1383 -0.3370
  270loPI   GL2 4310   1.660  17.668   9.081 -0.1455 -0.0464 -0.2038
  270loPI   C1A 4311   1.152  18.073   9.159 -0.1501 -0.0985  0.1298
  270loPI   C2A 4312   0.860  18.092   8.799 -0.2103  0.0308  0.2524
  270loPI   C3A 4313   0.686  17.841   8.599  0.1072  0.2723  0.0459
  270loPI   C4A 4314   0.242  17.823   8.349 -0.0848 -0.1851 -0.0459
  270loPI   C5A 4315   0.057  17.850   7.925 -0.2299  0.1011 -0.1099
  270loPI   C6A 4316  -0.260  17.882   7.532  0.0696 -0.0076  0.4083
  270loPI   C1B 4317   1.818  17.882   8.767 -0.1322  0.2277  0.1792
  270loPI   C2B 4318   1.836  18.005   8.356  0.1176 -0.0601 -0.0982
  270loPI   C3B 4319   1.894  17.856   7.946 -0.0881 -0.2411  0.0315
  270loPI   C4B 4320   1.879  17.531   7.610  0.0236 -0.0921  0.1135
  271loPI    C1 4321  13.177   3.418  10.317  0.0235  0.0681 -0.0318
  271loPI    C2 4322  12.866   3.494  10.077  0.0325 -0.1544 -0.1168
  271loPI    C3 4323  12.813   3.476  10.473  0.0347  0.3035 -0.0896
  271loPI   PO4 4324  13.343   3.326  10.149  0.0990 -0.2707 -0.0623
  271loPI   GL1 4325  13.427   2.942   9.898 -0.1409  0.1100  0.0254
  271loPI   GL2 4326  13.186   3.048   9.562 -0.0309 -0.3418  0.1527
  271loPI   C1A 4327  13.685   3.004   9.498 -0.1144 -0.3393 -0.0953
  271loPI   C2A 4328  13.922   3.026   9.104  0.0384 -0.1828 -0.0656
  271loPI   C3A 4329  14.017   2.941   8.746 -0.1716  0.1774 -0.0878
  271loPI   C4A 4330  13.818   3.079   8.379 -0.2596  0.0674 -0.3131
  271loPI   C5A 4331  13.368   3.362   8.171  0.1539  0.2180 -0.0038
  271loPI   C6A 4332  13.224   3.661   7.937  0.0657 -0.1803 -0.3023
  271loPI   C1B 4333  13.222   3.161   9.145  0.0162  0.1360 -0.3269
  271loPI   C2B 4334  13.173   3.296   8.665 -0.1992 -0.2910 -0.3554
  271loPI   C3B 4335  12.985   3.613   8.430 -0.1710 -0.2417 -0.0729
  271loPI   C4B 4336  12.775   3.862   8.061 -0.2458 -0.1798  0.2087
  272loPI    C1 4337  18.827   9.205   9.983  0.3925  0.1214 -0.1023
  272loPI    C2 4338  18.610   9.541   9.972  0.1141 -0.0486  0.0580
  272loPI    C3 4339  18.936   9.521  10.203  0.0885  0.0859  0.1066
  272loPI   PO4 4340  18.777   9.066   9.740  0.2102  0.3076  0.1960
  272loPI   GL1 4341  18.781   9.130   9.235  0.0356  0.0400 -0.1206
  272loPI   GL2 4342  18.596   9.344   9.053 -0.1765 -0.0006 -0.0861
  272loPI   C1A 4343  18.677   8.969   8.740 -0.5799 -0.1904  0.0387
  272loPI   C2A 4344  18.581   8.875   8.398 -0.0417  0.0277 -0.2510
  272loPI   C3A 4345  18.765   8.639   8.098  0.5757  0.0272  0.0475
  272loPI   C4A 4346  18.847   8.448   7.617  0.0538  0.0535 -0.2362
  272loPI   C5A 4347  19.144   8.603   7.091  0.0256  0.0574 -0.0492
  272loPI   C6A 4348  19.519   8.719   6.776 -0.2527 -0.3443  0.0032
  272loPI   C1B 4349  18.366   9.277   8.613  0.0389 -0.1693 -0.1068
  272loPI   C2B 4350  18.116   9.355   8.240 -0.2240 -0.0306 -0.1295
  272loPI   C3B 4351  18.066   9.258   7.816  0.0261  0.1544 -0.1370
  272loPI   C4B 4352  18.257   8.842   7.552  0.1025 -0.4123 -0.1158
  273loPI    C1 4353   4.981   3.237   9.504 -0.0243 -0.2178 -0.1139
  273loPI    C2 4354   4.739   3.264   9.821  0.0644 -0.0164 -0.0617
  273loPI    C3 4355   5.128   3.351   9.858  0.0988 -0.1088 -0.1993
  273loPI   PO4 4356   4.813   3.244   9.207  0.4242 -0.0198  0.2679
  273loPI   GL1 4357   4.765   3.193   8.737 -0.1861 -0.1073 -0.1271
  273loPI   GL2 4358   4.859   3.513   8.378  0.1090  0.1428 -0.2385
  273loPI   C1A 4359   4.367   3.240   8.444  0.3173 -0.1419  0.0775
  273loPI   C2A 4360   4.168   3.283   8.121 -0.0713 -0.0332  0.1007
  273loPI   C3A 4361   4.211   3.251   7.678  0.0731 -0.0489 -0.2678
  273loPI   C4A 4362   4.103   2.928   7.432 -0.2734 -0.0497  0.0297
  273loPI   C5A 4363   4.272   2.642   7.154  0.0736  0.2428  0.1978
  273loPI   C6A 4364   4.716   2.570   6.896  0.0937 -0.3291 -0.0198
  273loPI   C1B 4365   5.194   3.414   7.990 -0.1679  0.1969  0.0733
  273loPI   C2B 4366   5.393   3.506   7.513 -0.1484 -0.1961 -0.1715
  273loPI   C3B 4367   5.417   3.337   7.022 -0.1498 -0.1994 -0.1671
  273loPI   C4B 4368   5.464   3.123   6.655  0.1563  0.1989 -0.0905
  274loPI    C1 4369   5.860   5.536   9.254  0.1494 -0.1200  0.1902
  274loPI    C2 4370   6.107   5.850   9.235 -0.2321  0.1783  0.0293
  274loPI    C3 4371   5.949   5.740   9.586  0.0933  0.0091  0.1265
  274loPI   PO4 4372   5.996   5.351   9.097  0.4859 -0.0672  0.2190
  274loPI   GL1 4373   6.250   5.601   8.712  0.0495 -0.3105  0.0727
  274loPI   GL2 4374   6.490   5.588   8.838  0.0882 -0.1464 -0.1669
  274loPI   C1A 4375   6.233   5.983   8.378  0.1306  0.2396  0.3173
  274loPI   C2A 4376   6.046   6.043   8.091 -0.1338 -0.4548  0.0041
  274loPI   C3A 4377   6.036   6.313   7.729 -0.0160 -0.2044 -0.1726
  274loPI   C4A 4378   6.220   6.570   7.483 -0.1951  0.1636 -0.4555
  274loPI   C5A 4379   6.596   6.685   7.362  0.0047 -0.1254 -0.0442
  274loPI   C6A 4380   6.691   7.003   7.062  0.0119  0.1541 -0.0598
  274loPI   C1B 4381   6.833   5.653   8.565  0.2929  0.2441  0.0947
  274loPI   C2B 4382   7.105   5.712   8.399  0.1468 -0.2851  0.2477
  274loPI   C3B 4383   7.471   5.854   8.336  0.1284 -0.0118  0.3603
  274loPI   C4B 4384   7.842   6.030   8.253  0.0231  0.0644 -0.1343
  275loPI    C1 4385  10.303   7.382   9.793 -0.0364  0.0520 -0.0458
  275loPI    C2 4386  10.657   7.481   9.637  0.0060 -0.0226  0.0025
  275loPI    C3 4387  10.506   7.693   9.940  0.1129 -0.1253  0.1291
  275loPI   PO4 4388  10.190   7.291   9.521 -0.1014 -0.1122  0.0254
  275loPI   GL1 4389  10.005   7.464   9.169 -0.0040  0.2474 -0.0976
  275loPI   GL2 4390   9.822   7.265   9.063  0.0139  0.1384  0.1913
  275loPI   C1A 4391  10.314   7.698   8.950  0.1181 -0.3556  0.2305
  275loPI   C2A 4392  10.606   7.995   8.749  0.1233  0.3780  0.1345
  275loPI   C3A 4393  10.828   7.990   8.416  0.0033  0.0482 -0.0752
  275loPI   C4A 4394  10.963   7.753   8.128  0.0264 -0.0567  0.0684
  275loPI   C5A 4395  10.802   7.800   7.778 -0.2056  0.0871  0.1534
  275loPI   C6A 4396  11.015   7.628   7.455  0.0447 -0.0423 -0.3213
  275loPI   C1B 4397  10.078   7.331   8.694  0.5404 -0.0357  0.0456
  275loPI   C2B 4398  10.282   7.141   8.335 -0.1554  0.2418 -0.0003
  275loPI   C3B 4399  10.285   7.084   7.957  0.2441 -0.1865  0.0722
  275loPI   C4B 4400   9.925   7.211   7.703 -0.1749 -0.0912 -0.0435
  276loPI    C1 4401  14.791  14.400  10.344 -0.1043  0.0314 -0.1441
  276loPI    C2 4402  15.153  14.562  10.287 -0.0138 -0.1396 -0.0654
  276loPI    C3 4403  15.097  14.294  10.579 -0.2204 -0.0663 -0.0355
  276loPI   PO4 4404  14.554  14.610  10.378 -0.0695 -0.2856  0.1894
  276loPI   GL1 4405  14.384  14.854   9.990  0.1237 -0.0270 -0.1613
  276loPI   GL2 4406  14.284  15.180   9.986 -0.0419 -0.0636  0.0026
  276loPI   C1A 4407  14.563  14.923   9.605  0.2434 -0.0417 -0.3480
  276loPI   C2A 4408  14.577  14.654   9.179 -0.0969  0.0260 -0.3654
  276loPI   C3A 4409  14.407  14.415   9.023  0.0092  0.0338 -0.1747
  276loPI   C4A 4410  14.230  14.171   8.539 -0.2772 -0.0685  0.0321
  276loPI   C5A 4411  14.234  14.220   8.055 -0.0923 -0.2557  0.1929
  276loPI   C6A 4412  14.083  14.427   7.718 -0.1247  0.0666 -0.0198
  276loPI   C1B 4413  14.270  15.242   9.505  0.0779  0.0214  0.0015
  276loPI   C2B 4414  14.270  15.009   9.175  0.3265  0.4223 -0.0514
  276loPI   C3B 4415  14.124  15.074   8.771  0.0416  0.0835 -0.1331
  276loPI   C4B 4416  14.081  15.324   8.512 -0.1514  0.0433  0.0275
  277loPI    C1 4417   9.671  18.069  10.035 -0.0529  0.1107  0.0284
  277loPI    C2 4418   9.981  17.826   9.967 -0.1141  0.0586 -0.0654
  277loPI    C3 4419   9.995  18.207   9.846 -0.1888 -0.0112 -0.3004
  277loPI   PO4 4420   9.302  17.958   9.949  0.1368 -0.0545  0.1148
  277loPI   GL1 4421   9.329  18.246   9.598 -0.0346  0.4774 -0.2593
  277loPI   GL2 4422   9.204  18.007   9.438 -0.1792  0.3230  0.0982
  277loPI   C1A 4423   8.974  18.439   9.303  0.0486  0.0038  0.1133
  277loPI   C2A 4424   8.673  18.531   8.962  0.0369  0.0198  0.0498
  277loPI   C3A 4425   8.500  18.654   8.505 -0.3187  0.1317 -0.2479
  277loPI   C4A 4426   8.283  18.475   8.138 -0.2907 -0.0975 -0.3590
  277loPI   C5A 4427   8.078  18.317   7.868  0.4544 -0.3618  0.1037
  277loPI   C6A 4428   7.903  18.011   7.714  0.0043 -0.0830  0.1686
  277loPI   C1B 4429   9.173  18.104   8.970  0.1238  0.2646 -0.0651
  277loPI   C2B 4430   8.865  18.260   8.612 -0.2550 -0.5268 -0.0182
  277loPI   C3B 4431   8.858  18.326   8.246 -0.2366 -0.0814 -0.2343
  277loPI   C4B 4432   9.004  18.145   7.848 -0.1582 -0.1282  0.2570
  278loPI    C1 4433  14.060   0.391  10.706 -0.0247 -0.1384 -0.1198
  278loPI    C2 4434  14.149   0.134  11.000 -0.1485 -0.2557 -0.1836
  278loPI    C3 4435  13.906   0.444  11.072  0.1737 -0.0284 -0.0511
  278loPI   PO4 4436  14.039   0.160  10.500  0.0604  0.0278  0.1347
  278loPI   GL1 4437  14.330   0.098  10.175  0.0401  0.1347 -0.0350
  278loPI   GL2 4438  14.240   0.123   9.908 -0.1682 -0.0959  0.0158
  278loPI   C1A 4439  14.544  -0.230   9.866 -0.0443  0.2828  0.2003
  278loPI   C2A 4440  14.420  -0.357   9.477  0.2446  0.0842  0.3094
  278loPI   C3A 4441  14.606  -0.224   9.128 -0.1590 -0.2639  0.2400
  278loPI   C4A 4442  14.606  -0.274   8.715  0.1671 -0.0756  0.0466
  278loPI   C5A 4443  14.628  -0.374   8.264 -0.1740 -0.1167  0.1471
  278loPI   C6A 4444  14.500  -0.104   8.049 -0.0681 -0.1003  0.1989
  278loPI   C1B 4445  14.205   0.186   9.463 -0.0169 -0.0061 -0.3511
  278loPI   C2B 4446  14.242   0.134   9.023  0.0846  0.0662  0.0748
  278loPI   C3B 4447  14.202  -0.038   8.657 -0.0913  0.2737 -0.1373
  278loPI   C4B 4448  14.092  -0.060   8.312 -0.3284 -0.1507 -0.1622
  279loPI    C1 4449  18.620  17.188   9.606  0.1167  0.1096 -0.3014
  279loPI    C2 4450  18.438  17.509   9.453 -0.2982 -0.0933 -0.2481
  279loPI    C3 4451  18.605  17.528   9.816 -0.2489  0.0843 -0.2792
  279loPI   PO4 4452  18.864  17.093   9.453 -0.1034  0.2114  0.3458
  279loPI   GL1 4453  19.125  16.961   9.031 -0.0972  0.2707 -0.2733
  279loPI   GL2 4454  19.507  16.871   9.018 -0.1675  0.0052 -0.1780
  279loPI   C1A 4455  19.033  17.099   8.640  0.0497 -0.0885  0.0478
  279loPI   C2A 4456  18.997  17.034   8.245 -0.0906  0.2256 -0.2620
  279loPI   C3A 4457  18.743  17.093   7.868 -0.3993 -0.1446 -0.4432
  279loPI   C4A 4458  18.546  17.171   7.432  0.2410 -0.3946  0.2223
  279loPI   C5A 4459  18.158  17.346   7.224  0.2620  0.3098 -0.0508
  279loPI   C6A 4460  17.992  17.550   6.780  0.1571 -0.0061 -0.2590
  279loPI   C1B 4461  19.550  17.014   8.572  0.0824  0.1950 -0.1704
  279loPI   C2B 4462  19.514  17.183   8.200 -0.0154 -0.1698 -0.3119
  279loPI   C3B 4463  19.272  17.356   7.896  0.2643 -0.1443 -0.2997
  279loPI   C4B 4464  19.047  17.339   7.481 -0.1399 -0.0517 -0.0876
  280loPI    C1 4465  17.378  19.324  10.059 -0.1438 -0.3002  0.0281
  280loPI    C2 4466  17.589  19.455  10.373 -0.1478 -0.1306 -0.0386
  280loPI    C3 4467  17.549  19.062  10.308  0.1334 -0.1653 -0.0158
  280loPI   PO4 4468  17.194  19.521   9.946  0.0951 -0.0438  0.0586
  280loPI   GL1 4469  17.010  19.923   9.795 -0.1194  0.2122  0.1583
  280loPI   GL2 4470  16.706  20.045   9.922  0.0277 -0.0411 -0.0974
  280loPI   C1A 4471  17.268  20.051   9.461  0.1951 -0.0661  0.1157
  280loPI   C2A 4472  17.279  20.360   9.023  0.1395 -0.1124 -0.0168
  280loPI   C3A 4473  17.198  20.621   8.708 -0.3049  0.1319  0.0787
  280loPI   C4A 4474  16.806  20.698   8.421 -0.0607 -0.1999 -0.1818
  280loPI   C5A 4475  16.678  20.557   8.006  0.0508  0.1652 -0.2794
  280loPI   C6A 4476  16.423  20.371   7.664 -0.0361  0.1904  0.2483
  280loPI   C1B 4477  16.539  19.925   9.558 -0.1614 -0.0930 -0.0476
  280loPI   C2B 4478  16.835  20.006   9.207 -0.0052  0.0221 -0.1276
  280loPI   C3B 4479  16.775  19.940   8.794  0.1432 -0.1321 -0.1903
  280loPI   C4B 4480  17.098  19.883   8.568 -0.2266  0.2361  0.3437
  281loPI    C1 4481  16.212   4.315   9.783  0.1841 -0.0573  0.4040
  281loPI    C2 4482  16.394   4.670   9.815  0.0285  0.0402  0.2287
  281loPI    C3 4483  16.128   4.556  10.092  0.0941  0.0505  0.2964
  281loPI   PO4 4484  16.399   4.111   9.745 -0.0807  0.2650 -0.3035
  281loPI   GL1 4485  16.506   3.886   9.427  0.1035 -0.0256  0.3539
  281loPI   GL2 4486  16.527   3.514   9.488  0.1552 -0.0583  0.0343
  281loPI   C1A 4487  16.769   4.133   8.957 -0.1762 -0.4177  0.4390
  281loPI   C2A 4488  16.653   4.339   8.588  0.0880  0.0523 -0.0798
  281loPI   C3A 4489  16.638   4.336   8.222  0.1115 -0.0514 -0.1074
  281loPI   C4A 4490  16.561   4.302   7.772 -0.0166 -0.0891  0.2541
  281loPI   C5A 4491  16.209   4.366   7.545 -0.1104  0.0514 -0.2550
  281loPI   C6A 4492  16.180   4.489   7.078  0.0365  0.2643 -0.4769
  281loPI   C1B 4493  16.317   3.457   9.226  0.2418  0.1408 -0.2972
  281loPI   C2B 4494  16.120   3.488   8.854 -0.5048 -0.1230  0.0965
  281loPI   C3B 4495  15.958   3.515   8.458 -0.2912  0.3964 -0.1029
  281loPI   C4B 4496  15.984   3.779   8.216 -0.1180 -0.1922  0.2684
  282loPI    C1 4497   0.158  16.469   9.720  0.0165 -0.0484  0.1075
  282loPI    C2 4498   0.322  16.116   9.812  0.1071 -0.0317  0.0118
  282loPI    C3 4499   0.135  16.329  10.094  0.2167 -0.0687  0.1133
  282loPI   PO4 4500   0.202  16.396   9.439 -0.1316 -0.1230  0.1024
  282loPI   GL1 4501   0.101  16.374   8.979  0.4470 -0.0313 -0.1212
  282loPI   GL2 4502   0.428  16.427   8.831 -0.0096 -0.0109  0.4948
  282loPI   C1A 4503   0.100  16.069   8.580  0.0743  0.0225  0.0677
  282loPI   C2A 4504  -0.074  16.117   8.195 -0.1793  0.3674  0.0712
  282loPI   C3A 4505  -0.085  16.243   7.831 -0.5063  0.1540  0.2862
  282loPI   C4A 4506   0.057  16.382   7.491 -0.0361 -0.1563 -0.1695
  282loPI   C5A 4507   0.168  16.722   7.244  0.3673 -0.1836  0.0009
  282loPI   C6A 4508   0.051  17.112   7.172  0.0649 -0.2278 -0.1659
  282loPI   C1B 4509   0.509  16.555   8.402 -0.0448  0.1566  0.4543
  282loPI   C2B 4510   0.824  16.534   7.923  0.1499 -0.3785  0.2078
  282loPI   C3B 4511   1.016  16.384   7.472  0.2986 -0.3899 -0.1360
  282loPI   C4B 4512   1.005  16.241   6.903 -0.2930 -0.3011  0.1673
  283loPI    C1 4513   3.109   0.073   9.815  0.2523 -0.0988  0.2669
  283loPI    C2 4514   2.921   0.141  10.162  0.1144  0.0561  0.1634
  283loPI    C3 4515   3.005  -0.234  10.050 -0.4126 -0.0419  0.0684
  283loPI   PO4 4516   3.021   0.123   9.548  0.1567 -0.0661 -0.0848
  283loPI   GL1 4517   3.102   0.050   9.133  0.1949 -0.0057 -0.0931
  283loPI   GL2 4518   3.250   0.327   8.973  0.6213  0.0745  0.0078
  283loPI   C1A 4519   3.213  -0.136   8.754 -0.1185 -0.1210  0.1235
  283loPI   C2A 4520   3.523  -0.136   8.458  0.0412  0.0420  0.2586
  283loPI   C3A 4521   3.738  -0.283   8.060 -0.1398  0.2000  0.0705
  283loPI   C4A 4522   4.036  -0.285   7.746  0.0132 -0.0900 -0.1100
  283loPI   C5A 4523   4.213  -0.458   7.385 -0.2080  0.4461 -0.1909
  283loPI   C6A 4524   4.594  -0.686   7.342 -0.0717 -0.0161 -0.2429
  283loPI   C1B 4525   3.467   0.418   8.614  0.3573 -0.0892 -0.2162
  283loPI   C2B 4526   3.605   0.288   8.164 -0.0778 -0.0065  0.1910
  283loPI   C3B 4527   3.784   0.408   7.741  0.2636  0.0748  0.0332
  283loPI   C4B 4528   4.211   0.388   7.603  0.4515 -0.1680 -0.2918
  284loPI    C1 4529  16.438  14.336   9.738 -0.0649  0.2116 -0.0490
  284loPI    C2 4530  16.286  14.053   9.976 -0.2304  0.2134 -0.1510
  284loPI    C3 4531  16.649  14.202  10.050 -0.2149  0.1002  0.0060
  284loPI   PO4 4532  16.128  14.525   9.752  0.2967  0.0807 -0.0774
  284loPI   GL1 4533  15.898  14.510   9.500  0.0983  0.0631  0.4161
  284loPI   GL2 4534  15.960  14.136   9.498 -0.1892  0.0309  0.2654
  284loPI   C1A 4535  15.939  14.732   9.050  0.2690 -0.1658  0.0115
  284loPI   C2A 4536  16.067  14.504   8.684 -0.0288 -0.2522  0.1112
  284loPI   C3A 4537  15.797  14.735   8.328 -0.1383  0.4332 -0.1667
  284loPI   C4A 4538  15.580  15.037   8.065 -0.0721 -0.2017 -0.2230
  284loPI   C5A 4539  15.568  15.018   7.563 -0.0995  0.2087 -0.1762
  284loPI   C6A 4540  15.797  15.463   7.350  0.1408 -0.3802 -0.0535
  284loPI   C1B 4541  15.782  14.236   9.041  0.0391  0.2068  0.1249
  284loPI   C2B 4542  15.575  14.503   8.721  0.3833  0.0382 -0.0007
  284loPI   C3B 4543  15.354  14.384   8.304  0.2521  0.0126  0.4300
  284loPI   C4B 4544  15.087  14.332   7.936 -0.0045  0.4903 -0.2162
  285loPI    C1 4545   8.788   4.779   9.535  0.1429 -0.0820  0.0107
  285loPI    C2 4546   8.611   4.617   9.855  0.1873 -0.0654  0.0437
  285loPI    C3 4547   8.745   4.994   9.870  0.0911 -0.0281 -0.0302
  285loPI   PO4 4548   8.568   4.756   9.343  0.3779 -0.2653  0.1080
  285loPI   GL1 4549   8.647   4.512   8.942  0.0202 -0.1570  0.1296
  285loPI   GL2 4550   8.645   4.827   8.806  0.1624  0.2190  0.0791
  285loPI   C1A 4551   8.892   4.338   8.681  0.0365  0.0502  0.2313
  285loPI   C2A 4552   9.335   4.406   8.499  0.1091  0.0369  0.0018
  285loPI   C3A 4553   9.648   4.185   8.316  0.0272 -0.0760  0.1843
  285loPI   C4A 4554  10.112   4.309   8.200  0.0586  0.3792  0.0213
  285loPI   C5A 4555  10.388   4.335   7.882  0.2297 -0.4028  0.0725
  285loPI   C6A 4556  10.357   4.370   7.411 -0.1289  0.1281  0.1126
  285loPI   C1B 4557   8.873   4.783   8.407  0.0012 -0.1629  0.1199
  285loPI   C2B 4558   9.106   4.554   8.095  0.5250  0.1091  0.1634
  285loPI   C3B 4559   9.441   4.396   7.791  0.3486  0.0456  0.0605
  285loPI   C4B 4560   9.761   4.120   7.849 -0.0823  0.2689 -0.1842
  286loPI    C1 4561   2.999   5.756   9.584  0.0647 -0.0814  0.1411
  286loPI    C2 4562   3.224   6.085   9.624 -0.1211  0.0241  0.3381
  286loPI    C3 4563   3.357   5.734   9.761  0.0065  0.0484  0.2776
  286loPI   PO4 4564   2.934   5.697   9.357 -0.0915  0.0138 -0.2842
  286loPI   GL1 4565   2.575   5.653   9.167  0.0907  0.2657 -0.2310
  286loPI   GL2 4566   2.762   5.585   8.866 -0.1429 -0.1123  0.0849
  286loPI   C1A 4567   2.395   5.964   8.853 -0.0781 -0.2568  0.0660
  286loPI   C2A 4568   2.520   6.225   8.497  0.0001  0.2013  0.2674
  286loPI   C3A 4569   2.598   6.186   8.047 -0.0224  0.1374  0.1987
  286loPI   C4A 4570   2.836   5.942   7.821  0.0038 -0.1785  0.1594
  286loPI   C5A 4571   2.814   5.688   7.480 -0.0992  0.1791 -0.1516
  286loPI   C6A 4572   2.715   5.573   6.979  0.1251 -0.0603 -0.1276
  286loPI   C1B 4573   2.755   5.706   8.515 -0.4166  0.3023  0.1965
  286loPI   C2B 4574   2.508   5.630   8.079  0.3815 -0.1998  0.0611
  286loPI   C3B 4575   2.390   5.795   7.661  0.2420 -0.0451 -0.0910
  286loPI   C4B 4576   2.379   5.884   7.202  0.0007 -0.1125 -0.0889
  287loPI    C1 4577   5.835   1.948   9.500 -0.0441 -0.1486  0.0728
  287loPI    C2 4578   6.218   1.988   9.390 -0.1739  0.2139 -0.2685
  287loPI    C3 4579   6.096   2.126   9.745  0.0183  0.0576 -0.1401
  287loPI   PO4 4580   5.758   1.733   9.255  0.1310 -0.1322 -0.3444
  287loPI   GL1 4581   5.863   1.654   8.890  0.2174  0.2220  0.1602
  287loPI   GL2 4582   6.147   1.814   8.906  0.4358  0.1057 -0.2211
  287loPI   C1A 4583   5.871   1.630   8.451 -0.0170 -0.1517  0.0200
  287loPI   C2A 4584   6.098   1.546   8.093 -0.0876 -0.0174  0.0497
  287loPI   C3A 4585   6.042   1.555   7.721  0.1388  0.1238 -0.0406
  287loPI   C4A 4586   5.675   1.354   7.457 -0.0060  0.0457  0.2511
  287loPI   C5A 4587   5.594   1.256   7.043  0.0212 -0.1276  0.1490
  287loPI   C6A 4588   5.598   1.147   6.615 -0.3324 -0.2554  0.2918
  287loPI   C1B 4589   6.237   1.386   8.672  0.0139  0.0087  0.0021
  287loPI   C2B 4590   5.931   1.149   8.354 -0.0235  0.0943 -0.3097
  287loPI   C3B 4591   5.726   1.217   7.993 -0.0157  0.1715 -0.2819
  287loPI   C4B 4592   5.335   1.236   7.785 -0.0728  0.1393 -0.0868
  288loPI    C1 4593  10.123   4.827   9.828  0.0839 -0.0149  0.0848
  288loPI    C2 4594   9.975   4.484   9.973 -0.1439  0.1260  0.1919
  288loPI    C3 4595   9.975   4.814  10.199  0.0862  0.1956  0.0942
  288loPI   PO4 4596  10.013   4.758   9.511 -0.0046 -0.1010  0.0030
  288loPI   GL1 4597   9.778   4.709   9.070  0.3457  0.0322  0.2532
  288loPI   GL2 4598   9.939   4.457   9.077 -0.2506  0.0523 -0.0650
  288loPI   C1A 4599   9.882   4.595   8.594  0.1728 -0.0650  0.2314
  288loPI   C2A 4600   9.741   4.672   8.312  0.1060  0.1898  0.0029
  288loPI   C3A 4601   9.896   4.594   7.861  0.2980  0.1194  0.3902
  288loPI   C4A 4602   9.879   4.407   7.482 -0.0937 -0.1681 -0.1501
  288loPI   C5A 4603   9.664   4.171   7.214  0.0126  0.1771  0.0474
  288loPI   C6A 4604   9.721   3.758   7.009 -0.0549 -0.0033  0.4333
  288loPI   C1B 4605  10.095   4.145   8.766  0.0117 -0.0593  0.0950
  288loPI   C2B 4606  10.096   3.855   8.408  0.1745  0.1363 -0.1179
  288loPI   C3B 4607  10.252   3.762   7.989 -0.0851  0.0584  0.0062
  288loPI   C4B 4608  10.289   3.880   7.606  0.1702  0.2557 -0.1160
  289loPI    C1 4609   0.686  15.730   9.413 -0.1751 -0.1943 -0.0165
  289loPI    C2 4610   0.550  15.704   9.788  0.1262  0.1690  0.1233
  289loPI    C3 4611   0.935  15.631   9.709  0.0037 -0.1956 -0.1657
  289loPI   PO4 4612   0.509  15.587   9.298 -0.3067  0.1224 -0.2272
  289loPI   GL1 4613   0.150  15.448   8.988  0.1757  0.0360  0.1031
  289loPI   GL2 4614   0.057  15.772   8.964 -0.0572  0.3281  0.0437
  289loPI   C1A 4615   0.402  15.500   8.626 -0.1333 -0.2997 -0.3029
  289loPI   C2A 4616   0.541  15.911   8.470  0.1187 -0.1091  0.1483
  289loPI   C3A 4617   0.458  16.160   8.104  0.0032 -0.0129  0.0065
  289loPI   C4A 4618   0.533  16.269   7.655 -0.3992  0.1404 -0.4319
  289loPI   C5A 4619   0.572  16.719   7.574  0.3518 -0.0873 -0.3563
  289loPI   C6A 4620   0.496  17.153   7.305  0.1190 -0.4566  0.1473
  289loPI   C1B 4621  -0.107  15.602   8.600 -0.0880 -0.0757  0.2865
  289loPI   C2B 4622  -0.034  15.641   8.199 -0.1609  0.2840  0.4309
  289loPI   C3B 4623   0.226  15.768   7.802 -0.1776  0.2102  0.2861
  289loPI   C4B 4624   0.315  15.809   7.439  0.3197 -0.0794 -0.2521
  290loPI    C1 4625   3.780  16.914  10.019 -0.1881 -0.0652  0.0479
  290loPI    C2 4626   3.770  17.313  10.043  0.0565 -0.0583  0.0641
  290loPI    C3 4627   3.956  17.100  10.326 -0.0165 -0.1806  0.0209
  290loPI   PO4 4628   3.621  16.944   9.716 -0.1392 -0.1101  0.0082
  290loPI   GL1 4629   3.656  17.116   9.404 -0.2558 -0.2683 -0.0592
  290loPI   GL2 4630   3.733  17.400   9.540 -0.1141 -0.0521  0.0322
  290loPI   C1A 4631   3.528  17.185   9.022  0.1216 -0.0051  0.2755
  290loPI   C2A 4632   3.535  17.433   8.635 -0.0591 -0.1910  0.2454
  290loPI   C3A 4633   3.388  17.673   8.316 -0.0694  0.1865 -0.0619
  290loPI   C4A 4634   3.518  17.737   7.895 -0.2528  0.1904 -0.0807
  290loPI   C5A 4635   3.437  17.870   7.528 -0.0403 -0.2818  0.1905
  290loPI   C6A 4636   3.083  18.172   7.319 -0.1060 -0.0679 -0.3007
  290loPI   C1B 4637   3.598  17.658   9.182  0.2461 -0.3009 -0.1575
  290loPI   C2B 4638   3.312  17.825   8.872 -0.2414  0.1882 -0.3696
  290loPI   C3B 4639   3.052  17.553   8.653  0.0086  0.0394 -0.0096
  290loPI   C4B 4640   2.637  17.560   8.536  0.0085 -0.2417  0.1716
  291loPI    C1 4641   8.690  11.508   9.646  0.0592  0.0654  0.1073
  291loPI    C2 4642   8.899  11.174   9.579 -0.0287  0.0080  0.1178
  291loPI    C3 4643   9.085  11.528   9.587  0.0323 -0.0173 -0.1086
  291loPI   PO4 4644   8.592  11.554   9.481 -0.1167  0.0843  0.2327
  291loPI   GL1 4645   8.668  11.433   9.085 -0.0451 -0.2443  0.0097
  291loPI   GL2 4646   8.371  11.319   9.052  0.0588  0.1799  0.1502
  291loPI   C1A 4647   8.671  11.354   8.631  0.2927  0.3031 -0.1010
  291loPI   C2A 4648   8.889  11.082   8.373 -0.3300 -0.2100  0.1548
  291loPI   C3A 4649   8.853  10.748   7.993 -0.2201  0.0417 -0.2290
  291loPI   C4A 4650   8.864  10.906   7.533  0.0816  0.0106  0.0899
  291loPI   C5A 4651   8.810  10.908   7.113  0.0600  0.2118 -0.1501
  291loPI   C6A 4652   8.793  10.793   6.673  0.1041  0.0634  0.3232
  291loPI   C1B 4653   8.159  11.442   8.677  0.0458  0.0559 -0.0444
  291loPI   C2B 4654   8.080  11.755   8.313 -0.0213 -0.0470  0.0619
  291loPI   C3B 4655   8.173  12.215   8.192 -0.1688  0.0782 -0.0875
  291loPI   C4B 4656   8.267  12.591   8.062 -0.0463  0.0287  0.2075
  292loPI    C1 4657  15.227   2.765  10.355  0.1223 -0.0480 -0.3186
  292loPI    C2 4658  15.139   3.140  10.463  0.0443 -0.0742 -0.2909
  292loPI    C3 4659  15.452   2.954  10.627  0.0157 -0.0608 -0.2206
  292loPI   PO4 4660  15.096   2.788  10.100  0.0505  0.0374 -0.2662
  292loPI   GL1 4661  15.351   2.606   9.911 -0.1249 -0.0390 -0.0426
  292loPI   GL2 4662  15.458   2.312  10.000  0.1022  0.2715  0.1951
  292loPI   C1A 4663  15.156   2.408   9.566  0.1556  0.3761  0.1437
  292loPI   C2A 4664  15.141   2.059   9.343  0.2279  0.1107 -0.1252
  292loPI   C3A 4665  15.184   1.925   8.870  0.1255 -0.0444  0.0340
  292loPI   C4A 4666  14.915   1.688   8.751 -0.0547 -0.2256 -0.6059
  292loPI   C5A 4667  14.528   1.366   8.628  0.2610  0.2116  0.0333
  292loPI   C6A 4668  14.130   1.225   8.580  0.2566 -0.0404  0.0478
  292loPI   C1B 4669  15.412   1.989   9.708  0.0851  0.4064  0.0005
  292loPI   C2B 4670  15.717   1.832   9.333  0.2933 -0.2084  0.1834
  292loPI   C3B 4671  15.802   1.587   8.972  0.3291 -0.1067 -0.2769
  292loPI   C4B 4672  15.935   1.603   8.451  0.1373  0.0214  0.2019
  293loPI    C1 4673  10.274  11.089  10.345 -0.1350 -0.1480  0.0016
  293loPI    C2 4674   9.941  10.918  10.487 -0.3525  0.1743 -0.1069
  293loPI    C3 4675  10.194  11.100  10.737 -0.2952 -0.0030 -0.0338
  293loPI   PO4 4676  10.222  11.136  10.129 -0.0242 -0.0983 -0.1922
  293loPI   GL1 4677  10.377  11.176   9.662 -0.0325 -0.0972 -0.0263
  293loPI   GL2 4678  10.049  10.991   9.609 -0.2458  0.1687 -0.0222
  293loPI   C1A 4679  10.322  11.159   9.237  0.0709 -0.1906  0.1529
  293loPI   C2A 4680  10.385  11.037   8.727 -0.3826 -0.2245 -0.1388
  293loPI   C3A 4681  10.365  10.945   8.411 -0.3840 -0.0630 -0.1334
  293loPI   C4A 4682  10.391  10.957   8.051 -0.0519  0.2327 -0.0678
  293loPI   C5A 4683  10.471  10.862   7.726 -0.0398 -0.1825  0.1883
  293loPI   C6A 4684  10.277  10.768   7.336 -0.0619 -0.1717  0.0061
  293loPI   C1B 4685   9.970  11.401   9.388  0.0011 -0.2636  0.4210
  293loPI   C2B 4686  10.000  11.354   8.844  0.2639 -0.2157  0.1973
  293loPI   C3B 4687  10.137  11.386   8.400  0.2739  0.0752 -0.2581
  293loPI   C4B 4688  10.235  11.422   8.023  0.2039  0.0349  0.0737
  294loPI    C1 4689   1.486   3.515   9.195 -0.2078  0.1193  0.2961
  294loPI    C2 4690   1.096   3.534   9.281 -0.3020 -0.3145  0.0015
  294loPI    C3 4691   1.349   3.365   9.540 -0.3217 -0.1233  0.1484
  294loPI   PO4 4692   1.557   3.302   8.913  0.0402 -0.1575 -0.1012
  294loPI   GL1 4693   1.335   3.329   8.470 -0.1088  0.1555  0.0097
  294loPI   GL2 4694   1.500   3.640   8.326 -0.0800 -0.1875  0.0044
  294loPI   C1A 4695   1.333   3.115   8.138  0.1413 -0.0872  0.1962
  294loPI   C2A 4696   1.340   3.118   7.737 -0.3125 -0.0058  0.1750
  294loPI   C3A 4697   1.173   2.995   7.294  0.2264  0.0955 -0.0839
  294loPI   C4A 4698   0.977   2.557   7.251 -0.1109  0.2855  0.3361
  294loPI   C5A 4699   0.758   2.428   6.827  0.0515  0.2504 -0.2937
  294loPI   C6A 4700   0.496   1.981   6.714  0.3349 -0.4037 -0.3940
  294loPI   C1B 4701   1.583   3.474   7.957 -0.3268 -0.2577 -0.0178
  294loPI   C2B 4702   1.565   3.534   7.460  0.3435 -0.4954  0.1156
  294loPI   C3B 4703   1.483   3.384   7.081 -0.1378  0.1094 -0.1478
  294loPI   C4B 4704   1.412   3.616   6.734 -0.3245 -0.2451  0.1213
  295loPI    C1 4705  12.930  17.621  10.527  0.2363  0.1339  0.0025
  295loPI    C2 4706  12.562  17.646  10.374  0.1853 -0.2457  0.0533
  295loPI    C3 4707  12.612  17.624  10.770  0.2835  0.1191  0.0648
  295loPI   PO4 4708  13.121  17.471  10.412  0.1468  0.5904 -0.2684
  295loPI   GL1 4709  13.315  17.334   9.950  0.3264  0.3090 -0.1984
  295loPI   GL2 4710  13.055  17.342   9.844  0.0644  0.0053  0.0577
  295loPI   C1A 4711  13.461  17.649   9.649  0.0049  0.0820  0.0767
  295loPI   C2A 4712  13.577  17.898   9.225  0.2583 -0.1076 -0.2861
  295loPI   C3A 4713  13.727  18.261   8.995  0.1209  0.3785 -0.1120
  295loPI   C4A 4714  13.605  18.361   8.579  0.1903 -0.0961  0.0056
  295loPI   C5A 4715  13.721  18.547   8.192  0.0717 -0.3419  0.1666
  295loPI   C6A 4716  14.185  18.514   8.216 -0.3958 -0.0260 -0.2955
  295loPI   C1B 4717  12.933  17.510   9.488  0.1521  0.0275 -0.1692
  295loPI   C2B 4718  13.247  17.502   9.207  0.2392 -0.1009  0.0353
  295loPI   C3B 4719  13.376  17.688   8.797 -0.1689 -0.0249 -0.1971
  295loPI   C4B 4720  13.791  17.775   8.745  0.3674 -0.2039 -0.0092
  296loPI    C1 4721  18.460  19.053  10.285  0.0417 -0.0619  0.0822
  296loPI    C2 4722  18.523  19.392  10.487  0.1310 -0.0881  0.0983
  296loPI    C3 4723  18.578  19.039  10.667  0.3774 -0.1124 -0.0204
  296loPI   PO4 4724  18.606  18.934   9.991 -0.3970 -0.0126 -0.1110
  296loPI   GL1 4725  18.509  18.732   9.581 -0.2937 -0.0362  0.1521
  296loPI   GL2 4726  18.275  18.769   9.632  0.0497  0.1398 -0.0070
  296loPI   C1A 4727  18.629  18.619   9.107  0.1286 -0.0528  0.0337
  296loPI   C2A 4728  18.503  18.508   8.696 -0.0970  0.2828  0.0193
  296loPI   C3A 4729  18.513  18.419   8.272 -0.2575 -0.1946 -0.2306
  296loPI   C4A 4730  18.255  18.333   7.959 -0.1960  0.2704 -0.0110
  296loPI   C5A 4731  18.188  18.460   7.533 -0.2682 -0.0048  0.4036
  296loPI   C6A 4732  18.315  18.421   7.052 -0.1032 -0.0640 -0.0959
  296loPI   C1B 4733  18.211  18.940   9.141 -0.1700  0.3900 -0.2662
  296loPI   C2B 4734  18.112  18.960   8.736 -0.0027 -0.1703 -0.0881
  296loPI   C3B 4735  18.410  18.964   8.463 -0.0476 -0.0433 -0.0869
  296loPI   C4B 4736  18.447  18.824   7.987  0.1241  0.2872 -0.4234
  297loPI    C1 4737   8.340  14.833  10.335 -0.0240  0.0448  0.0645
  297loPI    C2 4738   8.290  15.227  10.383  0.0509  0.0745 -0.0941
  297loPI    C3 4739   8.334  14.990  10.703 -0.1028  0.1797  0.0064
  297loPI   PO4 4740   8.550  14.889  10.123 -0.1758  0.1210 -0.5895
  297loPI   GL1 4741   8.908  15.021   9.860 -0.0177 -0.2055 -0.1407
  297loPI   GL2 4742   8.999  15.289   9.889  0.1226  0.1313  0.2965
  297loPI   C1A 4743   8.830  14.841   9.371 -0.3322  0.1788  0.5115
  297loPI   C2A 4744   8.790  14.916   8.889  0.3331  0.3544 -0.1996
  297loPI   C3A 4745   8.851  14.835   8.404 -0.0779 -0.3088 -0.5611
  297loPI   C4A 4746   8.957  14.760   7.996  0.0447  0.0737  0.0681
  297loPI   C5A 4747   8.588  14.512   7.751 -0.1428  0.0219 -0.1049
  297loPI   C6A 4748   8.461  14.085   7.458  0.2825 -0.0273  0.2818
  297loPI   C1B 4749   9.048  15.424   9.445 -0.1470  0.0423 -0.1111
  297loPI   C2B 4750   8.994  15.439   8.968  0.0620  0.1789  0.0091
  297loPI   C3B 4751   8.953  15.422   8.561 -0.0622  0.1261  0.3923
  297loPI   C4B 4752   9.021  15.219   8.184 -0.1820 -0.0553 -0.1687
  298loPI    C1 4753   8.409  11.022   9.636  0.0817  0.1487 -0.2054
  298loPI    C2 4754   8.303  11.316   9.886  0.2191  0.0731 -0.0564
  298loPI    C3 4755   8.574  11.045   9.999 -0.0263 -0.2088 -0.1298
  298loPI   PO4 4756   8.195  11.075   9.447 -0.0380  0.0945  0.0060
  298loPI   GL1 4757   7.873  11.118   9.166 -0.2154 -0.1502 -0.2030
  298loPI   GL2 4758   7.756  11.508   9.013  0.0144 -0.1734 -0.1182
  298loPI   C1A 4759   7.895  10.989   8.711  0.0822 -0.0841  0.0293
  298loPI   C2A 4760   8.007  11.073   8.345  0.0353 -0.1685  0.0102
  298loPI   C3A 4761   7.932  11.285   8.090  0.1548  0.0145 -0.1176
  298loPI   C4A 4762   7.927  11.424   7.736 -0.2091  0.3049  0.2452
  298loPI   C5A 4763   8.111  11.439   7.356 -0.1231  0.0838  0.1414
  298loPI   C6A 4764   8.034  11.652   7.064  0.0409  0.1632 -0.1618
  298loPI   C1B 4765   7.857  11.859   8.725  0.1111 -0.4271 -0.0397
  298loPI   C2B 4766   7.706  12.116   8.406  0.1218 -0.1060  0.0393
  298loPI   C3B 4767   7.473  12.300   7.953 -0.1482 -0.0938  0.1509
  298loPI   C4B 4768   7.803  12.535   7.598  0.2612  0.0692  0.1751
  299loPI    C1 4769  13.094   0.736  10.380 -0.1393 -0.2320 -0.2529
  299loPI    C2 4770  13.108   0.362  10.522  0.1267 -0.1331 -0.0078
  299loPI    C3 4771  12.997   0.662  10.761 -0.1078 -0.0547 -0.2099
  299loPI   PO4 4772  12.957   0.665  10.153  0.2511  0.0986  0.1081
  299loPI   GL1 4773  12.894   0.712   9.787  0.0575  0.1405 -0.0873
  299loPI   GL2 4774  13.214   1.050   9.674  0.0501 -0.0240 -0.2958
  299loPI   C1A 4775  13.287   0.650   9.454 -0.2525  0.0393  0.2981
  299loPI   C2A 4776  13.542   0.726   9.173  0.3346  0.0233  0.0838
  299loPI   C3A 4777  13.608   0.754   8.746  0.2634 -0.2079  0.0911
  299loPI   C4A 4778  13.686   1.079   8.422  0.2272 -0.4384  0.1761
  299loPI   C5A 4779  13.897   1.129   8.135 -0.1224 -0.4900  0.1166
  299loPI   C6A 4780  14.244   1.451   8.145  0.0717  0.0290 -0.1566
  299loPI   C1B 4781  12.874   1.073   9.322 -0.2225  0.2341  0.6261
  299loPI   C2B 4782  12.658   1.321   8.984 -0.1038  0.1912 -0.3679
  299loPI   C3B 4783  12.839   1.299   8.611 -0.0729 -0.0354  0.0027
  299loPI   C4B 4784  12.903   1.283   8.170 -0.4311 -0.1674  0.3388
  300loPI    C1 4785  16.048   5.989   9.628  0.1540  0.0401  0.0082
  300loPI    C2 4786  16.279   6.264   9.804  0.0425  0.1407 -0.0013
  300loPI    C3 4787  15.882   6.271   9.859  0.0353  0.0045 -0.0324
  300loPI   PO4 4788  16.117   6.046   9.354 -0.3147 -0.0108  0.0381
  300loPI   GL1 4789  16.181   5.898   8.927 -0.0383 -0.1247  0.0490
  300loPI   GL2 4790  15.934   5.921   8.635 -0.0480 -0.1603 -0.0438
  300loPI   C1A 4791  16.031   5.480   8.858  0.0683  0.0132 -0.0261
  300loPI   C2A 4792  15.623   5.474   8.690  0.1153  0.6688 -0.0319
  300loPI   C3A 4793  15.357   5.482   8.355 -0.1069  0.2988 -0.0909
  300loPI   C4A 4794  15.001   5.411   8.126 -0.1506  0.1494 -0.2631
  300loPI   C5A 4795  14.631   5.418   7.889 -0.0933 -0.1208  0.1406
  300loPI   C6A 4796  14.303   5.194   7.581  0.2227 -0.0104 -0.0215
  300loPI   C1B 4797  15.780   5.761   8.154  0.1989  0.0150 -0.0612
  300loPI   C2B 4798  15.453   5.604   7.855 -0.0412 -0.2375  0.1811
  300loPI   C3B 4799  15.228   5.299   7.676  0.0527  0.1182  0.1830
  300loPI   C4B 4800  14.832   5.325   7.456  0.1524 -0.0947 -0.1658
  301loPI    C1 4801  13.070   9.780  10.121 -0.2786  0.0444 -0.1593
  301loPI    C2 4802  12.771  10.041  10.075 -0.1742  0.1950  0.0071
  301loPI    C3 4803  12.977  10.031  10.418  0.0638  0.1477 -0.1353
  301loPI   PO4 4804  13.226   9.795   9.894 -0.0700 -0.1496 -0.3086
  301loPI   GL1 4805  13.278   9.585   9.505 -0.0485 -0.0501  0.5234
  301loPI   GL2 4806  13.285   9.979   9.352 -0.1182 -0.0477 -0.0789
  301loPI   C1A 4807  13.150   9.606   9.121 -0.0620 -0.0638 -0.1848
  301loPI   C2A 4808  13.184   9.570   8.751  0.1389 -0.1009  0.0975
  301loPI   C3A 4809  13.378   9.529   8.337  0.0130 -0.3393  0.0938
  301loPI   C4A 4810  13.446   9.941   7.996  0.3213 -0.0123  0.3021
  301loPI   C5A 4811  13.794  10.192   7.778  0.1196  0.1551  0.1505
  301loPI   C6A 4812  13.844  10.294   7.322  0.0217  0.2825 -0.2755
  301loPI   C1B 4813  13.052  10.089   8.951  0.0599  0.1652  0.2151
  301loPI   C2B 4814  12.768  10.365   8.767  0.2466 -0.1807  0.0704
  301loPI   C3B 4815  12.453  10.190   8.537  0.1332 -0.2582  0.1028
  301loPI   C4B 4816  12.350  10.269   8.126 -0.2216  0.2578 -0.1279
  302loPI    C1 4817   7.475   8.414   9.640 -0.0706 -0.0426 -0.2297
  302loPI    C2 4818   7.478   8.015   9.615  0.1087 -0.0805  0.2807
  302loPI    C3 4819   7.195   8.200   9.829 -0.1131  0.0868 -0.1445
  302loPI   PO4 4820   7.660   8.465   9.324 -0.1956 -0.1641  0.0668
  302loPI   GL1 4821   7.423   8.393   9.043  0.1563  0.0277 -0.1563
  302loPI   GL2 4822   7.111   8.291   9.095 -0.0779 -0.0561 -0.4194
  302loPI   C1A 4823   7.385   8.715   8.737  0.0710  0.0101  0.2485
  302loPI   C2A 4824   7.564   8.620   8.334 -0.2189  0.1353 -0.0144
  302loPI   C3A 4825   7.618   8.578   7.978  0.0686  0.3266  0.0241
  302loPI   C4A 4826   7.778   8.267   7.696 -0.1743  0.1397 -0.2729
  302loPI   C5A 4827   7.636   8.293   7.303 -0.0572  0.0091 -0.0308
  302loPI   C6A 4828   7.753   8.512   6.814  0.2212 -0.0599 -0.0293
  302loPI   C1B 4829   7.022   8.287   8.693 -0.3768 -0.0953 -0.0714
  302loPI   C2B 4830   7.105   8.398   8.307  0.3950  0.3038  0.1973
  302loPI   C3B 4831   7.080   8.698   7.931  0.2865 -0.2390  0.1074
  302loPI   C4B 4832   6.717   8.729   7.749  0.0916 -0.0684  0.1981
  303loPI    C1 4833   7.816  15.476  10.442  0.2681  0.1690  0.2600
  303loPI    C2 4834   7.539  15.764  10.458  0.0851  0.0288 -0.2081
  303loPI    C3 4835   7.629  15.554  10.787 -0.3673  0.0735 -0.0489
  303loPI   PO4 4836   7.840  15.444  10.206 -0.2044 -0.0121 -0.3451
  303loPI   GL1 4837   7.695  15.366   9.862  0.0441 -0.0709 -0.1298
  303loPI   GL2 4838   7.765  15.685   9.721 -0.0853  0.2692 -0.0537
  303loPI   C1A 4839   7.948  15.312   9.367  0.0265  0.1959  0.0059
  303loPI   C2A 4840   7.941  15.340   8.862  0.2963 -0.0235 -0.1495
  303loPI   C3A 4841   7.655  15.366   8.518 -0.4224  0.1831  0.2881
  303loPI   C4A 4842   7.517  15.647   8.119  0.4194 -0.1508 -0.0552
  303loPI   C5A 4843   7.448  15.997   7.858  0.0802  0.2677 -0.1091
  303loPI   C6A 4844   7.107  16.031   7.600 -0.0764  0.1860  0.1391
  303loPI   C1B 4845   7.799  16.103   9.576  0.4013  0.1777  0.1426
  303loPI   C2B 4846   7.735  16.229   9.228  0.1153 -0.1335  0.1658
  303loPI   C3B 4847   7.585  16.357   8.883 -0.3349 -0.2446  0.0197
  303loPI   C4B 4848   7.584  16.796   8.767  0.4572 -0.2978 -0.2772
  304loPI    C1 4849   0.667  14.648   9.484 -0.0844  0.0423 -0.1479
  304loPI    C2 4850   0.926  14.464   9.726 -0.0630  0.3219  0.0467
  304loPI    C3 4851   0.533  14.433   9.793 -0.0676  0.1865 -0.0392
  304loPI   PO4 4852   0.821  14.697   9.309  0.0854 -0.1645 -0.0618
  304loPI   GL1 4853   0.956  14.575   9.042  0.0486  0.0442 -0.3262
  304loPI   GL2 4854   1.202  14.654   9.029 -0.2070 -0.2060 -0.2411
  304loPI   C1A 4855   0.994  14.654   8.560  0.1897 -0.0406 -0.0042
  304loPI   C2A 4856   0.958  14.805   8.113 -0.0834  0.1432  0.1681
  304loPI   C3A 4857   0.868  14.994   7.635  0.1589  0.5743  0.0995
  304loPI   C4A 4858   1.012  15.081   7.256 -0.1087  0.0017  0.1727
  304loPI   C5A 4859   1.500  15.089   7.120 -0.1711  0.0979  0.2355
  304loPI   C6A 4860   1.864  14.954   6.913 -0.0476 -0.4273 -0.0602
  304loPI   C1B 4861   1.441  14.804   8.753 -0.0955 -0.1419 -0.1324
  304loPI   C2B 4862   1.739  14.900   8.480  0.3367  0.0660 -0.0920
  304loPI   C3B 4863   1.882  15.265   8.331  0.1826  0.2203 -0.0795
  304loPI   C4B 4864   2.192  15.347   8.009  0.0459 -0.2319 -0.0268
  305loPI    C1 4865  18.644  14.999   9.858 -0.0791  0.0379 -0.0680
  305loPI    C2 4866  18.897  15.308   9.836 -0.2154  0.1494 -0.0900
  305loPI    C3 4867  18.574  15.331  10.070 -0.1229 -0.0531  0.0610
  305loPI   PO4 4868  18.709  14.800   9.600  0.2486 -0.0661 -0.1594
  305loPI   GL1 4869  18.736  14.827   9.182  0.0072 -0.0314  0.0548
  305loPI   GL2 4870  18.926  14.766   8.995 -0.1683 -0.2938 -0.0795
  305loPI   C1A 4871  18.535  15.099   8.889 -0.1717  0.1219  0.1362
  305loPI   C2A 4872  18.511  15.082   8.385  0.0708 -0.1701  0.2151
  305loPI   C3A 4873  18.617  15.069   7.963 -0.0074 -0.1129 -0.2095
  305loPI   C4A 4874  18.574  15.023   7.601 -0.0247  0.2842  0.1391
  305loPI   C5A 4875  18.649  14.734   7.241  0.0960  0.0934 -0.2698
  305loPI   C6A 4876  18.979  14.727   6.881  0.1217 -0.3618 -0.0898
  305loPI   C1B 4877  18.881  14.846   8.565 -0.1756  0.1469 -0.2399
  305loPI   C2B 4878  18.940  14.794   8.233 -0.0774 -0.0063  0.3225
  305loPI   C3B 4879  18.821  14.649   7.805 -0.1151 -0.1449 -0.2111
  305loPI   C4B 4880  18.943  14.397   7.561  0.0551  0.2435  0.1052
  306loPI    C1 4881   0.939  16.871   9.544  0.4985  0.3182  0.0096
  306loPI    C2 4882   0.795  17.228   9.436 -0.0349  0.1591  0.1629
  306loPI    C3 4883   0.765  17.108   9.816 -0.0320 -0.1268  0.0753
  306loPI   PO4 4884   1.202  16.937   9.371  0.0795  0.0669  0.0595
  306loPI   GL1 4885   1.305  17.331   9.231  0.1573 -0.0258 -0.3752
  306loPI   GL2 4886   1.089  17.149   8.965 -0.0721 -0.0829  0.1656
  306loPI   C1A 4887   1.410  17.463   8.710  0.2213  0.0263 -0.0156
  306loPI   C2A 4888   1.570  17.616   8.286  0.1022  0.2993  0.1934
  306loPI   C3A 4889   1.369  17.745   7.909 -0.1618 -0.0379 -0.0029
  306loPI   C4A 4890   1.119  18.028   7.545 -0.0408 -0.1629 -0.4829
  306loPI   C5A 4891   1.053  18.276   7.243 -0.3017 -0.0675 -0.0314
  306loPI   C6A 4892   0.799  18.685   7.331  0.2867 -0.0586  0.0133
  306loPI   C1B 4893   1.243  16.942   8.541 -0.0166  0.1669  0.1915
  306loPI   C2B 4894   1.304  16.734   8.031  0.2138  0.1912  0.2576
  306loPI   C3B 4895   1.189  16.912   7.623 -0.0432 -0.1034  0.1382
  306loPI   C4B 4896   0.921  16.927   7.237 -0.1287 -0.3260 -0.1391
  307loPI    C1 4897   6.879   6.678   9.699 -0.0378  0.1128  0.1205
  307loPI    C2 4898   7.149   6.939   9.562  0.0517 -0.0030  0.0753
  307loPI    C3 4899   7.240   6.699   9.869  0.0116 -0.0643  0.0394
  307loPI   PO4 4900   6.652   6.818   9.554 -0.4096  0.1124 -0.4033
  307loPI   GL1 4901   6.684   7.095   9.277 -0.0370  0.0794 -0.1379
  307loPI   GL2 4902   6.430   7.168   9.096 -0.0925  0.0471  0.1271
  307loPI   C1A 4903   6.932   7.011   8.961 -0.1511 -0.2172  0.1101
  307loPI   C2A 4904   7.047   7.166   8.579  0.1704  0.0009 -0.0182
  307loPI   C3A 4905   6.805   7.214   8.180 -0.0406  0.0932 -0.3790
  307loPI   C4A 4906   6.591   7.461   7.936 -0.0436 -0.0628  0.0489
  307loPI   C5A 4907   6.414   7.528   7.495 -0.3908 -0.1493  0.0946
  307loPI   C6A 4908   6.361   7.864   7.261  0.1370 -0.0692 -0.4065
  307loPI   C1B 4909   6.548   6.979   8.643 -0.1833  0.3079 -0.5181
  307loPI   C2B 4910   6.501   6.882   8.338 -0.1845 -0.1463  0.0695
  307loPI   C3B 4911   6.481   6.889   7.835  0.1669  0.1403  0.2291
  307loPI   C4B 4912   6.235   7.067   7.450 -0.1817  0.3757  0.0706
  308loPI    C1 4913   6.332  15.447  10.300 -0.1812 -0.0765  0.1205
  308loPI    C2 4914   6.481  15.678  10.590 -0.1384 -0.0981  0.1158
  308loPI    C3 4915   6.117  15.753  10.441 -0.0372  0.0999 -0.0365
  308loPI   PO4 4916   6.625  15.373  10.139  0.0809 -0.1490 -0.2822
  308loPI   GL1 4917   6.858  15.497   9.725 -0.1610  0.0071 -0.1925
  308loPI   GL2 4918   6.516  15.563   9.693 -0.0534 -0.3212 -0.2658
  308loPI   C1A 4919   6.916  15.012   9.418 -0.3118 -0.1625  0.0174
  308loPI   C2A 4920   6.855  14.780   9.129 -0.1165 -0.0399  0.2632
  308loPI   C3A 4921   6.899  14.693   8.746 -0.2634 -0.1552 -0.0908
  308loPI   C4A 4922   6.956  14.635   8.341 -0.0741  0.0371  0.1581
  308loPI   C5A 4923   7.046  14.668   7.887  0.4450  0.2404  0.0744
  308loPI   C6A 4924   6.974  14.584   7.526  0.1009  0.0982  0.0122
  308loPI   C1B 4925   6.276  15.570   9.316 -0.0855 -0.3273 -0.1614
  308loPI   C2B 4926   6.466  15.654   8.835  0.2042 -0.2880  0.2751
  308loPI   C3B 4927   6.822  15.715   8.657  0.0914 -0.0659 -0.0533
  308loPI   C4B 4928   7.219  15.587   8.606 -0.4056 -0.1815 -0.0080
  309loPI    C1 4929   4.816   8.706   9.154  0.0133  0.2203 -0.0097
  309loPI    C2 4930   5.151   8.706   9.372  0.1218 -0.1005 -0.1688
  309loPI    C3 4931   4.798   8.779   9.547  0.2121 -0.3026  0.1060
  309loPI   PO4 4932   5.041   8.492   8.881 -0.1734 -0.1102  0.0028
  309loPI   GL1 4933   5.220   8.695   8.580  0.1885  0.0874 -0.1233
  309loPI   GL2 4934   4.876   8.759   8.501  0.4474  0.0724 -0.4455
  309loPI   C1A 4935   5.218   8.892   8.143 -0.6409  0.2019  0.2452
  309loPI   C2A 4936   4.873   8.778   7.721  0.0703 -0.2072  0.1207
  309loPI   C3A 4937   4.658   8.621   7.353  0.0368  0.1722  0.3131
  309loPI   C4A 4938   4.618   8.464   6.930  0.2357 -0.0132 -0.2073
  309loPI   C5A 4939   4.825   8.254   6.585 -0.2643 -0.0033 -0.1999
  309loPI   C6A 4940   5.097   7.877   6.601 -0.0641  0.0656 -0.2365
  309loPI   C1B 4941   4.523   8.762   8.139  0.2339  0.0488 -0.0845
  309loPI   C2B 4942   4.324   8.547   7.791  0.3247 -0.1003  0.3138
  309loPI   C3B 4943   4.057   8.519   7.339  0.0302  0.1703 -0.1713
  309loPI   C4B 4944   3.899   8.129   7.222 -0.3077  0.0940  0.3130
  310loPI    C1 4945  18.109   9.503   9.295  0.0894  0.1898 -0.0320
  310loPI    C2 4946  18.264   9.154   9.417  0.0191  0.2098  0.1180
  310loPI    C3 4947  18.417   9.499   9.550  0.0057  0.2341  0.0709
  310loPI   PO4 4948  17.771   9.422   9.334 -0.3144 -0.0367 -0.0424
  310loPI   GL1 4949  17.560   9.113   9.118  0.1880 -0.3650 -0.0481
  310loPI   GL2 4950  17.294   8.886   9.058  0.0013  0.2736  0.1642
  310loPI   C1A 4951  17.726   8.946   8.739 -0.1262  0.1992  0.0090
  310loPI   C2A 4952  17.721   8.904   8.292 -0.1380 -0.0115 -0.1264
  310loPI   C3A 4953  17.396   8.920   8.100 -0.1305  0.2247  0.0608
  310loPI   C4A 4954  17.052   9.146   7.989 -0.2497  0.1894  0.2207
  310loPI   C5A 4955  16.667   9.099   7.756  0.2326 -0.0645 -0.1043
  310loPI   C6A 4956  16.589   9.223   7.362 -0.3344 -0.1727  0.3429
  310loPI   C1B 4957  17.157   8.972   8.635  0.0397  0.0702 -0.0037
  310loPI   C2B 4958  16.912   8.728   8.336 -0.3421 -0.1668 -0.1087
  310loPI   C3B 4959  16.544   8.778   8.076  0.2193  0.0467  0.0516
  310loPI   C4B 4960  16.275   8.785   7.715  0.0762  0.0729  0.3447
  311loPI    C1 4961   2.815  11.450   9.711  0.0886  0.0420  0.1940
  311loPI    C2 4962   2.438  11.316   9.716  0.0791  0.0682  0.1813
  311loPI    C3 4963   2.535  11.647   9.918  0.0328  0.2279 -0.0546
  311loPI   PO4 4964   2.903  11.393   9.456  0.0029  0.2371  0.1294
  311loPI   GL1 4965   2.945  11.538   9.007 -0.0871 -0.0340 -0.1214
  311loPI   GL2 4966   2.723  11.275   8.996  0.0547 -0.4969  0.0399
  311loPI   C1A 4967   2.913  11.734   8.606  0.0561 -0.1186  0.3535
  311loPI   C2A 4968   2.968  11.900   8.187 -0.1257  0.0470 -0.0915
  311loPI   C3A 4969   2.915  11.945   7.768  0.0060  0.1952 -0.4239
  311loPI   C4A 4970   2.624  12.105   7.536  0.2073 -0.0726  0.2591
  311loPI   C5A 4971   2.375  11.888   7.325  0.2211  0.0152 -0.0601
  311loPI   C6A 4972   2.267  11.661   6.994  0.4155  0.1887 -0.3127
  311loPI   C1B 4973   2.555  11.384   8.597  0.4302 -0.0281 -0.2238
  311loPI   C2B 4974   2.632  11.500   8.129 -0.1554 -0.0606 -0.2594
  311loPI   C3B 4975   2.664  11.522   7.722 -0.0227  0.1284 -0.0697
  311loPI   C4B 4976   2.609  11.416   7.319 -0.4689  0.0990  0.0146
  312loPI    C1 4977   3.536  19.193   9.970 -0.0817 -0.2570 -0.0345
  312loPI    C2 4978   3.699  19.558   9.992 -0.0848 -0.2395 -0.2760
  312loPI    C3 4979   3.406  19.454  10.245  0.2547 -0.2506  0.1230
  312loPI   PO4 4980   3.495  19.173   9.692  0.0369 -0.1763 -0.2223
  312loPI   GL1 4981   3.582  19.208   9.252 -0.1628 -0.0691  0.1715
  312loPI   GL2 4982   3.894  19.328   9.193 -0.1907 -0.0182  0.1231
  312loPI   C1A 4983   3.806  18.923   8.919 -0.0883 -0.0083  0.1029
  312loPI   C2A 4984   3.893  18.907   8.508 -0.2864  0.1267  0.1669
  312loPI   C3A 4985   4.041  18.742   8.188 -0.0114 -0.0265 -0.0350
  312loPI   C4A 4986   4.333  18.577   7.836  0.0567 -0.1387  0.1873
  312loPI   C5A 4987   4.726  18.270   7.775 -0.3591  0.1371  0.1130
  312loPI   C6A 4988   4.932  17.979   8.053  0.3179  0.1003 -0.0447
  312loPI   C1B 4989   3.770  19.440   8.789 -0.0752 -0.0940  0.0547
  312loPI   C2B 4990   3.987  19.455   8.451  0.0646  0.0735 -0.0465
  312loPI   C3B 4991   4.159  19.432   8.079  0.3067 -0.0623  0.2103
  312loPI   C4B 4992   4.453  19.311   7.807  0.1020  0.2061  0.1698
  313loPI    C1 4993   8.734   0.908  10.393  0.3064  0.1310 -0.0858
  313loPI    C2 4994   8.967   0.815  10.704  0.1158  0.2142  0.0838
  313loPI    C3 4995   8.579   0.892  10.761 -0.0235 -0.2126 -0.2336
  313loPI   PO4 4996   8.719   0.755  10.136 -0.2098  0.2239 -0.1171
  313loPI   GL1 4997   8.523   0.667   9.788  0.0588 -0.4794 -0.1199
  313loPI   GL2 4998   8.302   0.764   9.814  0.1959 -0.0634 -0.1708
  313loPI   C1A 4999   8.643   0.568   9.414 -0.2112  0.1027  0.0423
  313loPI   C2A 5000   8.793   0.552   9.038  0.1321 -0.0288 -0.0025
  313loPI   C3A 5001   9.139   0.446   8.784 -0.1969  0.0202 -0.0425
  313loPI   C4A 5002   9.459   0.252   8.523  0.1263  0.0071 -0.2396
  313loPI   C5A 5003   9.703   0.354   8.224 -0.1964 -0.1918  0.2278
  313loPI   C6A 5004  10.050   0.610   8.060 -0.3632 -0.0199 -0.5283
  313loPI   C1B 5005   8.436   1.048   9.448 -0.0131 -0.2182  0.0450
  313loPI   C2B 5006   8.397   0.938   8.903  0.2176 -0.0965 -0.1152
  313loPI   C3B 5007   8.447   0.973   8.438  0.2500 -0.3269 -0.1916
  313loPI   C4B 5008   8.379   0.914   7.998 -0.2306  0.1502  0.2628
  314loPI    C1 5009   8.166   4.457   9.400 -0.1485 -0.0281 -0.0550
  314loPI    C2 5010   7.891   4.245   9.599 -0.0076  0.1545  0.3429
  314loPI    C3 5011   8.020   4.594   9.746  0.0444  0.3335 -0.1126
  314loPI   PO4 5012   8.090   4.522   9.131  0.0679  0.1039  0.3197
  314loPI   GL1 5013   7.836   4.783   8.843  0.1864  0.1285  0.0448
  314loPI   GL2 5014   7.549   4.498   8.931  0.0426  0.3479  0.4595
  314loPI   C1A 5015   7.581   4.926   8.527  0.2058 -0.3337 -0.2110
  314loPI   C2A 5016   7.378   4.940   8.126  0.1926 -0.0683  0.0836
  314loPI   C3A 5017   7.107   5.096   7.811  0.1184  0.0961 -0.1300
  314loPI   C4A 5018   6.788   4.820   7.653 -0.0310 -0.0702 -0.0833
  314loPI   C5A 5019   6.419   4.829   7.393 -0.1961  0.0730  0.0920
  314loPI   C6A 5020   6.029   4.674   7.216  0.2005  0.0198  0.2275
  314loPI   C1B 5021   7.395   4.413   8.486 -0.1275 -0.0167  0.2113
  314loPI   C2B 5022   7.526   4.433   8.011 -0.0145  0.2773 -0.5391
  314loPI   C3B 5023   7.865   4.295   7.570 -0.0381  0.1165  0.0303
  314loPI   C4B 5024   7.929   4.680   7.279 -0.0345  0.1741 -0.2832
  315loPI    C1 5025  11.083   8.418   9.557  0.2286  0.2225  0.1060
  315loPI    C2 5026  11.285   8.324   9.889 -0.0844 -0.0177  0.2339
  315loPI    C3 5027  10.896   8.419   9.911 -0.0562  0.1726 -0.0404
  315loPI   PO4 5028  11.124   8.158   9.400  0.1173  0.0169 -0.0996
  315loPI   GL1 5029  11.333   8.336   9.030  0.0354 -0.1144 -0.1793
  315loPI   GL2 5030  11.284   8.168   8.766  0.5211 -0.1735  0.0467
  315loPI   C1A 5031  11.505   8.583   8.634 -0.1245 -0.0662 -0.0093
  315loPI   C2A 5032  11.558   8.621   8.156  0.0866  0.4159 -0.1315
  315loPI   C3A 5033  11.394   8.508   7.823  0.1426  0.1529 -0.3361
  315loPI   C4A 5034  11.362   8.489   7.393  0.2259 -0.0593  0.0666
  315loPI   C5A 5035  11.597   8.424   7.192 -0.2445  0.3087  0.2747
  315loPI   C6A 5036  11.767   8.035   7.075  0.2000 -0.0388 -0.0271
  315loPI   C1B 5037  11.254   8.219   8.285 -0.2968  0.0333 -0.2011
  315loPI   C2B 5038  11.203   8.068   7.795 -0.0837 -0.0402 -0.2204
  315loPI   C3B 5039  11.478   7.873   7.541  0.2059  0.1621  0.1641
  315loPI   C4B 5040  11.486   7.608   7.060  0.1364  0.1611 -0.2645
  316loPI    C1 5041  18.026   1.463  10.191  0.1248  0.1305  0.0032
  316loPI    C2 5042  17.974   1.850  10.102  0.0536  0.0812 -0.1730
  316loPI    C3 5043  17.678   1.642  10.274  0.1953  0.1796  0.2012
  316loPI   PO4 5044  18.319   1.389  10.066 -0.1701  0.0479  0.0079
  316loPI   GL1 5045  18.596   1.446   9.728 -0.0113 -0.2040  0.2444
  316loPI   GL2 5046  18.795   1.631   9.485  0.3243  0.0085 -0.3530
  316loPI   C1A 5047  18.387   1.269   9.358  0.1293  0.0989 -0.2833
  316loPI   C2A 5048  18.232   1.347   8.985  0.1368 -0.1975  0.3780
  316loPI   C3A 5049  18.088   1.320   8.568 -0.0289 -0.4373 -0.0666
  316loPI   C4A 5050  17.971   1.320   8.162  0.1676 -0.1285 -0.1247
  316loPI   C5A 5051  17.819   1.185   7.826  0.1554 -0.2910 -0.1114
  316loPI   C6A 5052  18.201   1.409   7.538  0.1889 -0.0906  0.1338
  316loPI   C1B 5053  18.545   1.757   9.105  0.1846  0.0513  0.1565
  316loPI   C2B 5054  18.532   2.089   8.823 -0.0853  0.3672 -0.0306
  316loPI   C3B 5055  18.364   2.226   8.480  0.0923 -0.3030  0.0330
  316loPI   C4B 5056  18.190   2.243   8.108  0.0901  0.2442 -0.0236
  317loPI    C1 5057   3.977   4.437   9.213 -0.0807  0.0177  0.0549
  317loPI    C2 5058   4.277   4.329   9.454 -0.1097  0.1495  0.1508
  317loPI    C3 5059   3.902   4.338   9.593 -0.1371  0.1461  0.0776
  317loPI   PO4 5060   4.055   4.366   9.011  0.2462  0.0254 -0.3501
  317loPI   GL1 5061   4.201   4.482   8.564 -0.0286 -0.0347 -0.0420
  317loPI   GL2 5062   4.037   4.748   8.349  0.1145  0.1331 -0.2376
  317loPI   C1A 5063   4.231   4.361   8.177  0.1055 -0.2018 -0.0950
  317loPI   C2A 5064   4.306   4.433   7.703  0.2233 -0.2676 -0.0018
  317loPI   C3A 5065   4.238   4.465   7.266  0.3253 -0.0110 -0.2417
  317loPI   C4A 5066   4.127   4.411   6.755 -0.0813 -0.0625 -0.0838
  317loPI   C5A 5067   3.721   4.296   6.506  0.0257  0.2577  0.4168
  317loPI   C6A 5068   3.333   4.000   6.581  0.3315 -0.1085  0.0971
  317loPI   C1B 5069   3.913   4.810   7.962 -0.3728 -0.0643 -0.2939
  317loPI   C2B 5070   3.954   4.831   7.462  0.2176  0.1797 -0.1840
  317loPI   C3B 5071   4.095   4.862   7.037 -0.0820 -0.0404  0.1741
  317loPI   C4B 5072   3.677   4.903   6.648  0.2099 -0.2262  0.0628
  318loPI    C1 5073   8.065   8.103   9.425 -0.2829 -0.1674  0.0433
  318loPI    C2 5074   7.965   8.260   9.778 -0.0701  0.0285  0.0184
  318loPI    C3 5075   8.313   8.067   9.737 -0.0438  0.1025 -0.1107
  318loPI   PO4 5076   8.174   8.311   9.324 -0.2056  0.3514 -0.1891
  318loPI   GL1 5077   8.092   8.523   9.060 -0.3279 -0.0460  0.0267
  318loPI   GL2 5078   7.836   8.543   8.838  0.2487 -0.0004 -0.3478
  318loPI   C1A 5079   8.419   8.551   8.716  0.0524  0.0320  0.3474
  318loPI   C2A 5080   8.511   8.689   8.401  0.0409  0.0499  0.1652
  318loPI   C3A 5081   8.648   8.323   8.192 -0.2728  0.0520  0.1786
  318loPI   C4A 5082   8.683   8.194   7.774  0.2269 -0.1026  0.0207
  318loPI   C5A 5083   8.869   8.121   7.453  0.0805 -0.3805  0.3519
  318loPI   C6A 5084   9.026   7.687   7.275  0.2772 -0.1474  0.0700
  318loPI   C1B 5085   7.971   8.843   8.427 -0.0222  0.0316 -0.1804
  318loPI   C2B 5086   7.849   9.039   8.108 -0.0374  0.2776  0.0318
  318loPI   C3B 5087   7.900   8.962   7.751 -0.1111  0.0247  0.2940
  318loPI   C4B 5088   7.998   8.632   7.415 -0.0322 -0.0746 -0.0908
  319loPI    C1 5089  11.128   5.021   9.853 -0.2067 -0.2598  0.3621
  319loPI    C2 5090  11.508   4.897   9.840 -0.2488 -0.3731  0.1847
  319loPI    C3 5091  11.215   4.659   9.707 -0.3898 -0.3141  0.3857
  319loPI   PO4 5092  11.091   5.239   9.682  0.1487  0.1879 -0.1931
  319loPI   GL1 5093  11.392   5.108   9.353  0.1557 -0.1956 -0.1074
  319loPI   GL2 5094  11.673   5.331   9.447  0.0801 -0.0889  0.1280
  319loPI   C1A 5095  11.562   4.959   8.882  0.0273 -0.2525 -0.0570
  319loPI   C2A 5096  11.427   4.952   8.472  0.0554 -0.2954  0.2797
  319loPI   C3A 5097  11.439   5.191   8.009 -0.1313 -0.1777 -0.0485
  319loPI   C4A 5098  11.310   5.344   7.549 -0.0732  0.0892 -0.1767
  319loPI   C5A 5099  11.436   5.518   7.138 -0.0215 -0.0019  0.0984
  319loPI   C6A 5100  11.405   5.329   6.677  0.3924 -0.3430  0.0512
  319loPI   C1B 5101  11.519   5.492   9.112  0.0895  0.0305 -0.1531
  319loPI   C2B 5102  11.614   5.440   8.690  0.0219  0.0552 -0.1445
  319loPI   C3B 5103  11.770   5.358   8.291 -0.0078 -0.1851  0.0246
  319loPI   C4B 5104  11.976   5.531   7.971  0.1249  0.2765  0.1555
  320loPI    C1 5105   9.604   5.084   9.425 -0.2021  0.1525 -0.1695
  320loPI    C2 5106   9.450   5.365   9.664 -0.0418  0.1893 -0.1085
  320loPI    C3 5107   9.686   5.081   9.816 -0.2043  0.0196 -0.1698
  320loPI   PO4 5108   9.338   4.968   9.301  0.2148  0.2327 -0.2203
  320loPI   GL1 5109   9.008   4.944   9.066 -0.0075  0.1593  0.1445
  320loPI   GL2 5110   9.139   4.823   8.794 -0.4267  0.2362 -0.1288
  320loPI   C1A 5111   9.011   5.269   8.703  0.1203  0.1760  0.0474
  320loPI   C2A 5112   8.726   5.376   8.461 -0.1776  0.0071 -0.0742
  320loPI   C3A 5113   8.639   5.494   8.043 -0.0213 -0.2475 -0.3878
  320loPI   C4A 5114   8.363   5.351   7.730  0.2300  0.1076  0.2125
  320loPI   C5A 5115   8.246   4.881   7.694  0.0373 -0.0519 -0.1233
  320loPI   C6A 5116   8.264   4.421   7.813  0.1617 -0.0277  0.0229
  320loPI   C1B 5117   9.317   4.930   8.331  0.1429 -0.2163  0.0907
  320loPI   C2B 5118   9.481   4.924   7.975 -0.2731  0.2151 -0.3165
  320loPI   C3B 5119   9.576   4.794   7.486  0.2894  0.1311  0.1065
  320loPI   C4B 5120   9.587   4.814   7.144 -0.2369  0.2154  0.0013
  321loPI    C1 5121  10.007   3.727   9.962  0.2416 -0.0712  0.2403
  321loPI    C2 5122  10.250   4.039  10.022  0.3248 -0.0453 -0.2036
  321loPI    C3 5123   9.875   4.048  10.161  0.3853  0.1716 -0.0497
  321loPI   PO4 5124  10.123   3.690   9.651  0.3111 -0.2139  0.5931
  321loPI   GL1 5125  10.314   3.829   9.340  0.0423  0.0800  0.4041
  321loPI   GL2 5126  10.379   4.115   9.210  0.0388  0.2009  0.0743
  321loPI   C1A 5127  10.054   3.692   9.003 -0.3695 -0.1512 -0.0851
  321loPI   C2A 5128   9.876   3.491   8.670  0.2447 -0.0600 -0.1739
  321loPI   C3A 5129   9.870   3.430   8.226 -0.2775  0.3735 -0.1441
  321loPI   C4A 5130   9.979   3.259   7.781  0.0968 -0.2464 -0.0970
  321loPI   C5A 5131   9.708   2.904   7.481 -0.1477  0.1121  0.0166
  321loPI   C6A 5132   9.767   2.541   7.457  0.1674 -0.1325  0.0374
  321loPI   C1B 5133  10.484   3.825   8.828  0.1094 -0.0759  0.1538
  321loPI   C2B 5134  10.595   3.820   8.397  0.0944 -0.0045  0.0945
  321loPI   C3B 5135  10.705   3.826   8.010 -0.0878  0.2495  0.0446
  321loPI   C4B 5136  10.693   3.568   7.610  0.0400 -0.1699 -0.2347
  322loPI    C1 5137   5.350  13.299  10.217 -0.0020 -0.0398 -0.3792
  322loPI    C2 5138   5.515  13.182  10.562 -0.2954  0.1590 -0.1664
  322loPI    C3 5139   5.737  13.372  10.289 -0.0832  0.0855 -0.0475
  322loPI   PO4 5140   5.215  13.105  10.143 -0.0529  0.3974 -0.0068
  322loPI   GL1 5141   5.300  12.937   9.750 -0.0187 -0.1967  0.2128
  322loPI   GL2 5142   5.322  13.174   9.671  0.0890 -0.0555  0.1713
  322loPI   C1A 5143   5.290  12.784   9.264  0.1991 -0.2069 -0.0485
  322loPI   C2A 5144   5.437  12.629   8.849 -0.1476  0.0279 -0.0266
  322loPI   C3A 5145   5.583  12.457   8.477 -0.0272 -0.1212  0.2168
  322loPI   C4A 5146   5.881  12.466   8.139 -0.0671  0.1522 -0.3131
  322loPI   C5A 5147   5.801  12.425   7.732 -0.1973 -0.0158 -0.2912
  322loPI   C6A 5148   5.645  12.874   7.617  0.0531 -0.0628  0.0310
  322loPI   C1B 5149   5.475  13.330   9.259 -0.2665  0.3219  0.2022
  322loPI   C2B 5150   5.454  13.136   8.936 -0.0009  0.0602  0.1559
  322loPI   C3B 5151   5.559  13.136   8.504  0.0569  0.0858  0.1768
  322loPI   C4B 5152   5.535  12.825   8.138 -0.1703  0.0685 -0.3216
  323loPI    C1 5153  11.057   1.057  10.484 -0.2342 -0.3709 -0.2246
  323loPI    C2 5154  11.095   0.904  10.852  0.3355  0.0304 -0.1020
  323loPI    C3 5155  10.794   1.154  10.769  0.3103  0.0853  0.1465
  323loPI   PO4 5156  11.134   0.881  10.336 -0.0259 -0.0653  0.3069
  323loPI   GL1 5157  11.254   0.948   9.924 -0.1684 -0.1245 -0.5131
  323loPI   GL2 5158  11.036   0.793   9.873 -0.0098 -0.0144 -0.2682
  323loPI   C1A 5159  11.514   1.248   9.660  0.0568 -0.1550  0.0123
  323loPI   C2A 5160  11.963   1.377   9.476 -0.3392 -0.1162  0.2812
  323loPI   C3A 5161  12.099   1.457   9.088  0.2055  0.3050 -0.2028
  323loPI   C4A 5162  12.187   1.400   8.589 -0.1692 -0.0228 -0.1642
  323loPI   C5A 5163  11.904   1.411   8.314 -0.2011 -0.1761  0.0640
  323loPI   C6A 5164  11.843   1.520   7.891 -0.1908  0.0180 -0.1024
  323loPI   C1B 5165  10.965   0.662   9.447 -0.1303 -0.2286  0.2406
  323loPI   C2B 5166  10.931   0.502   9.061 -0.2010  0.0067  0.0404
  323loPI   C3B 5167  10.881   0.397   8.680 -0.0929 -0.0466  0.1470
  323loPI   C4B 5168  11.115   0.375   8.330 -0.2010 -0.0818 -0.0758
  324loPI    C1 5169   4.422   4.676   9.053  0.2787  0.0320  0.0608
  324loPI    C2 5170   4.082   4.859   8.953  0.2873  0.0456  0.0564
  324loPI    C3 5171   4.241   4.916   9.316  0.2384 -0.0297  0.0899
  324loPI   PO4 5172   4.609   4.784   8.764  0.0585 -0.3282  0.2649
  324loPI   GL1 5173   4.595   5.234   8.477 -0.1424  0.0949 -0.3364
  324loPI   GL2 5174   4.348   5.145   8.519  0.1242 -0.2089  0.0405
  324loPI   C1A 5175   4.598   5.320   8.067  0.1101 -0.1790 -0.0855
  324loPI   C2A 5176   4.778   5.356   7.594  0.4184  0.0787  0.0460
  324loPI   C3A 5177   5.075   5.292   7.266  0.1894  0.0669 -0.1350
  324loPI   C4A 5178   5.360   5.100   6.918 -0.2242  0.1632  0.2068
  324loPI   C5A 5179   5.598   4.822   7.034 -0.0927  0.1650 -0.1407
  324loPI   C6A 5180   5.868   4.507   6.798  0.2648 -0.0921  0.1922
  324loPI   C1B 5181   4.091   5.201   8.173  0.2377  0.1886 -0.3349
  324loPI   C2B 5182   4.039   5.270   7.664 -0.0551 -0.2689 -0.0895
  324loPI   C3B 5183   3.805   5.481   7.329 -0.2911 -0.3699 -0.0548
  324loPI   C4B 5184   3.723   5.422   6.889  0.1368 -0.2046 -0.0542
  325loPI    C1 5185  17.437   7.593   9.353  0.1564 -0.0540 -0.0181
  325loPI    C2 5186  17.383   7.651   9.746 -0.1029 -0.0910 -0.0464
  325loPI    C3 5187  17.750   7.582   9.602 -0.0388 -0.3292  0.2223
  325loPI   PO4 5188  17.329   7.826   9.183  0.3498 -0.0438  0.1008
  325loPI   GL1 5189  17.040   7.917   8.948 -0.2645  0.0071  0.0205
  325loPI   GL2 5190  17.021   7.569   8.896 -0.4571 -0.0992 -0.0907
  325loPI   C1A 5191  17.343   7.946   8.510 -0.1450 -0.1980  0.0780
  325loPI   C2A 5192  17.481   8.075   8.016 -0.0203 -0.1027  0.4147
  325loPI   C3A 5193  17.363   8.271   7.628  0.0764 -0.1965  0.1243
  325loPI   C4A 5194  17.281   8.674   7.583  0.0640  0.1220 -0.1117
  325loPI   C5A 5195  17.147   9.107   7.475  0.0600  0.2177  0.2110
  325loPI   C6A 5196  17.005   9.479   7.383 -0.2007  0.1118 -0.3679
  325loPI   C1B 5197  16.925   7.700   8.509  0.2231 -0.0959 -0.0530
  325loPI   C2B 5198  17.136   7.651   8.099 -0.1738 -0.1043 -0.1503
  325loPI   C3B 5199  17.144   7.726   7.691 -0.3935 -0.3567  0.0636
  325loPI   C4B 5200  17.017   7.953   7.275  0.0919  0.3099  0.0496
  326loPI    C1 5201   7.105  11.118   9.802  0.0480 -0.2929 -0.0572
  326loPI    C2 5202   6.726  11.230   9.737  0.0826 -0.2868 -0.2549
  326loPI    C3 5203   6.813  10.845   9.802 -0.0074 -0.2363  0.1968
  326loPI   PO4 5204   7.233  11.333   9.597 -0.2597  0.0228 -0.2668
  326loPI   GL1 5205   7.283  11.424   9.169 -0.0690 -0.0358 -0.1438
  326loPI   GL2 5206   7.012  11.354   8.961 -0.0307  0.0233  0.1196
  326loPI   C1A 5207   7.399  11.842   8.939  0.4076  0.2401 -0.0329
  326loPI   C2A 5208   7.302  12.141   8.670 -0.3555  0.2109 -0.0098
  326loPI   C3A 5209   7.120  12.262   8.284 -0.0555 -0.0650 -0.2300
  326loPI   C4A 5210   6.964  12.238   7.842 -0.0611  0.1003 -0.1560
  326loPI   C5A 5211   6.590  12.287   7.591  0.0222 -0.2902 -0.1994
  326loPI   C6A 5212   6.134  12.305   7.374 -0.3660 -0.1610  0.0796
  326loPI   C1B 5213   6.875  11.172   8.665  0.0757  0.1513  0.2142
  326loPI   C2B 5214   7.011  11.156   8.327  0.0260  0.2176  0.3140
  326loPI   C3B 5215   6.998  11.331   8.027 -0.0752  0.0087 -0.0640
  326loPI   C4B 5216   6.924  11.382   7.573  0.1655  0.0213  0.5563
  327loPI    C1 5217   2.918   7.203   9.564  0.0690 -0.0306 -0.2449
  327loPI    C2 5218   3.242   7.102   9.774 -0.1075 -0.2445 -0.0703
  327loPI    C3 5219   3.135   7.486   9.745  0.0924 -0.1842 -0.0299
  327loPI   PO4 5220   2.902   6.971   9.443  0.1725 -0.0375  0.0239
  327loPI   GL1 5221   2.640   6.747   8.942 -0.1753  0.1962 -0.3668
  327loPI   GL2 5222   2.336   6.566   8.895  0.2295 -0.0748 -0.2237
  327loPI   C1A 5223   2.756   6.992   8.379 -0.1125 -0.1998  0.1785
  327loPI   C2A 5224   2.790   6.908   7.921 -0.1587  0.1937 -0.2074
  327loPI   C3A 5225   3.062   7.135   7.558 -0.0891  0.1538  0.1773
  327loPI   C4A 5226   3.335   7.487   7.396 -0.1999 -0.0171  0.2442
  327loPI   C5A 5227   3.289   7.648   7.041  0.3108  0.0381  0.1443
  327loPI   C6A 5228   3.677   7.824   6.824 -0.1344  0.2496  0.0381
  327loPI   C1B 5229   2.279   6.708   8.496  0.0770 -0.0504  0.2876
  327loPI   C2B 5230   2.397   6.650   8.084  0.0459  0.1194  0.2630
  327loPI   C3B 5231   2.549   6.596   7.661 -0.0292 -0.0497 -0.0127
  327loPI   C4B 5232   2.636   6.267   7.509 -0.0204  0.2581  0.0320
  328loPI    C1 5233  15.241   7.037   9.720 -0.0354 -0.0868 -0.0115
  328loPI    C2 5234  15.322   7.338   9.970 -0.3104  0.2769 -0.3465
  328loPI    C3 5235  15.608   7.196   9.729 -0.0118 -0.1515  0.2331
  328loPI   PO4 5236  15.037   7.147   9.522 -0.1872  0.0473 -0.3023
  328loPI   GL1 5237  14.953   7.370   9.208 -0.1278  0.2458  0.2115
  328loPI   GL2 5238  14.792   7.613   8.991 -0.2108 -0.3829 -0.1945
  328loPI   C1A 5239  15.224   7.324   8.881  0.3488 -0.0064 -0.1598
  328loPI   C2A 5240  15.283   7.064   8.639 -0.3990 -0.0488 -0.3017
  328loPI   C3A 5241  15.193   7.098   8.168  0.0585  0.1425  0.0126
  328loPI   C4A 5242  15.146   6.916   7.759  0.1192 -0.0904 -0.2310
  328loPI   C5A 5243  14.847   6.899   7.465  0.1176  0.0489  0.1691
  328loPI   C6A 5244  14.814   7.117   6.999  0.0975  0.3849 -0.1413
  328loPI   C1B 5245  14.919   7.837   8.620  0.2232 -0.2273 -0.0615
  328loPI   C2B 5246  14.854   8.149   8.408  0.3590 -0.0109 -0.5733
  328loPI   C3B 5247  14.709   8.147   7.932  0.2936 -0.1211  0.1371
  328loPI   C4B 5248  14.651   8.392   7.616 -0.2466  0.0705  0.0420
  329loPI    C1 5249   9.319  13.596  10.142 -0.1607  0.0495 -0.1431
  329loPI    C2 5250   9.254  13.426  10.497  0.0602 -0.0186 -0.1337
  329loPI    C3 5251   9.013  13.717  10.368 -0.1497 -0.1409 -0.0238
  329loPI   PO4 5252   9.436  13.411   9.953 -0.1102  0.0157  0.3429
  329loPI   GL1 5253   9.426  13.376   9.516  0.0821 -0.0109 -0.1321
  329loPI   GL2 5254   9.217  13.673   9.595 -0.1236  0.1688  0.1662
  329loPI   C1A 5255   9.533  13.489   9.076 -0.2849 -0.3096  0.1323
  329loPI   C2A 5256   9.609  13.550   8.683 -0.4689 -0.1861 -0.1629
  329loPI   C3A 5257   9.396  13.876   8.465  0.0526  0.0879 -0.1517
  329loPI   C4A 5258   9.484  13.945   8.005 -0.2333  0.2124  0.0533
  329loPI   C5A 5259   9.579  14.266   7.737 -0.0160  0.0609  0.0183
  329loPI   C6A 5260   9.545  14.742   7.757 -0.0772  0.2147 -0.1182
  329loPI   C1B 5261   9.165  13.957   9.168  0.0460 -0.1409  0.2336
  329loPI   C2B 5262   9.343  14.200   8.858  0.1196 -0.0133  0.2082
  329loPI   C3B 5263   9.554  14.365   8.546 -0.1610  0.2083  0.3351
  329loPI   C4B 5264   9.883  14.560   8.520 -0.0122 -0.1088  0.0433
  330loPI    C1 5265  16.924  11.797   9.584 -0.0323  0.0043 -0.0109
  330loPI    C2 5266  16.804  11.466   9.393 -0.3700  0.1018  0.0259
  330loPI    C3 5267  17.186  11.583   9.371 -0.2909 -0.1813 -0.1480
  330loPI   PO4 5268  16.689  12.023   9.447  0.0111 -0.1554 -0.1517
  330loPI   GL1 5269  16.968  12.135   9.065 -0.0849  0.3880  0.0056
  330loPI   GL2 5270  16.771  11.799   8.977 -0.2055 -0.1125  0.1417
  330loPI   C1A 5271  16.888  12.275   8.655  0.0690 -0.0128  0.0679
  330loPI   C2A 5272  16.798  12.166   8.172  0.1159 -0.2711  0.1358
  330loPI   C3A 5273  16.592  12.167   7.890  0.1036  0.2211 -0.0709
  330loPI   C4A 5274  16.607  12.240   7.452  0.0783  0.1461  0.2397
  330loPI   C5A 5275  16.246  11.993   7.192  0.1891  0.1270  0.0422
  330loPI   C6A 5276  16.085  11.697   6.875  0.0185  0.0742  0.1799
  330loPI   C1B 5277  16.681  11.801   8.544  0.1932 -0.1094  0.0565
  330loPI   C2B 5278  16.610  11.675   8.197  0.2005  0.0197  0.3446
  330loPI   C3B 5279  16.867  11.711   7.876  0.4325 -0.0227 -0.1416
  330loPI   C4B 5280  17.072  12.041   7.581 -0.0378 -0.0385 -0.1456
  331loPI    C1 5281  17.656   6.570   9.417  0.1443  0.0268 -0.1025
  331loPI    C2 5282  17.900   6.787   9.186  0.0201  0.2637 -0.0143
  331loPI    C3 5283  18.052   6.536   9.458  0.1652  0.2635 -0.0943
  331loPI   PO4 5284  17.494   6.389   9.234  0.1607 -0.0925  0.3710
  331loPI   GL1 5285  17.243   6.335   8.890 -0.1644 -0.1406 -0.1293
  331loPI   GL2 5286  16.956   6.222   8.932  0.0549 -0.2997 -0.1693
  331loPI   C1A 5287  17.533   6.346   8.412 -0.1353  0.0042 -0.0776
  331loPI   C2A 5288  17.550   6.310   7.988 -0.1750 -0.1801  0.0898
  331loPI   C3A 5289  17.373   6.498   7.607  0.1150 -0.2614 -0.1416
  331loPI   C4A 5290  17.475   6.645   7.211  0.0131  0.0014 -0.1573
  331loPI   C5A 5291  17.496   6.853   6.847 -0.1178  0.3313  0.1483
  331loPI   C6A 5292  17.639   6.707   6.421 -0.0689 -0.2753 -0.0251
  331loPI   C1B 5293  17.185   6.028   8.509  0.1245 -0.2438  0.0826
  331loPI   C2B 5294  17.059   6.090   8.124  0.0713 -0.1584  0.1025
  331loPI   C3B 5295  16.916   6.207   7.774 -0.2557  0.0750  0.2102
  331loPI   C4B 5296  16.810   6.292   7.457 -0.2534  0.1432 -0.2938
  332loPI    C1 5297  12.515   9.672   9.926 -0.1860  0.0964  0.0094
  332loPI    C2 5298  12.136   9.707   9.805 -0.1274 -0.2127 -0.2785
  332loPI    C3 5299  12.218   9.554  10.165 -0.2786  0.0029 -0.1498
  332loPI   PO4 5300  12.615   9.594   9.601  0.1706 -0.1291 -0.1044
  332loPI   GL1 5301  12.609   9.646   9.213 -0.3560  0.0007 -0.0493
  332loPI   GL2 5302  12.532   9.851   8.930 -0.2136  0.2777 -0.2392
  332loPI   C1A 5303  12.777   9.350   8.801  0.0254 -0.1673 -0.0178
  332loPI   C2A 5304  12.506   9.224   8.429 -0.4623  0.0470 -0.5592
  332loPI   C3A 5305  12.186   8.988   8.189 -0.2668  0.0125 -0.1627
  332loPI   C4A 5306  11.945   8.924   7.831  0.1401  0.0409 -0.6199
  332loPI   C5A 5307  11.607   8.854   7.540 -0.0649 -0.0906  0.2933
  332loPI   C6A 5308  11.177   8.938   7.428 -0.1797 -0.0688 -0.3239
  332loPI   C1B 5309  12.784   9.800   8.515 -0.1283  0.1454 -0.1064
  332loPI   C2B 5310  12.932   9.828   8.078  0.0006  0.2521 -0.0425
  332loPI   C3B 5311  12.616   9.716   7.845 -0.0095  0.1028 -0.0366
  332loPI   C4B 5312  12.211   9.415   7.827 -0.0856  0.2822  0.0853
  333loPI    C1 5313   8.850  16.420  10.671 -0.0374  0.0266 -0.2753
  333loPI    C2 5314   8.486  16.262  10.714  0.1451 -0.3156  0.0720
  333loPI    C3 5315   8.562  16.628  10.854 -0.0042 -0.3347  0.2061
  333loPI   PO4 5316   8.940  16.315  10.451 -0.1334  0.0135  0.0534
  333loPI   GL1 5317   8.939  16.362  10.102  0.0374  0.4387 -0.0094
  333loPI   GL2 5318   8.756  16.534   9.905 -0.0161 -0.0069 -0.1662
  333loPI   C1A 5319   9.220  16.369   9.718  0.2145  0.0838 -0.1444
  333loPI   C2A 5320   9.209  16.312   9.234  0.0172 -0.2660 -0.1107
  333loPI   C3A 5321   9.105  16.360   8.805 -0.0420 -0.0911  0.0561
  333loPI   C4A 5322   8.946  16.210   8.346  0.3021 -0.1248  0.0121
  333loPI   C5A 5323   9.111  16.321   7.932  0.2511 -0.1850  0.1394
  333loPI   C6A 5324   9.627  16.364   7.755  0.0554  0.1087 -0.3944
  333loPI   C1B 5325   8.728  16.327   9.478  0.1183 -0.0492  0.1444
  333loPI   C2B 5326   8.540  16.493   9.016  0.1054 -0.3701  0.1513
  333loPI   C3B 5327   8.560  16.469   8.631 -0.3263  0.0761 -0.1186
  333loPI   C4B 5328   8.681  16.602   8.210  0.4156 -0.0780 -0.0584
  334loPI    C1 5329   3.041  14.273   9.610  0.0117 -0.0616  0.0995
  334loPI    C2 5330   2.913  14.638   9.506  0.1645 -0.0665 -0.1122
  334loPI    C3 5331   3.184  14.597   9.797  0.1861 -0.0065 -0.1236
  334loPI   PO4 5332   2.823  14.130   9.504 -0.0660 -0.1687 -0.1008
  334loPI   GL1 5333   2.909  13.909   9.131 -0.0578 -0.0420  0.1733
  334loPI   GL2 5334   3.087  14.182   9.040  0.0629 -0.0706 -0.0818
  334loPI   C1A 5335   2.601  13.892   8.853  0.0624  0.0718 -0.1617
  334loPI   C2A 5336   2.598  13.751   8.442 -0.1842  0.1203 -0.0857
  334loPI   C3A 5337   2.455  13.834   8.006  0.1269  0.3380  0.1749
  334loPI   C4A 5338   2.370  13.737   7.610 -0.0510 -0.0091 -0.0109
  334loPI   C5A 5339   2.226  13.747   7.240  0.0285  0.0134  0.1828
  334loPI   C6A 5340   1.959  13.887   6.858 -0.3872 -0.3130  0.0918
  334loPI   C1B 5341   2.985  14.060   8.550  0.4795  0.0439 -0.0297
  334loPI   C2B 5342   2.907  14.127   8.099 -0.1539  0.2465 -0.0839
  334loPI   C3B 5343   2.878  14.168   7.617  0.0429 -0.1240  0.1183
  334loPI   C4B 5344   2.668  14.483   7.424  0.1687 -0.0867  0.0558
  335loPI    C1 5345  10.210   5.970   9.555  0.0181  0.1252 -0.0822
  335loPI    C2 5346  10.558   6.109   9.696 -0.1431  0.2696  0.1818
  335loPI    C3 5347  10.351   5.840   9.907 -0.0583 -0.0284 -0.1077
  335loPI   PO4 5348  10.098   6.028   9.389  0.0907  0.1086  0.0467
  335loPI   GL1 5349   9.888   5.956   9.030  0.0184 -0.0719 -0.2571
  335loPI   GL2 5350   9.632   5.685   8.856 -0.1249  0.0918 -0.1385
  335loPI   C1A 5351   9.974   6.025   8.545  0.1143  0.0488  0.0235
  335loPI   C2A 5352   9.874   6.157   8.127  0.0857  0.0698  0.2039
  335loPI   C3A 5353   9.790   6.359   7.810  0.5128 -0.1055 -0.0163
  335loPI   C4A 5354   9.567   6.138   7.522 -0.1195  0.1718 -0.0660
  335loPI   C5A 5355   9.193   5.939   7.450 -0.1972  0.0881 -0.0637
  335loPI   C6A 5356   9.211   5.804   7.018 -0.3012 -0.1412  0.2340
  335loPI   C1B 5357   9.610   5.725   8.395  0.3223  0.0043 -0.2280
  335loPI   C2B 5358   9.646   5.552   7.966 -0.0968 -0.3339 -0.3006
  335loPI   C3B 5359   9.472   5.278   7.587  0.0817 -0.0267 -0.0972
  335loPI   C4B 5360   9.088   4.948   7.520  0.2593 -0.0543  0.0130
  336loPI    C1 5361   1.541  14.896   9.937 -0.1034 -0.0309  0.0956
  336loPI    C2 5362   1.232  14.694  10.092 -0.0934 -0.0313  0.1150
  336loPI    C3 5363   1.455  14.930  10.326  0.0512 -0.1960  0.1456
  336loPI   PO4 5364   1.720  14.614   9.664 -0.1348  0.0313 -0.1882
  336loPI   GL1 5365   1.731  14.549   9.201  0.0179  0.1182 -0.1440
  336loPI   GL2 5366   1.641  14.385   9.032  0.3696  0.2332  0.0156
  336loPI   C1A 5367   2.010  14.730   8.942  0.0576 -0.0323 -0.1782
  336loPI   C2A 5368   2.256  14.747   8.560  0.1259 -0.2932 -0.1229
  336loPI   C3A 5369   2.357  14.919   8.169  0.2088  0.1385  0.2579
  336loPI   C4A 5370   2.453  14.969   7.723  0.1782 -0.1113 -0.2253
  336loPI   C5A 5371   2.673  14.964   7.441 -0.1492 -0.2897 -0.3256
  336loPI   C6A 5372   2.709  14.864   7.069 -0.1406  0.1108 -0.1655
  336loPI   C1B 5373   1.894  14.347   8.586  0.0857 -0.1123  0.0698
  336loPI   C2B 5374   1.970  14.547   8.192 -0.0542  0.2492 -0.0541
  336loPI   C3B 5375   1.901  14.887   7.978  0.1901 -0.4291 -0.1757
  336loPI   C4B 5376   1.935  15.053   7.586 -0.0945 -0.0765  0.2494
  337loPI    C1 5377  15.540   6.604   9.724  0.0215 -0.0318 -0.1712
  337loPI    C2 5378  15.168   6.482   9.642 -0.0062 -0.0989  0.0463
  337loPI    C3 5379  15.252   6.641   9.999  0.1997 -0.1936  0.0415
  337loPI   PO4 5380  15.570   6.721   9.489 -0.0309  0.5042  0.2521
  337loPI   GL1 5381  15.730   6.430   9.144  0.0261  0.2899  0.1742
  337loPI   GL2 5382  15.929   6.310   8.971 -0.2290  0.1234 -0.1938
  337loPI   C1A 5383  15.322   6.488   8.842  0.0808 -0.1874  0.0584
  337loPI   C2A 5384  15.166   6.338   8.502  0.1598  0.3756  0.1112
  337loPI   C3A 5385  14.938   6.338   8.030  0.0846  0.2578  0.3051
  337loPI   C4A 5386  14.599   6.481   7.675 -0.1716  0.1850  0.1623
  337loPI   C5A 5387  14.468   6.572   7.256 -0.0436 -0.0691  0.1857
  337loPI   C6A 5388  14.516   6.707   6.776  0.2749 -0.1044 -0.2154
  337loPI   C1B 5389  15.760   6.405   8.535  0.1493 -0.0342  0.0131
  337loPI   C2B 5390  15.806   6.270   8.144 -0.0927  0.0347  0.0793
  337loPI   C3B 5391  15.861   6.329   7.746  0.0672 -0.0025  0.1048
  337loPI   C4B 5392  15.927   6.280   7.393  0.0511  0.0468 -0.4058
  338loPI    C1 5393   2.797   7.836   9.625 -0.0726 -0.0926  0.0085
  338loPI    C2 5394   3.106   7.980   9.834 -0.0906 -0.1059  0.0444
  338loPI    C3 5395   2.822   7.768  10.018 -0.1159 -0.1025  0.0096
  338loPI   PO4 5396   2.901   7.795   9.369  0.1421 -0.3247 -0.1335
  338loPI   GL1 5397   2.753   7.754   8.860 -0.1387  0.1092  0.1777
  338loPI   GL2 5398   2.921   7.386   8.979 -0.2711 -0.0585  0.0649
  338loPI   C1A 5399   2.581   7.685   8.475  0.0095 -0.1040  0.2307
  338loPI   C2A 5400   2.732   7.917   8.099  0.0847 -0.1877  0.0922
  338loPI   C3A 5401   2.678   8.061   7.799  0.0761  0.1893 -0.0185
  338loPI   C4A 5402   2.771   8.343   7.665  0.3359  0.1403 -0.1601
  338loPI   C5A 5403   2.817   8.704   7.410 -0.0033 -0.3965  0.0153
  338loPI   C6A 5404   2.728   9.140   7.165 -0.0418  0.1428  0.0403
  338loPI   C1B 5405   2.948   7.387   8.565 -0.0101  0.0958 -0.1764
  338loPI   C2B 5406   2.893   7.435   8.149 -0.0575  0.1019 -0.0796
  338loPI   C3B 5407   2.751   7.526   7.688 -0.1582  0.1159  0.1066
  338loPI   C4B 5408   2.794   7.719   7.297  0.0643  0.1801  0.0310
  339loPI    C1 5409   6.103  13.644  10.087  0.0537 -0.1481 -0.1452
  339loPI    C2 5410   6.379  13.411  10.260  0.1815  0.1962  0.1252
  339loPI    C3 5411   6.190  13.692  10.474 -0.2337  0.1028 -0.1081
  339loPI   PO4 5412   6.149  13.655   9.824  0.1740  0.3148  0.0103
  339loPI   GL1 5413   6.136  13.547   9.461 -0.1239  0.0120  0.0657
  339loPI   GL2 5414   6.423  13.793   9.460  0.0501  0.3387  0.4256
  339loPI   C1A 5415   5.861  13.657   9.031  0.0595 -0.0645 -0.0599
  339loPI   C2A 5416   5.701  14.064   8.879 -0.0729  0.0323 -0.2439
  339loPI   C3A 5417   5.734  14.114   8.351 -0.0974 -0.1285 -0.0554
  339loPI   C4A 5418   5.967  14.562   8.108 -0.1306 -0.0978 -0.3568
  339loPI   C5A 5419   5.897  14.800   7.687  0.0878  0.0780 -0.2177
  339loPI   C6A 5420   6.159  15.043   7.369  0.0374 -0.0003 -0.2930
  339loPI   C1B 5421   6.716  13.604   9.038  0.0264 -0.2371 -0.1492
  339loPI   C2B 5422   6.873  13.564   8.552 -0.0548  0.2181 -0.3447
  339loPI   C3B 5423   6.903  13.723   8.073 -0.0802 -0.1443  0.3501
  339loPI   C4B 5424   6.623  13.996   7.852 -0.5204  0.3182  0.0676
  340loPI    C1 5425   1.172  19.147   9.893 -0.1106 -0.1611  0.1814
  340loPI    C2 5426   1.298  19.486  10.065  0.0680 -0.2989  0.3260
  340loPI    C3 5427   0.929  19.349  10.139 -0.0439 -0.0817  0.1824
  340loPI   PO4 5428   1.284  19.171   9.677 -0.0575  0.0428  0.0502
  340loPI   GL1 5429   1.142  18.994   9.390  0.0855  0.2345 -0.0978
  340loPI   GL2 5430   1.046  18.822   9.207  0.1405  0.4300 -0.2357
  340loPI   C1A 5431   1.284  19.091   8.924  0.1544  0.2910  0.2004
  340loPI   C2A 5432   1.230  19.099   8.530  0.3314 -0.0842  0.2840
  340loPI   C3A 5433   1.240  18.769   8.167  0.1428 -0.1478  0.1768
  340loPI   C4A 5434   1.101  18.714   7.759  0.0600 -0.2562 -0.0519
  340loPI   C5A 5435   1.291  18.633   7.387 -0.1572 -0.2645  0.0018
  340loPI   C6A 5436   1.500  18.904   7.349 -0.3207  0.1972  0.1053
  340loPI   C1B 5437   1.086  18.581   8.863  0.1130  0.2222  0.0364
  340loPI   C2B 5438   1.024  18.516   8.547  0.2180  0.2239  0.0735
  340loPI   C3B 5439   0.889  18.407   8.088  0.0876  0.2009  0.4369
  340loPI   C4B 5440   0.779  18.340   7.659  0.0144  0.0851  0.2077
  341loPI    C1 5441   5.224  11.590   9.486 -0.1043  0.0390  0.0325
  341loPI    C2 5442   4.869  11.615   9.304 -0.0968 -0.2560 -0.0275
  341loPI    C3 5443   4.939  11.321   9.566  0.0244 -0.0598  0.1639
  341loPI   PO4 5444   5.392  11.701   9.248  0.1706 -0.2290 -0.1195
  341loPI   GL1 5445   5.605  11.775   8.949  0.0473 -0.0086  0.1144
  341loPI   GL2 5446   5.625  11.437   8.919  0.1019  0.1621  0.0529
  341loPI   C1A 5447   5.695  11.861   8.570 -0.1675  0.2597 -0.1096
  341loPI   C2A 5448   5.692  11.918   8.133 -0.0141 -0.1385  0.3926
  341loPI   C3A 5449   5.685  11.983   7.686  0.3201  0.0985 -0.4084
  341loPI   C4A 5450   5.662  12.175   7.331  0.3671  0.0391  0.3414
  341loPI   C5A 5451   5.358  12.070   6.964 -0.1768  0.0139 -0.2074
  341loPI   C6A 5452   5.479  12.087   6.513  0.0069 -0.0679 -0.1168
  341loPI   C1B 5453   5.535  11.433   8.474 -0.0054  0.3154  0.1212
  341loPI   C2B 5454   5.619  11.398   8.010 -0.1571  0.3661  0.2095
  341loPI   C3B 5455   5.591  11.507   7.610  0.0700  0.1906  0.1380
  341loPI   C4B 5456   5.526  11.697   7.265  0.1145  0.2862  0.0300
  342loPI    C1 5457   2.756  16.500   9.919 -0.3164  0.0635 -0.2013
  342loPI    C2 5458   2.470  16.278  10.089 -0.0588  0.0997  0.2973
  342loPI    C3 5459   2.529  16.654  10.211  0.0456  0.1725  0.0286
  342loPI   PO4 5460   2.897  16.383   9.895  0.5354 -0.0861  0.3527
  342loPI   GL1 5461   3.194  16.447   9.521  0.2321 -0.0403  0.1264
  342loPI   GL2 5462   3.447  16.614   9.328  0.0711  0.1475  0.1661
  342loPI   C1A 5463   3.065  16.337   9.081  0.2349 -0.0712 -0.0424
  342loPI   C2A 5464   3.151  16.304   8.680  0.0464 -0.0845 -0.0807
  342loPI   C3A 5465   3.430  16.430   8.366 -0.0091  0.1040  0.2800
  342loPI   C4A 5466   3.373  16.448   7.897  0.1076 -0.2669  0.0413
  342loPI   C5A 5467   3.513  16.746   7.464 -0.2182 -0.0942  0.3456
  342loPI   C6A 5468   3.535  17.034   7.093 -0.3287  0.4805 -0.2352
  342loPI   C1B 5469   3.548  16.599   8.908  0.3169  0.0643 -0.2585
  342loPI   C2B 5470   3.605  16.900   8.637  0.0419  0.2891  0.3765
  342loPI   C3B 5471   3.870  16.741   8.297 -0.2135 -0.1141  0.1884
  342loPI   C4B 5472   3.845  16.615   7.931  0.1449 -0.1936  0.1601
  343loPI    C1 5473  11.685  14.962  10.900  0.1281  0.2768  0.0366
  343loPI    C2 5474  12.082  14.964  10.846  0.1285 -0.1331 -0.0055
  343loPI    C3 5475  11.930  14.920  11.213  0.1193  0.1175  0.0225
  343loPI   PO4 5476  11.574  14.897  10.641  0.3598  0.3819  0.3729
  343loPI   GL1 5477  11.645  15.037  10.154  0.2807 -0.0508  0.2374
  343loPI   GL2 5478  11.350  14.921  10.140 -0.2837 -0.2404  0.0330
  343loPI   C1A 5479  11.976  15.189   9.655  0.1611  0.3489  0.3327
  343loPI   C2A 5480  12.027  15.193   9.178  0.0403 -0.3951  0.1596
  343loPI   C3A 5481  12.091  15.038   8.767 -0.0625 -0.2081  0.1031
  343loPI   C4A 5482  12.257  14.952   8.349  0.0799 -0.0323  0.1579
  343loPI   C5A 5483  11.891  15.106   8.044 -0.4268  0.0639  0.1781
  343loPI   C6A 5484  11.510  15.309   7.748 -0.0202 -0.0710  0.1677
  343loPI   C1B 5485  11.421  14.947   9.700  0.1431 -0.1516 -0.5709
  343loPI   C2B 5486  11.570  14.859   9.354  0.3251 -0.0825  0.0407
  343loPI   C3B 5487  11.694  14.884   8.972  0.0518  0.3628  0.0163
  343loPI   C4B 5488  11.706  14.704   8.408 -0.2242  0.1841 -0.3524
  344loPI    C1 5489  11.054   9.672   9.937 -0.1181 -0.1518  0.1806
  344loPI    C2 5490  10.905   9.950   9.691  0.0546 -0.2168  0.0001
  344loPI    C3 5491  10.896  10.007  10.086  0.0259  0.0139 -0.0328
  344loPI   PO4 5492  11.263   9.601   9.736 -0.1773 -0.0098 -0.1381
  344loPI   GL1 5493  11.328   9.706   9.425  0.3720 -0.0932  0.1308
  344loPI   GL2 5494  11.375  10.094   9.405  0.0742  0.1045 -0.2907
  344loPI   C1A 5495  11.646   9.557   9.186  0.0741  0.0168  0.4110
  344loPI   C2A 5496  12.027   9.704   8.916  0.1628 -0.1225 -0.2615
  344loPI   C3A 5497  12.293   9.442   8.861 -0.2492  0.0432  0.1268
  344loPI   C4A 5498  12.287   8.909   8.812 -0.3174  0.2732 -0.0877
  344loPI   C5A 5499  11.978   8.628   8.540 -0.2244  0.2035  0.2728
  344loPI   C6A 5500  12.042   8.561   8.207  0.1312 -0.0786  0.0429
  344loPI   C1B 5501  11.405   9.964   8.972  0.0313  0.0072 -0.2003
  344loPI   C2B 5502  11.590  10.026   8.600  0.1073  0.2382 -0.4624
  344loPI   C3B 5503  11.820   9.899   8.320 -0.3217  0.0911  0.1681
  344loPI   C4B 5504  12.164   9.537   8.269 -0.5779 -0.1865 -0.1258
  345loPI    C1 5505   5.841   7.265   9.403 -0.3464  0.1557 -0.2648
  345loPI    C2 5506   5.848   7.137   9.782 -0.0106  0.1861 -0.2579
  345loPI    C3 5507   5.500   7.224   9.607 -0.1571  0.3385  0.0994
  345loPI   PO4 5508   6.079   7.492   9.303  0.0331  0.3258 -0.2264
  345loPI   GL1 5509   6.199   7.806   8.879 -0.1514 -0.0936  0.0098
  345loPI   GL2 5510   6.366   7.549   8.776 -0.1934  0.4644  0.1020
  345loPI   C1A 5511   6.005   8.121   8.523  0.1668  0.2333 -0.0062
  345loPI   C2A 5512   5.904   8.208   8.125  0.1951  0.0637 -0.0351
  345loPI   C3A 5513   6.207   8.344   7.815  0.2261  0.2215  0.1135
  345loPI   C4A 5514   6.214   8.642   7.504 -0.1364 -0.0287  0.1932
  345loPI   C5A 5515   6.318   8.877   7.113 -0.1587 -0.0958  0.0086
  345loPI   C6A 5516   6.439   8.821   6.657 -0.2947  0.2018 -0.3271
  345loPI   C1B 5517   6.307   7.355   8.461 -0.0877  0.1817  0.0415
  345loPI   C2B 5518   6.159   7.226   8.021  0.2836 -0.2631  0.1513
  345loPI   C3B 5519   5.939   7.433   7.675 -0.1565 -0.4390 -0.1041
  345loPI   C4B 5520   5.639   7.488   7.390 -0.3292  0.2910 -0.0624
  346loPI    C1 5521  12.819  13.549  10.259 -0.0287  0.0810 -0.0436
  346loPI    C2 5522  12.768  13.192  10.433  0.1697 -0.1818 -0.5070
  346loPI    C3 5523  13.120  13.380  10.460 -0.0823  0.2276  0.1627
  346loPI   PO4 5524  12.855  13.543   9.901  0.2292 -0.1336 -0.3377
  346loPI   GL1 5525  13.061  13.317   9.568 -0.0662  0.1668  0.1190
  346loPI   GL2 5526  12.897  13.540   9.413  0.2318 -0.0962  0.0379
  346loPI   C1A 5527  13.208  13.137   9.177 -0.3716  0.1985 -0.0584
  346loPI   C2A 5528  13.468  13.061   8.879  0.0635  0.1477  0.0708
  346loPI   C3A 5529  13.522  13.136   8.526  0.0669 -0.2638 -0.3409
  346loPI   C4A 5530  13.487  13.118   8.175  0.0908  0.1193 -0.2574
  346loPI   C5A 5531  13.679  13.328   7.786 -0.1216 -0.2875  0.0868
  346loPI   C6A 5532  13.809  13.502   7.481  0.1251 -0.1352 -0.0083
  346loPI   C1B 5533  12.717  13.683   8.990  0.1115  0.3817 -0.2155
  346loPI   C2B 5534  12.691  13.641   8.529  0.0048 -0.2297 -0.3082
  346loPI   C3B 5535  12.332  13.765   8.245  0.1414 -0.4184 -0.2338
  346loPI   C4B 5536  12.147  14.144   8.016 -0.0119  0.0990  0.1039
  347loPI    C1 5537   1.248   0.597   9.864  0.2167 -0.1032  0.0087
  347loPI    C2 5538   1.369   0.946  10.019  0.0394 -0.0340 -0.0063
  347loPI    C3 5539   1.398   0.610  10.235 -0.1677  0.0552  0.1642
  347loPI   PO4 5540   1.264   0.740   9.564 -0.1010 -0.0168  0.1034
  347loPI   GL1 5541   1.524   0.715   9.152 -0.0591  0.1057 -0.1571
  347loPI   GL2 5542   1.639   0.914   8.986 -0.1572  0.0567 -0.0095
  347loPI   C1A 5543   1.225   0.740   8.748 -0.1058 -0.1660  0.1979
  347loPI   C2A 5544   1.120   0.775   8.229 -0.2208 -0.2347 -0.2196
  347loPI   C3A 5545   1.079   0.636   7.802  0.1541 -0.0196 -0.4532
  347loPI   C4A 5546   0.981   0.754   7.349  0.3033 -0.0001  0.0026
  347loPI   C5A 5547   1.165   0.940   6.968  0.1783 -0.0333 -0.2183
  347loPI   C6A 5548   1.474   1.257   7.017  0.2894 -0.0813 -0.0181
  347loPI   C1B 5549   1.602   1.077   8.606  0.1516 -0.3078 -0.0941
  347loPI   C2B 5550   1.389   1.218   8.195  0.0685 -0.0281 -0.2563
  347loPI   C3B 5551   1.328   1.108   7.766  0.0529  0.0314  0.3639
  347loPI   C4B 5552   1.668   1.048   7.399  0.0182  0.3812  0.2197
  348loPI    C1 5553   6.030  17.822  10.291 -0.0795 -0.0785  0.0930
  348loPI    C2 5554   5.729  17.561  10.322 -0.3171  0.1761 -0.0285
  348loPI    C3 5555   5.823  17.795  10.632 -0.0155 -0.1416  0.1271
  348loPI   PO4 5556   5.959  18.000  10.111  0.0076 -0.3566  0.3155
  348loPI   GL1 5557   5.678  18.026   9.815 -0.3501 -0.2223  0.0488
  348loPI   GL2 5558   5.663  17.654   9.825  0.1293 -0.0328  0.2281
  348loPI   C1A 5559   6.084  17.729   9.508  0.0056  0.1339 -0.1090
  348loPI   C2A 5560   6.154  17.452   9.144  0.1522  0.0725 -0.1344
  348loPI   C3A 5561   6.198  17.151   8.839 -0.2254 -0.0768 -0.0409
  348loPI   C4A 5562   6.038  16.857   8.652 -0.0473  0.2671 -0.1400
  348loPI   C5A 5563   5.743  16.839   8.290 -0.0944 -0.4975  0.1537
  348loPI   C6A 5564   5.669  16.674   7.814 -0.0766  0.0146  0.0300
  348loPI   C1B 5565   5.703  17.293   9.522 -0.1751  0.2175 -0.0922
  348loPI   C2B 5566   5.751  17.068   9.117  0.0483  0.1238 -0.1482
  348loPI   C3B 5567   5.523  17.056   8.719  0.1194 -0.0499  0.2864
  348loPI   C4B 5568   5.391  17.255   8.342  0.0779 -0.3524  0.2547
  349loPI    C1 5569   3.208   1.610   9.700  0.0742  0.0744 -0.3073
  349loPI    C2 5570   3.249   1.991   9.814  0.1430 -0.0414  0.0670
  349loPI    C3 5571   2.896   1.807   9.855  0.1207 -0.0308 -0.0753
  349loPI   PO4 5572   3.239   1.494   9.358  0.0541 -0.0515  0.1418
  349loPI   GL1 5573   3.409   1.644   8.978 -0.0293  0.0623 -0.0552
  349loPI   GL2 5574   3.366   1.305   8.812 -0.1013  0.1577 -0.0125
  349loPI   C1A 5575   3.160   1.690   8.574  0.2053 -0.0129  0.3299
  349loPI   C2A 5576   3.170   1.723   8.100  0.0461 -0.2368 -0.3295
  349loPI   C3A 5577   3.120   1.880   7.673 -0.1202 -0.1724 -0.1762
  349loPI   C4A 5578   3.214   1.738   7.262  0.0246 -0.1640 -0.2219
  349loPI   C5A 5579   3.090   1.423   6.907  0.3111  0.0745 -0.0674
  349loPI   C6A 5580   3.020   1.283   6.454 -0.0407  0.5766 -0.3463
  349loPI   C1B 5581   3.244   1.225   8.429 -0.1189 -0.2228  0.1415
  349loPI   C2B 5582   3.369   1.233   7.938 -0.4913  0.4608 -0.0163
  349loPI   C3B 5583   3.089   1.395   7.617 -0.0455 -0.0490 -0.1494
  349loPI   C4B 5584   2.724   1.400   7.368 -0.0488 -0.0343 -0.2063
  350loPI    C1 5585   9.654   9.355   9.488 -0.3053 -0.0904 -0.0835
  350loPI    C2 5586   9.582   9.453   9.869  0.1377  0.1160 -0.0461
  350loPI    C3 5587   9.697   9.081   9.776  0.0659  0.0759  0.0247
  350loPI   PO4 5588   9.925   9.489   9.387 -0.0005  0.2671 -0.0299
  350loPI   GL1 5589  10.132   9.236   9.037  0.1658  0.4272  0.0372
  350loPI   GL2 5590   9.953   8.995   9.278 -0.1844 -0.0658  0.2713
  350loPI   C1A 5591  10.172   9.449   8.617 -0.0848  0.1811 -0.1375
  350loPI   C2A 5592  10.288   9.479   8.289  0.0804  0.0286 -0.2754
  350loPI   C3A 5593  10.469   9.310   7.939  0.2785  0.2093 -0.1239
  350loPI   C4A 5594  10.722   9.586   7.703  0.1970 -0.2171  0.2392
  350loPI   C5A 5595  11.027   9.409   7.378 -0.0170  0.0972  0.2361
  350loPI   C6A 5596  11.439   9.568   7.289 -0.1610 -0.1612 -0.1821
  350loPI   C1B 5597  10.100   8.735   8.893 -0.0320 -0.1266 -0.1838
  350loPI   C2B 5598  10.077   8.659   8.421  0.3449 -0.0414  0.1294
  350loPI   C3B 5599  10.097   8.557   7.950 -0.1626 -0.0603 -0.1040
  350loPI   C4B 5600  10.379   8.572   7.583 -0.0136  0.1459 -0.3270
  351loPI    C1 5601  18.162  14.693   9.395 -0.1054  0.2246 -0.1304
  351loPI    C2 5602  18.241  15.079   9.323  0.1149  0.2393  0.1736
  351loPI    C3 5603  18.176  14.954   9.698 -0.1938  0.0214  0.0512
  351loPI   PO4 5604  18.320  14.633   9.174  0.1709 -0.0164  0.0227
  351loPI   GL1 5605  18.429  14.518   8.831 -0.0709 -0.0262 -0.0479
  351loPI   GL2 5606  18.397  14.172   8.859  0.0598 -0.2509  0.0409
  351loPI   C1A 5607  18.456  14.606   8.469  0.2516  0.1395 -0.1784
  351loPI   C2A 5608  18.463  14.585   8.116  0.0116  0.0571  0.0780
  351loPI   C3A 5609  18.419  14.396   7.702 -0.2451  0.2572 -0.0129
  351loPI   C4A 5610  18.336  14.336   7.333  0.2357  0.3845 -0.0005
  351loPI   C5A 5611  18.288  14.518   6.915 -0.0162  0.2254  0.1947
  351loPI   C6A 5612  18.007  14.563   6.626 -0.2665 -0.0571  0.1515
  351loPI   C1B 5613  18.375  14.122   8.488 -0.0111 -0.0777  0.0455
  351loPI   C2B 5614  18.414  13.972   8.060  0.0187  0.1992  0.2526
  351loPI   C3B 5615  18.339  13.734   7.760 -0.2736 -0.1297  0.0262
  351loPI   C4B 5616  17.970  13.532   7.640 -0.1184  0.2504  0.0288
  352loPI    C1 5617   2.232   0.702   9.940  0.1750 -0.0344  0.0118
  352loPI    C2 5618   1.873   0.829  10.062  0.1532  0.0614 -0.1483
  352loPI    C3 5619   2.200   0.915  10.277  0.0674 -0.1343  0.0654
  352loPI   PO4 5620   2.171   0.657   9.647 -0.3096 -0.0158 -0.2755
  352loPI   GL1 5621   2.244   0.861   9.293 -0.0075  0.0135  0.0595
  352loPI   GL2 5622   2.491   0.616   9.148 -0.0591  0.0609  0.2519
  352loPI   C1A 5623   2.074   0.692   8.856  0.1876 -0.0487  0.0502
  352loPI   C2A 5624   2.392   0.423   8.574 -0.0836  0.1988  0.4646
  352loPI   C3A 5625   2.660   0.382   8.187  0.0050 -0.5243 -0.1513
  352loPI   C4A 5626   2.765   0.274   7.872  0.0613 -0.2112  0.0340
  352loPI   C5A 5627   2.903   0.251   7.507 -0.2431  0.1364 -0.3143
  352loPI   C6A 5628   3.082  -0.005   7.228 -0.0598  0.2841 -0.2594
  352loPI   C1B 5629   2.789   0.415   8.945 -0.0014 -0.1010 -0.1052
  352loPI   C2B 5630   2.920   0.239   8.572  0.2402 -0.1851 -0.2078
  352loPI   C3B 5631   3.116   0.104   8.217 -0.0706 -0.0290 -0.2097
  352loPI   C4B 5632   3.413  -0.038   7.804  0.0402  0.2766  0.0263
  353loPI    C1 5633  10.582   6.963   9.347  0.1366  0.0681 -0.0418
  353loPI    C2 5634  10.790   7.241   9.148 -0.1909  0.1906 -0.2221
  353loPI    C3 5635  10.418   7.150   9.034 -0.1535 -0.1972 -0.0535
  353loPI   PO4 5636  10.755   6.703   9.235 -0.3646  0.0013 -0.1675
  353loPI   GL1 5637  11.040   6.578   8.979  0.0447 -0.0392 -0.0240
  353loPI   GL2 5638  10.901   6.904   8.805  0.1866 -0.0145  0.0002
  353loPI   C1A 5639  10.799   6.314   8.586 -0.2284  0.1305 -0.2625
  353loPI   C2A 5640  10.786   6.252   8.117  0.2204 -0.0429  0.1743
  353loPI   C3A 5641  10.944   6.360   7.788 -0.1694  0.0849 -0.0568
  353loPI   C4A 5642  11.215   6.356   7.368 -0.1295  0.4519 -0.0427
  353loPI   C5A 5643  11.510   6.518   7.123 -0.0466  0.4078  0.3687
  353loPI   C6A 5644  11.848   6.696   6.852 -0.0957  0.0020 -0.0318
  353loPI   C1B 5645  10.533   6.748   8.643 -0.1853 -0.1525  0.1984
  353loPI   C2B 5646  10.129   6.759   8.724  0.0940 -0.0435  0.0504
  353loPI   C3B 5647   9.789   6.997   8.580  0.3260  0.0976 -0.1679
  353loPI   C4B 5648   9.359   6.917   8.470  0.0748  0.0386  0.3981
  354loPI    C1 5649  15.390   0.513  10.993 -0.1069  0.1517 -0.0811
  354loPI    C2 5650  15.636   0.293  11.218 -0.2275 -0.1604 -0.2473
  354loPI    C3 5651  15.552   0.670  11.323  0.2324 -0.0845 -0.1307
  354loPI   PO4 5652  15.468   0.538  10.709  0.2830 -0.1191  0.0454
  354loPI   GL1 5653  15.247   0.711  10.421  0.0526  0.3062 -0.3219
  354loPI   GL2 5654  14.973   0.721  10.356 -0.0292  0.2430  0.1547
  354loPI   C1A 5655  15.374   0.981  10.103  0.0113  0.1855 -0.0689
  354loPI   C2A 5656  15.410   0.960   9.674  0.2078 -0.2166 -0.1390
  354loPI   C3A 5657  15.379   0.986   9.217  0.0736  0.2852 -0.0049
  354loPI   C4A 5658  15.419   0.859   8.748 -0.0764 -0.0100  0.2498
  354loPI   C5A 5659  15.183   1.125   8.468  0.3739  0.2047 -0.1171
  354loPI   C6A 5660  15.191   1.257   7.997  0.0291  0.2087  0.1288
  354loPI   C1B 5661  15.014   0.656   9.905  0.0790 -0.1652 -0.1641
  354loPI   C2B 5662  14.973   0.643   9.478 -0.1564  0.2719 -0.1704
  354loPI   C3B 5663  14.996   0.682   8.898 -0.3404  0.0382 -0.0087
  354loPI   C4B 5664  15.072   0.529   8.436 -0.5129  0.1287 -0.0834
  355loPI    C1 5665  10.574   5.599   9.522  0.1065  0.3658 -0.2219
  355loPI    C2 5666  10.893   5.723   9.730  0.1971 -0.1113 -0.0639
  355loPI    C3 5667  10.652   5.442   9.881 -0.1492  0.0512 -0.2997
  355loPI   PO4 5668  10.574   5.729   9.352  0.1466 -0.1971  0.4538
  355loPI   GL1 5669  10.795   5.727   8.941  0.1705  0.0919  0.7567
  355loPI   GL2 5670  10.435   5.838   8.755  0.4140  0.1826 -0.1957
  355loPI   C1A 5671  10.843   5.821   8.406 -0.1762 -0.2816  0.3329
  355loPI   C2A 5672  10.605   5.788   8.005 -0.0052  0.0253 -0.1544
  355loPI   C3A 5673  10.560   6.029   7.570  0.0882 -0.2527 -0.3833
  355loPI   C4A 5674  10.112   6.143   7.438  0.0727  0.0452 -0.2513
  355loPI   C5A 5675   9.845   6.490   7.243  0.0223 -0.0935 -0.1026
  355loPI   C6A 5676   9.537   6.684   7.500  0.1071 -0.2763  0.0035
  355loPI   C1B 5677  10.390   6.108   8.378  0.0248 -0.1654  0.1033
  355loPI   C2B 5678  10.296   6.298   7.917  0.0417  0.0678  0.3276
  355loPI   C3B 5679  10.480   6.526   7.627  0.0415  0.1203  0.1302
  355loPI   C4B 5680  10.397   6.508   7.099 -0.2899 -0.1120 -0.0591
  356loPI    C1 5681  19.258  13.887   8.827 -0.0631  0.1498 -0.1324
  356loPI    C2 5682  19.626  13.973   8.958 -0.0114 -0.0300 -0.1564
  356loPI    C3 5683  19.317  14.207   9.059  0.0855  0.0377 -0.0139
  356loPI   PO4 5684  19.242  13.612   8.804  0.0990  0.0555  0.5015
  356loPI   GL1 5685  19.535  13.523   8.530  0.1449 -0.0183  0.1899
  356loPI   GL2 5686  19.830  13.739   8.600 -0.1130  0.3381 -0.0529
  356loPI   C1A 5687  19.660  13.529   8.072  0.2094  0.0159  0.0067
  356loPI   C2A 5688  19.723  13.430   7.690  0.1426  0.1751  0.1017
  356loPI   C3A 5689  20.061  13.428   7.485 -0.3802  0.1926  0.0742
  356loPI   C4A 5690  20.342  13.146   7.234  0.2280 -0.0325 -0.0787
  356loPI   C5A 5691  20.575  12.786   7.020 -0.0680 -0.2627 -0.1390
  356loPI   C6A 5692  20.626  12.787   6.678  0.1760 -0.0920  0.1609
  356loPI   C1B 5693  19.936  13.958   8.205 -0.2285 -0.0097  0.4655
  356loPI   C2B 5694  19.615  13.961   7.759 -0.2001  0.0950  0.0969
  356loPI   C3B 5695  19.674  13.719   7.318  0.1917 -0.0693 -0.0886
  356loPI   C4B 5696  19.440  13.840   6.884  0.0060  0.2442 -0.0182
  357loPI    C1 5697  18.301  14.150   9.372 -0.0737  0.1401  0.0727
  357loPI    C2 5698  18.158  13.927   9.673  0.0213  0.0385  0.0433
  357loPI    C3 5699  18.548  13.917   9.585  0.0047  0.1181 -0.0415
  357loPI   PO4 5700  18.123  14.201   9.241 -0.2556 -0.0095 -0.0510
  357loPI   GL1 5701  17.704  14.168   9.164 -0.0469 -0.0499 -0.1144
  357loPI   GL2 5702  17.644  14.463   9.239  0.1481 -0.1542  0.1606
  357loPI   C1A 5703  17.514  14.121   8.757  0.1538  0.1106 -0.0017
  357loPI   C2A 5704  17.416  14.176   8.301  0.2154 -0.1983  0.0615
  357loPI   C3A 5705  17.315  14.225   8.019  0.0696  0.3229 -0.1160
  357loPI   C4A 5706  17.340  14.289   7.594 -0.0727  0.1578  0.0113
  357loPI   C5A 5707  17.367  14.308   7.219 -0.1568  0.3811  0.3965
  357loPI   C6A 5708  17.706  14.144   7.030  0.2327 -0.1946  0.1893
  357loPI   C1B 5709  17.554  14.653   8.803  0.1856  0.0901 -0.0533
  357loPI   C2B 5710  17.539  14.693   8.325  0.1540  0.1100 -0.1383
  357loPI   C3B 5711  17.693  14.782   7.945  0.2510  0.2058 -0.0707
  357loPI   C4B 5712  17.664  14.639   7.480  0.1307 -0.0954 -0.3744
  358loPI    C1 5713  17.191   4.528   9.546  0.1203  0.0068  0.2295
  358loPI    C2 5714  16.796   4.564   9.597  0.0827 -0.0555 -0.0062
  358loPI    C3 5715  17.026   4.438   9.899 -0.0895 -0.1084  0.1044
  358loPI   PO4 5716  17.187   4.396   9.364  0.2784  0.1158  0.1701
  358loPI   GL1 5717  17.222   4.283   8.917  0.0125  0.0841  0.1413
  358loPI   GL2 5718  17.194   3.959   8.933 -0.0889 -0.0321 -0.3982
  358loPI   C1A 5719  17.172   4.448   8.529  0.0295 -0.0975 -0.1356
  358loPI   C2A 5720  17.071   4.445   8.060  0.3368 -0.3026  0.0879
  358loPI   C3A 5721  17.100   4.475   7.553 -0.0442 -0.1962  0.0557
  358loPI   C4A 5722  17.150   4.455   7.067 -0.2287 -0.0092  0.0445
  358loPI   C5A 5723  17.176   4.385   6.538  0.0767  0.2012  0.1083
  358loPI   C6A 5724  17.024   4.598   6.240  0.0934 -0.0096 -0.2608
  358loPI   C1B 5725  16.994   3.965   8.503  0.4056 -0.1626  0.0519
  358loPI   C2B 5726  16.982   3.832   8.017  0.4229 -0.2046  0.0649
  358loPI   C3B 5727  17.209   3.551   7.788 -0.2828 -0.1527 -0.0660
  358loPI   C4B 5728  17.293   3.556   7.329 -0.0543  0.0562  0.2439
  359loPI    C1 5729   2.545   2.130   9.578  0.2229  0.1149 -0.0483
  359loPI    C2 5730   2.875   2.296   9.731  0.2145 -0.0367  0.1382
  359loPI    C3 5731   2.530   2.314   9.933  0.1581 -0.0680  0.0451
  359loPI   PO4 5732   2.541   1.875   9.482 -0.0917  0.0484  0.1322
  359loPI   GL1 5733   2.629   1.775   9.119 -0.0530 -0.0809 -0.2847
  359loPI   GL2 5734   2.867   1.579   8.992  0.0009 -0.2433  0.0027
  359loPI   C1A 5735   2.349   1.579   8.878 -0.1828  0.0670  0.0480
  359loPI   C2A 5736   2.438   1.417   8.449 -0.2678 -0.0773 -0.1426
  359loPI   C3A 5737   2.303   1.353   8.061  0.2940  0.3235 -0.0364
  359loPI   C4A 5738   1.976   1.015   7.781 -0.2114 -0.0958  0.0109
  359loPI   C5A 5739   2.109   0.639   7.518  0.0749  0.1108  0.1749
  359loPI   C6A 5740   2.420   0.465   7.307 -0.4616  0.0882  0.0857
  359loPI   C1B 5741   2.848   1.278   8.691  0.3061 -0.0766 -0.4273
  359loPI   C2B 5742   2.869   1.333   8.201 -0.0926 -0.0711 -0.1424
  359loPI   C3B 5743   2.690   1.153   7.862  0.2181 -0.1541 -0.0012
  359loPI   C4B 5744   2.516   0.928   7.463 -0.0219  0.1283 -0.0952
  360loPI    C1 5745   0.100   3.756   9.186 -0.1087  0.2883  0.1616
  360loPI    C2 5746  -0.294   3.798   9.131 -0.1139 -0.0367 -0.0706
  360loPI    C3 5747  -0.154   3.666   9.482 -0.1956  0.2915  0.0884
  360loPI   PO4 5748   0.207   3.563   8.936 -0.2493  0.0363  0.1372
  360loPI   GL1 5749  -0.022   3.321   8.651 -0.2156 -0.1468 -0.0553
  360loPI   GL2 5750   0.173   3.063   8.853  0.3907 -0.3365  0.3766
  360loPI   C1A 5751  -0.232   3.125   8.254  0.1835 -0.0548 -0.0823
  360loPI   C2A 5752  -0.303   2.958   7.905  0.0439 -0.2439  0.1219
  360loPI   C3A 5753  -0.069   2.662   7.926 -0.2229  0.1638  0.2522
  360loPI   C4A 5754  -0.180   2.156   7.811  0.0324 -0.3082  0.0664
  360loPI   C5A 5755  -0.368   1.712   7.725  0.0316 -0.2145  0.1585
  360loPI   C6A 5756  -0.642   1.424   7.832 -0.3886 -0.0733 -0.0313
  360loPI   C1B 5757   0.295   2.944   8.338  0.1318  0.1013  0.0488
  360loPI   C2B 5758   0.462   2.650   8.063  0.2229  0.0087  0.0271
  360loPI   C3B 5759   0.462   2.372   7.752 -0.1285  0.0956  0.0317
  360loPI   C4B 5760   0.764   2.203   7.482 -0.0882  0.1260 -0.1069
  361loPI    C1 5761  18.735  15.741   9.528  0.2593 -0.1703  0.0622
  361loPI    C2 5762  18.704  16.112   9.675  0.0765 -0.1011 -0.1452
  361loPI    C3 5763  18.665  15.796   9.918 -0.3425  0.0093 -0.0614
  361loPI   PO4 5764  18.604  15.746   9.296  0.2884 -0.1693 -0.2401
  361loPI   GL1 5765  18.565  15.533   8.949 -0.1345  0.0800  0.1221
  361loPI   GL2 5766  18.343  15.794   8.847 -0.0381 -0.3382  0.0053
  361loPI   C1A 5767  18.680  15.586   8.592  0.3235  0.1968 -0.0334
  361loPI   C2A 5768  18.899  15.428   8.208 -0.0604  0.1334 -0.0040
  361loPI   C3A 5769  18.923  15.475   7.756 -0.0391 -0.0317 -0.3778
  361loPI   C4A 5770  18.744  15.702   7.492 -0.2110 -0.3147 -0.0362
  361loPI   C5A 5771  18.534  15.832   7.264 -0.0463  0.0522  0.1802
  361loPI   C6A 5772  18.213  15.714   6.904 -0.1903  0.0278 -0.0285
  361loPI   C1B 5773  18.385  16.049   8.492  0.0479 -0.2880  0.0178
  361loPI   C2B 5774  18.307  16.035   7.992  0.2119  0.1270  0.0068
  361loPI   C3B 5775  18.024  15.974   7.704 -0.0856 -0.1546 -0.1676
  361loPI   C4B 5776  17.984  15.757   7.306  0.3680  0.1620  0.0016
  362loPI    C1 5777  17.677  14.894   9.792 -0.1227  0.0735  0.0450
  362loPI    C2 5778  17.664  14.599  10.062  0.2153  0.0908  0.0850
  362loPI    C3 5779  17.591  14.976  10.174 -0.1401  0.0368  0.0490
  362loPI   PO4 5780  17.612  14.795   9.587  0.1995 -0.2637  0.1376
  362loPI   GL1 5781  17.760  15.029   9.214 -0.0180  0.0097 -0.0267
  362loPI   GL2 5782  17.904  14.871   9.012 -0.0951 -0.0737 -0.1804
  362loPI   C1A 5783  17.508  15.151   8.863  0.0402  0.0032 -0.1790
  362loPI   C2A 5784  17.225  15.011   8.545 -0.1793  0.0678  0.0862
  362loPI   C3A 5785  17.268  15.128   8.118  0.0305  0.1682 -0.0479
  362loPI   C4A 5786  16.939  15.344   7.905  0.1473  0.1098  0.0947
  362loPI   C5A 5787  16.581  15.645   7.664 -0.2285 -0.2301 -0.0671
  362loPI   C6A 5788  16.326  15.943   7.575  0.0098  0.0901 -0.1924
  362loPI   C1B 5789  18.095  14.881   8.604  0.0399  0.1542  0.0273
  362loPI   C2B 5790  18.122  14.941   8.125  0.2000 -0.4530  0.0882
  362loPI   C3B 5791  18.176  14.798   7.710  0.3891 -0.0978  0.1520
  362loPI   C4B 5792  17.989  14.845   7.246  0.4710 -0.2782 -0.2009
  363loPI    C1 5793   2.407  16.799   9.768 -0.2416  0.2535  0.0816
  363loPI    C2 5794   2.725  16.794   9.525 -0.1864  0.1544  0.1554
  363loPI    C3 5795   2.718  17.040   9.841 -0.1891  0.1668  0.1458
  363loPI   PO4 5796   2.208  16.755   9.579  0.1625 -0.1701  0.1069
  363loPI   GL1 5797   2.271  16.753   9.179  0.2513  0.2837 -0.1364
  363loPI   GL2 5798   2.095  16.738   8.980 -0.2258 -0.0351 -0.0004
  363loPI   C1A 5799   2.633  16.659   8.980  0.1182  0.3196  0.2132
  363loPI   C2A 5800   2.681  16.612   8.602  0.0283 -0.1889  0.2708
  363loPI   C3A 5801   2.846  16.702   8.288 -0.3474  0.0802 -0.0343
  363loPI   C4A 5802   2.899  16.736   7.837 -0.2285  0.1885  0.0618
  363loPI   C5A 5803   2.863  16.792   7.400  0.1399 -0.4966  0.1395
  363loPI   C6A 5804   2.525  16.872   7.058  0.3318  0.3434  0.1276
  363loPI   C1B 5805   2.259  16.848   8.613 -0.0772  0.0676 -0.0592
  363loPI   C2B 5806   2.277  16.853   8.247 -0.0555  0.1282  0.1622
  363loPI   C3B 5807   2.460  16.502   8.060 -0.2568  0.0261  0.2542
  363loPI   C4B 5808   2.325  16.267   7.745 -0.0875 -0.1858  0.0737
  364loPI    C1 5809  11.309   3.915  10.210  0.0291  0.0261  0.0793
  364loPI    C2 5810  11.038   3.626  10.155 -0.0024  0.0349  0.1853
  364loPI    C3 5811  11.143   3.733  10.525  0.0209  0.1485  0.1463
  364loPI   PO4 5812  11.442   3.834   9.936 -0.1861 -0.3523  0.1493
  364loPI   GL1 5813  11.429   3.884   9.464  0.1309 -0.0377  0.0904
  364loPI   GL2 5814  11.127   3.747   9.558  0.2531  0.4065  0.2606
  364loPI   C1A 5815  11.467   3.919   9.043 -0.1096 -0.2042  0.2199
  364loPI   C2A 5816  11.529   3.991   8.593  0.0337  0.1568 -0.0309
  364loPI   C3A 5817  11.551   4.125   8.198 -0.2025  0.3277 -0.2209
  364loPI   C4A 5818  11.559   4.109   7.810  0.1302 -0.0545 -0.0453
  364loPI   C5A 5819  11.541   3.881   7.563 -0.1084  0.1866  0.0152
  364loPI   C6A 5820  11.881   3.639   7.383 -0.1099 -0.0212  0.2404
  364loPI   C1B 5821  10.928   3.810   9.115 -0.1410  0.0241 -0.2337
  364loPI   C2B 5822  11.062   3.881   8.749 -0.0147 -0.4070  0.0067
  364loPI   C3B 5823  11.162   3.804   8.343  0.0151  0.1336  0.1699
  364loPI   C4B 5824  11.192   3.704   7.830  0.0112  0.0580 -0.1244
  365loPI    C1 5825  16.503   7.175   9.410 -0.0336 -0.0715 -0.3669
  365loPI    C2 5826  16.780   6.901   9.499  0.1633  0.2726  0.1210
  365loPI    C3 5827  16.431   6.902   9.694  0.0220  0.1583 -0.1276
  365loPI   PO4 5828  16.448   7.207   9.216  0.3321 -0.0051 -0.1227
  365loPI   GL1 5829  16.148   7.266   8.941 -0.5522 -0.3091 -0.1904
  365loPI   GL2 5830  16.491   7.544   8.874  0.0326 -0.1523 -0.1532
  365loPI   C1A 5831  16.074   7.184   8.505 -0.0274  0.0928  0.0039
  365loPI   C2A 5832  15.809   6.892   8.407  0.3868  0.1764  0.1034
  365loPI   C3A 5833  15.416   6.713   8.319 -0.0802  0.2137  0.0010
  365loPI   C4A 5834  15.342   6.527   7.954 -0.0883  0.2025  0.0685
  365loPI   C5A 5835  15.075   6.430   7.477 -0.1943 -0.1572  0.0536
  365loPI   C6A 5836  15.133   6.670   7.114 -0.0079 -0.2067 -0.2098
  365loPI   C1B 5837  16.483   7.544   8.390  0.1606  0.1811  0.1272
  365loPI   C2B 5838  16.341   7.433   7.967 -0.2589 -0.2416  0.1657
  365loPI   C3B 5839  16.077   7.107   7.978 -0.3297  0.1688 -0.0831
  365loPI   C4B 5840  16.172   6.666   8.011 -0.1699 -0.1530  0.1843
  366loPI    C1 5841   6.222  10.181   9.666  0.1954  0.1009  0.1567
  366loPI    C2 5842   6.527   9.946   9.773 -0.0363 -0.2709  0.0202
  366loPI    C3 5843   6.175   9.914   9.960 -0.0853 -0.0659 -0.0349
  366loPI   PO4 5844   6.233  10.185   9.382  0.0633  0.1072 -0.1070
  366loPI   GL1 5845   6.303  10.008   9.005  0.0321  0.0073 -0.2424
  366loPI   GL2 5846   6.044   9.857   8.835  0.2673  0.1356  0.0837
  366loPI   C1A 5847   6.528  10.203   8.728  0.0777 -0.1193 -0.0573
  366loPI   C2A 5848   6.635  10.319   8.345  0.0576 -0.1240  0.4219
  366loPI   C3A 5849   6.766  10.423   7.940 -0.0780  0.1868 -0.2556
  366loPI   C4A 5850   6.881  10.438   7.627  0.1268  0.1231 -0.1592
  366loPI   C5A 5851   7.182  10.497   7.391 -0.2115  0.1436 -0.3404
  366loPI   C6A 5852   7.453  10.277   7.286 -0.1759 -0.1633 -0.2185
  366loPI   C1B 5853   6.172   9.953   8.475  0.0727 -0.0698  0.1511
  366loPI   C2B 5854   6.310   9.949   8.175  0.2524  0.1272 -0.0187
  366loPI   C3B 5855   6.438  10.095   7.805  0.2718 -0.0170 -0.0767
  366loPI   C4B 5856   6.468   9.884   7.357  0.0875  0.0557  0.2342
  367loPI    C1 5857   4.774   3.781   9.131 -0.1001 -0.0941  0.0379
  367loPI    C2 5858   4.780   4.127   9.332  0.0781 -0.0305 -0.0746
  367loPI    C3 5859   4.893   3.788   9.512 -0.1236 -0.0364  0.0443
  367loPI   PO4 5860   4.839   3.837   8.871  0.0958  0.1067  0.0150
  367loPI   GL1 5861   4.958   4.124   8.570  0.2918 -0.2605 -0.2156
  367loPI   GL2 5862   4.677   4.355   8.422  0.1689  0.5955  0.0899
  367loPI   C1A 5863   5.077   3.955   8.226  0.0324 -0.2853 -0.0754
  367loPI   C2A 5864   4.979   3.949   7.881  0.0281 -0.2559  0.6403
  367loPI   C3A 5865   5.078   3.912   7.480 -0.0141 -0.1662 -0.0567
  367loPI   C4A 5866   4.824   3.856   7.174 -0.0803 -0.0209 -0.1839
  367loPI   C5A 5867   4.731   3.542   6.867 -0.0177  0.2625  0.1210
  367loPI   C6A 5868   4.907   3.133   6.760 -0.1756 -0.0871 -0.2021
  367loPI   C1B 5869   4.767   4.398   8.052 -0.2585  0.0381  0.0672
  367loPI   C2B 5870   4.810   4.362   7.688 -0.1065 -0.0103 -0.0341
  367loPI   C3B 5871   4.710   4.376   7.276 -0.0091  0.1568 -0.1889
  367loPI   C4B 5872   4.649   4.601   6.960 -0.0777 -0.0719 -0.0034
  368loPI    C1 5873   6.133  11.785   9.573  0.2008  0.2042  0.1382
  368loPI    C2 5874   5.907  11.901   9.264  0.1845 -0.2833 -0.0434
  368loPI    C3 5875   6.074  12.174   9.505 -0.5652  0.0931  0.0795
  368loPI   PO4 5876   6.358  11.594   9.472 -0.0553 -0.1978  0.0071
  368loPI   GL1 5877   6.497  11.750   9.071  0.0728  0.2029 -0.0722
  368loPI   GL2 5878   6.333  12.033   9.130 -0.1494  0.3093 -0.0723
  368loPI   C1A 5879   6.516  11.522   8.717  0.1539 -0.1513  0.1157
  368loPI   C2A 5880   6.518  11.301   8.296 -0.0675 -0.1704 -0.1035
  368loPI   C3A 5881   6.558  11.515   7.915  0.1661 -0.1022  0.2324
  368loPI   C4A 5882   6.710  11.814   7.697  0.1188  0.2621  0.0678
  368loPI   C5A 5883   7.111  11.856   7.491 -0.0076  0.3636 -0.1450
  368loPI   C6A 5884   7.314  12.251   7.466 -0.2268  0.1191 -0.1132
  368loPI   C1B 5885   6.212  11.899   8.655 -0.1113  0.0164 -0.1438
  368loPI   C2B 5886   6.165  11.719   8.235 -0.3412 -0.1971 -0.3767
  368loPI   C3B 5887   6.058  11.546   7.873  0.4291 -0.2431 -0.1443
  368loPI   C4B 5888   6.063  11.776   7.490  0.0101  0.0248 -0.1954
  369loPI    C1 5889   5.853  14.482  10.031 -0.0108 -0.1038  0.2378
  369loPI    C2 5890   5.984  14.505  10.408  0.2988  0.0700  0.1227
  369loPI    C3 5891   5.963  14.150  10.225  0.2347 -0.0040  0.2724
  369loPI   PO4 5892   5.905  14.755   9.930  0.0715 -0.0493  0.1617
  369loPI   GL1 5893   6.082  14.954   9.511 -0.1009  0.3431  0.3078
  369loPI   GL2 5894   6.246  14.747   9.499 -0.3458 -0.2399 -0.3228
  369loPI   C1A 5895   6.476  15.093   9.244  0.2442  0.2262  0.2816
  369loPI   C2A 5896   6.713  15.170   8.830  0.1199  0.0866  0.1593
  369loPI   C3A 5897   6.945  15.189   8.539  0.2575  0.0126  0.1664
  369loPI   C4A 5898   6.977  15.471   8.122  0.1055  0.0128  0.0319
  369loPI   C5A 5899   6.823  15.651   7.779  0.0117 -0.1026 -0.2602
  369loPI   C6A 5900   6.669  15.910   7.405  0.2595  0.1396  0.1938
  369loPI   C1B 5901   6.282  14.663   9.121  0.0112 -0.0863  0.0592
  369loPI   C2B 5902   6.256  14.549   8.705 -0.0640 -0.1841  0.0692
  369loPI   C3B 5903   6.423  14.760   8.394  0.0756  0.2312 -0.0145
  369loPI   C4B 5904   6.741  15.028   8.122  0.1262  0.0502  0.2126
  370loPI    C1 5905  12.470   2.023  10.477  0.1048 -0.1890  0.0665
  370loPI    C2 5906  12.342   2.362  10.647 -0.3581 -0.2504 -0.1446
  370loPI    C3 5907  12.701   2.213  10.743 -0.1493  0.2942 -0.0466
  370loPI   PO4 5908  12.507   2.027  10.190 -0.0791 -0.1062  0.0041
  370loPI   GL1 5909  12.588   2.220   9.727 -0.3685  0.3544  0.1928
  370loPI   GL2 5910  12.622   2.511   9.615 -0.2010 -0.1192  0.0273
  370loPI   C1A 5911  12.218   2.165   9.382 -0.1737 -0.3028 -0.4387
  370loPI   C2A 5912  12.105   1.999   9.032 -0.2373  0.2685 -0.0173
  370loPI   C3A 5913  11.769   2.226   8.672 -0.1108  0.0287 -0.0458
  370loPI   C4A 5914  11.765   2.367   8.244  0.1425  0.2031 -0.1926
  370loPI   C5A 5915  11.604   2.620   7.973  0.1670  0.0930  0.0745
  370loPI   C6A 5916  11.466   3.081   8.161  0.1594 -0.1329  0.1862
  370loPI   C1B 5917  12.560   2.387   9.117 -0.0936 -0.0128 -0.0799
  370loPI   C2B 5918  12.652   2.453   8.669 -0.0208  0.2906  0.1424
  370loPI   C3B 5919  12.261   2.436   8.385  0.0816  0.0671 -0.0621
  370loPI   C4B 5920  12.167   2.504   7.946 -0.0096 -0.2316 -0.0260
  371loPI    C1 5921   1.891   5.666   9.622 -0.1498  0.3090 -0.0708
  371loPI    C2 5922   1.750   5.930   9.887 -0.2867 -0.1432  0.3212
  371loPI    C3 5923   1.990   5.634  10.008 -0.4720 -0.4469 -0.0324
  371loPI   PO4 5924   2.078   5.821   9.419  0.1236  0.0553 -0.0873
  371loPI   GL1 5925   1.905   5.892   9.015  0.1245  0.2874  0.1565
  371loPI   GL2 5926   2.037   5.604   8.996  0.1329 -0.1454 -0.0145
  371loPI   C1A 5927   2.007   6.184   8.700  0.0269 -0.0485 -0.2152
  371loPI   C2A 5928   2.143   6.197   8.231  0.2102  0.1090 -0.0084
  371loPI   C3A 5929   2.108   6.268   7.855 -0.1356  0.1140 -0.0130
  371loPI   C4A 5930   2.139   6.334   7.378 -0.1444  0.1637  0.1737
  371loPI   C5A 5931   2.404   6.490   7.035  0.0852 -0.2841  0.1187
  371loPI   C6A 5932   2.832   6.465   6.931  0.2109 -0.0168  0.4779
  371loPI   C1B 5933   2.113   5.701   8.568 -0.3173  0.2287  0.0024
  371loPI   C2B 5934   2.031   5.570   8.122 -0.0374 -0.1069 -0.1818
  371loPI   C3B 5935   2.051   5.357   7.675  0.1232  0.2609  0.1234
  371loPI   C4B 5936   1.959   5.034   7.294  0.3784  0.3442 -0.0231
  372loPI    C1 5937   1.901   1.378   9.412 -0.1348  0.2812 -0.1625
  372loPI    C2 5938   2.285   1.427   9.311  0.0255 -0.2802  0.1370
  372loPI    C3 5939   2.089   1.721   9.499  0.3032  0.0139 -0.0231
  372loPI   PO4 5940   1.748   1.330   9.244 -0.0296 -0.0965 -0.1345
  372loPI   GL1 5941   1.911   1.420   8.920 -0.2505  0.0573 -0.0637
  372loPI   GL2 5942   1.894   1.767   8.943  0.0009  0.0805  0.2379
  372loPI   C1A 5943   2.177   1.146   8.734 -0.2835 -0.0346  0.4798
  372loPI   C2A 5944   2.065   0.908   8.354 -0.1712 -0.2364  0.2515
  372loPI   C3A 5945   1.968   0.449   8.124  0.0921  0.2760  0.0677
  372loPI   C4A 5946   1.798   0.159   7.912  0.0294  0.1290 -0.0706
  372loPI   C5A 5947   1.455  -0.042   7.690  0.1083  0.0402  0.1465
  372loPI   C6A 5948   1.181   0.247   7.486 -0.2023  0.3334 -0.1054
  372loPI   C1B 5949   2.093   1.867   8.506 -0.2100 -0.2960  0.0414
  372loPI   C2B 5950   2.304   2.220   8.308  0.1476 -0.1900  0.1701
  372loPI   C3B 5951   2.486   2.547   8.171  0.1427  0.2598  0.1197
  372loPI   C4B 5952   2.604   2.689   7.772  0.0034 -0.0778  0.1513
  373loPI    C1 5953  10.455  11.617  10.077  0.2230  0.1966  0.1266
  373loPI    C2 5954  10.455  11.804  10.431  0.2402 -0.0590  0.2646
  373loPI    C3 5955  10.108  11.716  10.252  0.2323  0.1119  0.1941
  373loPI   PO4 5956  10.715  11.725   9.986 -0.2126  0.1444 -0.3434
  373loPI   GL1 5957  10.813  11.535   9.625 -0.0694  0.1008  0.3857
  373loPI   GL2 5958  10.928  11.723   9.397  0.0404 -0.0084  0.1906
  373loPI   C1A 5959  10.478  11.664   9.217 -0.1429  0.0247  0.1528
  373loPI   C2A 5960  10.451  11.557   8.744 -0.0183 -0.3302  0.1468
  373loPI   C3A 5961  10.699  11.501   8.461  0.1166 -0.1300 -0.1183
  373loPI   C4A 5962  10.811  11.237   8.214 -0.0499 -0.0283 -0.2309
  373loPI   C5A 5963  11.140  11.063   7.961  0.2674 -0.2505 -0.2810
  373loPI   C6A 5964  11.458  11.188   7.693 -0.2964  0.1774 -0.1575
  373loPI   C1B 5965  10.902  11.850   8.868 -0.1124  0.2017 -0.2767
  373loPI   C2B 5966  10.916  11.947   8.541  0.2075 -0.0284  0.0334
  373loPI   C3B 5967  10.685  11.899   8.145  0.3208 -0.0708 -0.0517
  373loPI   C4B 5968  10.709  11.978   7.752 -0.0463 -0.3660  0.2731
  374loPI    C1 5969   7.850  11.711   9.940  0.0591 -0.1909 -0.1753
  374loPI    C2 5970   8.089  11.766  10.256 -0.0898 -0.1298 -0.0719
  374loPI    C3 5971   7.913  11.412  10.197 -0.1303 -0.1154 -0.0382
  374loPI   PO4 5972   7.704  11.864   9.928  0.2327 -0.2112  0.2252
  374loPI   GL1 5973   7.717  12.279   9.576  0.0357  0.3538  0.1327
  374loPI   GL2 5974   7.988  12.035   9.503  0.0042  0.0421 -0.1023
  374loPI   C1A 5975   7.612  12.284   9.181 -0.0070 -0.0961  0.1040
  374loPI   C2A 5976   7.773  12.352   8.845 -0.6205 -0.0755  0.3976
  374loPI   C3A 5977   8.090  12.252   8.668  0.0120  0.1211  0.1690
  374loPI   C4A 5978   8.464  12.424   8.538 -0.2427  0.3379  0.4407
  374loPI   C5A 5979   8.592  12.766   8.350 -0.2877 -0.0926  0.1228
  374loPI   C6A 5980   8.788  12.415   8.085  0.0960  0.1643  0.4492
  374loPI   C1B 5981   8.110  11.986   9.157 -0.2806  0.1852  0.1164
  374loPI   C2B 5982   8.407  11.802   8.881  0.0151  0.1657  0.3000
  374loPI   C3B 5983   8.696  11.925   8.663  0.2248  0.0313 -0.0120
  374loPI   C4B 5984   8.999  12.010   8.455 -0.1350  0.0904  0.0616
  375loPI    C1 5985  10.725  19.220  10.193 -0.0087 -0.0992 -0.0639
  375loPI    C2 5986  10.350  19.358  10.185  0.0202 -0.0046  0.1406
  375loPI    C3 5987  10.635  19.564  10.375  0.1922 -0.0391 -0.0752
  375loPI   PO4 5988  10.876  19.207   9.880  0.0455  0.0612  0.0591
  375loPI   GL1 5989  10.813  18.909   9.593  0.0445  0.0946 -0.4970
  375loPI   GL2 5990  11.102  19.025   9.505 -0.2069 -0.5029  0.0466
  375loPI   C1A 5991  10.676  18.817   9.174  0.0751  0.4354  0.1604
  375loPI   C2A 5992  10.681  18.799   8.687  0.0045  0.2814  0.1418
  375loPI   C3A 5993  10.693  18.876   8.318  0.1917  0.3629 -0.1483
  375loPI   C4A 5994  10.797  19.073   7.961 -0.2036 -0.0842 -0.1528
  375loPI   C5A 5995  11.170  19.169   7.638 -0.0030  0.2783 -0.2385
  375loPI   C6A 5996  11.436  18.981   7.270  0.3274  0.1184  0.0750
  375loPI   C1B 5997  11.043  19.249   9.104 -0.1039 -0.0323  0.1409
  375loPI   C2B 5998  11.016  19.177   8.633  0.0460 -0.2922  0.0768
  375loPI   C3B 5999  11.238  18.961   8.284  0.0056 -0.0162 -0.0637
  375loPI   C4B 6000  11.354  18.679   7.852  0.2331 -0.1798  0.2331
  376loPI    C1 6001  14.998   1.143  10.629  0.1190  0.2715  0.1345
  376loPI    C2 6002  14.787   0.988  10.931  0.1329  0.0819  0.0486
  376loPI    C3 6003  15.185   0.954  10.928  0.1220 -0.0438 -0.0618
  376loPI   PO4 6004  14.993   1.453  10.570  0.2008 -0.1196  0.0285
  376loPI   GL1 6005  14.965   1.589  10.156  0.1284 -0.2197  0.0672
  376loPI   GL2 6006  15.082   1.832  10.121  0.1945 -0.1406 -0.2575
  376loPI   C1A 6007  14.573   1.644  10.087  0.0228  0.0984 -0.2874
  376loPI   C2A 6008  14.474   1.645   9.690 -0.1600 -0.2600  0.0215
  376loPI   C3A 6009  14.108   1.745   9.487  0.4178 -0.1630  0.1077
  376loPI   C4A 6010  13.742   1.719   9.173 -0.1568  0.0057  0.0379
  376loPI   C5A 6011  13.480   1.951   8.742 -0.4065  0.3318  0.0398
  376loPI   C6A 6012  13.350   2.115   8.333  0.2332 -0.0225 -0.5646
  376loPI   C1B 6013  14.934   1.724   9.712 -0.1524  0.0485  0.0579
  376loPI   C2B 6014  14.828   1.659   9.323 -0.3728  0.1071 -0.0270
  376loPI   C3B 6015  14.575   1.637   9.087 -0.3786 -0.1677 -0.3804
  376loPI   C4B 6016  14.176   1.586   8.952  0.0337 -0.0551  0.0313
  377loPI    C1 6017  16.271  15.217  10.351  0.0165 -0.0535  0.0339
  377loPI    C2 6018  16.545  15.454  10.522  0.0644 -0.1394  0.0770
  377loPI    C3 6019  16.565  15.057  10.572  0.1433 -0.1744 -0.2182
  377loPI   PO4 6020  16.266  15.295  10.036 -0.0346  0.2248 -0.0120
  377loPI   GL1 6021  16.440  15.247   9.628 -0.2610 -0.2713  0.0745
  377loPI   GL2 6022  16.389  14.898   9.638 -0.1388  0.0450  0.1085
  377loPI   C1A 6023  16.111  15.156   9.315 -0.1776 -0.0629  0.0923
  377loPI   C2A 6024  15.792  15.193   9.034 -0.1051  0.0028  0.3671
  377loPI   C3A 6025  15.567  15.045   8.760 -0.0318 -0.0102  0.1206
  377loPI   C4A 6026  15.239  15.204   8.424 -0.1255  0.2992  0.0091
  377loPI   C5A 6027  15.209  15.423   8.106 -0.2544  0.1004 -0.4999
  377loPI   C6A 6028  14.936  15.521   7.772  0.4363  0.2798 -0.1995
  377loPI   C1B 6029  16.451  14.777   9.210  0.2878  0.1788  0.1002
  377loPI   C2B 6030  16.323  14.927   8.745  0.0435  0.1532  0.0182
  377loPI   C3B 6031  16.283  14.872   8.388 -0.0103 -0.1869 -0.0690
  377loPI   C4B 6032  16.056  14.946   7.999 -0.1176 -0.3229 -0.2025
  378loPI    C1 6033   3.199  15.084   9.780 -0.0145 -0.0328  0.2536
  378loPI    C2 6034   3.542  14.918   9.900  0.1067  0.2058  0.2442
  378loPI    C3 6035   3.254  14.994  10.166  0.0769  0.0444  0.2591
  378loPI   PO4 6036   3.176  15.036   9.578 -0.3183 -0.0998  0.0708
  378loPI   GL1 6037   3.137  15.046   9.169 -0.0931 -0.0482 -0.1451
  378loPI   GL2 6038   3.379  14.990   8.957  0.2386  0.0726 -0.1317
  378loPI   C1A 6039   3.014  14.653   9.022 -0.1008  0.3415 -0.1881
  378loPI   C2A 6040   3.141  14.550   8.586  0.1549  0.2681  0.1502
  378loPI   C3A 6041   2.854  14.699   8.246  0.0279  0.0036  0.1072
  378loPI   C4A 6042   2.918  14.800   7.807 -0.2209  0.2884 -0.0617
  378loPI   C5A 6043   3.158  14.944   7.482 -0.0491  0.0596 -0.0109
  378loPI   C6A 6044   3.162  15.299   7.275  0.0518  0.3111 -0.0166
  378loPI   C1B 6045   3.615  14.741   8.683 -0.0613 -0.1919  0.1358
  378loPI   C2B 6046   3.947  14.584   8.553  0.1356 -0.5822  0.6147
  378loPI   C3B 6047   3.695  14.458   8.236  0.3053  0.1344 -0.0169
  378loPI   C4B 6048   3.296  14.477   8.008  0.1777  0.0566  0.1790
  379loPI    C1 6049  11.637  12.100  10.192  0.0142  0.2038  0.1314
  379loPI    C2 6050  11.980  12.241  10.343  0.2463  0.0488 -0.2368
  379loPI    C3 6051  11.868  11.864  10.418  0.1113  0.1240 -0.0498
  379loPI   PO4 6052  11.651  12.175   9.949 -0.1244 -0.2963  0.1518
  379loPI   GL1 6053  11.777  12.243   9.541  0.0700  0.3789  0.0445
  379loPI   GL2 6054  11.900  11.970   9.553  0.0996 -0.0120 -0.0206
  379loPI   C1A 6055  11.526  12.404   9.133  0.2656  0.1351 -0.0875
  379loPI   C2A 6056  11.574  12.484   8.730  0.0555 -0.1805  0.1081
  379loPI   C3A 6057  11.627  12.418   8.306 -0.1134  0.2759  0.0594
  379loPI   C4A 6058  11.441  12.546   7.811 -0.2965  0.0613 -0.3549
  379loPI   C5A 6059  11.339  12.855   7.420 -0.0255  0.0400  0.0582
  379loPI   C6A 6060  11.584  12.968   7.112 -0.0626 -0.2624 -0.0311
  379loPI   C1B 6061  12.039  12.063   9.067  0.1279  0.1323  0.0462
  379loPI   C2B 6062  11.995  12.275   8.675  0.0780 -0.2301  0.2666
  379loPI   C3B 6063  12.151  12.173   8.285 -0.1024 -0.2988  0.0691
  379loPI   C4B 6064  12.126  12.322   7.916  0.0994  0.0209  0.0698
  380loPI    C1 6065   7.426   2.671   9.716  0.1053  0.1075 -0.2485
  380loPI    C2 6066   7.634   2.944   9.921 -0.0998  0.2082 -0.1728
  380loPI    C3 6067   7.249   2.879  10.007  0.0232 -0.3189  0.0150
  380loPI   PO4 6068   7.367   2.842   9.437 -0.1410 -0.1222  0.1279
  380loPI   GL1 6069   7.573   3.008   9.074 -0.0490  0.2399 -0.1824
  380loPI   GL2 6070   7.893   3.154   8.872 -0.0188  0.0194 -0.4362
  380loPI   C1A 6071   7.512   2.884   8.654 -0.0453 -0.2723 -0.2189
  380loPI   C2A 6072   7.522   2.746   8.245  0.0510 -0.3690 -0.0263
  380loPI   C3A 6073   7.604   3.026   7.958  0.1141  0.0024 -0.0349
  380loPI   C4A 6074   7.824   3.152   7.558  0.0170  0.2712 -0.1679
  380loPI   C5A 6075   8.178   3.147   7.189  0.0793 -0.1203 -0.0451
  380loPI   C6A 6076   7.976   3.106   6.716 -0.4159  0.1011  0.2329
  380loPI   C1B 6077   7.924   2.988   8.429 -0.0826 -0.0303  0.1604
  380loPI   C2B 6078   8.139   2.892   8.141 -0.3580  0.1994  0.0802
  380loPI   C3B 6079   8.273   2.981   7.625  0.0324 -0.2405 -0.0801
  380loPI   C4B 6080   8.439   2.791   7.309 -0.2631  0.1357  0.1828
  381loPI    C1 6081   7.101  11.743   9.875  0.1610  0.0302  0.0423
  381loPI    C2 6082   6.836  11.878  10.143  0.0689  0.2397 -0.1508
  381loPI    C3 6083   7.227  11.874  10.232 -0.0007 -0.1481  0.1671
  381loPI   PO4 6084   7.038  11.905   9.698  0.0454 -0.0005 -0.0155
  381loPI   GL1 6085   7.201  12.161   9.424  0.2074  0.2355 -0.2496
  381loPI   GL2 6086   7.042  11.914   9.210  0.1986 -0.1778  0.0114
  381loPI   C1A 6087   7.069  12.402   9.070 -0.2665 -0.0597 -0.0256
  381loPI   C2A 6088   7.043  12.582   8.667  0.1522 -0.1422  0.3782
  381loPI   C3A 6089   6.818  12.701   8.241  0.0808 -0.0396  0.0099
  381loPI   C4A 6090   6.740  12.749   7.798  0.0391 -0.0764  0.0163
  381loPI   C5A 6091   6.912  12.649   7.456  0.0026  0.3697  0.2275
  381loPI   C6A 6092   7.423  12.627   7.150  0.0330 -0.0399 -0.0767
  381loPI   C1B 6093   6.952  11.840   8.813 -0.2310 -0.1177 -0.1008
  381loPI   C2B 6094   6.959  11.709   8.372  0.2460  0.1977  0.0450
  381loPI   C3B 6095   7.135  11.784   7.992 -0.0759 -0.0109  0.2345
  381loPI   C4B 6096   7.446  11.480   7.752 -0.2929  0.1181 -0.1915
  382loPI    C1 6097   9.238   3.497   9.719  0.0868 -0.2513 -0.0826
  382loPI    C2 6098   9.192   3.335  10.082 -0.2377  0.1333  0.0557
  382loPI    C3 6099   9.281   3.724  10.045  0.2406  0.0021 -0.2749
  382loPI   PO4 6100   9.150   3.381   9.557 -0.0452 -0.3605 -0.1066
  382loPI   GL1 6101   9.214   3.485   9.219 -0.1533  0.0560  0.0631
  382loPI   GL2 6102   9.532   3.688   9.139  0.1879 -0.1288 -0.0246
  382loPI   C1A 6103   9.410   3.342   8.706 -0.1778 -0.0435  0.0916
  382loPI   C2A 6104   9.388   3.128   8.357 -0.3498 -0.0207 -0.0600
  382loPI   C3A 6105   9.507   2.981   7.968 -0.0916  0.1192  0.2404
  382loPI   C4A 6106   9.340   3.186   7.634  0.2550  0.0991 -0.3105
  382loPI   C5A 6107   9.060   3.513   7.577  0.1593  0.0098  0.0675
  382loPI   C6A 6108   8.832   3.881   7.330 -0.2169  0.0315 -0.1980
  382loPI   C1B 6109   9.590   3.894   8.765 -0.1831 -0.1769  0.1156
  382loPI   C2B 6110   9.493   3.677   8.354 -0.1425 -0.1544 -0.3040
  382loPI   C3B 6111   9.542   3.585   7.948 -0.4214  0.0728  0.0383
  382loPI   C4B 6112   9.754   3.655   7.504  0.1143 -0.2204  0.0625
  383loPI    C1 6113  13.846  11.260   9.768  0.1900 -0.1198  0.2167
  383loPI    C2 6114  14.074  11.397  10.067  0.0651 -0.0613  0.2862
  383loPI    C3 6115  13.707  11.258  10.144  0.0831 -0.1706  0.1772
  383loPI   PO4 6116  13.743  11.525   9.550 -0.0430  0.1668  0.0991
  383loPI   GL1 6117  13.860  11.609   9.222  0.0106  0.4344 -0.0564
  383loPI   GL2 6118  14.074  11.965   9.238  0.0505 -0.2417 -0.2856
  383loPI   C1A 6119  13.798  11.696   8.798 -0.1433  0.1094 -0.0189
  383loPI   C2A 6120  13.863  11.779   8.342  0.1324  0.0969  0.0222
  383loPI   C3A 6121  14.211  11.754   8.070 -0.0714  0.1992 -0.1155
  383loPI   C4A 6122  14.394  11.846   7.675  0.2818 -0.0099  0.0082
  383loPI   C5A 6123  14.446  11.947   7.267 -0.1204  0.1868  0.0656
  383loPI   C6A 6124  14.420  12.342   7.122  0.0480  0.0613 -0.1621
  383loPI   C1B 6125  14.016  12.196   8.833 -0.0036 -0.0728  0.1574
  383loPI   C2B 6126  14.045  12.286   8.374 -0.0686 -0.0866 -0.2197
  383loPI   C3B 6127  13.954  12.204   7.967  0.0478  0.1127  0.2025
  383loPI   C4B 6128  14.009  12.102   7.458  0.2519 -0.1491  0.0428
  384loPI    C1 6129  18.483   6.105   9.453  0.0832 -0.0376  0.0260
  384loPI    C2 6130  18.209   6.028   9.735  0.0529  0.0312  0.0155
  384loPI    C3 6131  18.494   6.301   9.802  0.0795  0.0069  0.0014
  384loPI   PO4 6132  18.391   6.128   9.273 -0.1969 -0.1890  0.2142
  384loPI   GL1 6133  18.214   5.816   9.063 -0.1273  0.2140 -0.3854
  384loPI   GL2 6134  18.384   5.401   8.955  0.3051  0.0525 -0.2449
  384loPI   C1A 6135  18.078   5.892   8.604 -0.2257 -0.1630  0.1796
  384loPI   C2A 6136  17.791   5.923   8.233  0.0127  0.3067  0.0480
  384loPI   C3A 6137  17.662   5.874   7.828 -0.0992 -0.3171  0.1936
  384loPI   C4A 6138  17.377   6.001   7.609 -0.1146  0.0539  0.0203
  384loPI   C5A 6139  17.202   6.101   7.212 -0.3325 -0.0770 -0.0584
  384loPI   C6A 6140  16.846   5.956   7.067  0.0463  0.0514 -0.1398
  384loPI   C1B 6141  18.400   5.182   8.522  0.0494  0.3298  0.1815
  384loPI   C2B 6142  18.356   5.120   8.082 -0.0384  0.1432 -0.1022
  384loPI   C3B 6143  18.208   4.777   7.868 -0.0261  0.0030 -0.3162
  384loPI   C4B 6144  17.948   4.364   7.742  0.2532  0.0173  0.1557
  385loPI    C1 6145  17.637   3.017   9.931  0.2449  0.1808 -0.1268
  385loPI    C2 6146  17.494   3.191  10.262 -0.2944  0.1702 -0.3448
  385loPI    C3 6147  17.715   3.402  10.004  0.0268  0.2106 -0.0433
  385loPI   PO4 6148  17.367   3.061   9.754  0.2630  0.3577 -0.1493
  385loPI   GL1 6149  17.349   2.995   9.381 -0.1507  0.2476  0.2969
  385loPI   GL2 6150  17.058   2.911   9.384 -0.0130  0.0050 -0.1144
  385loPI   C1A 6151  17.459   2.994   8.939 -0.0330  0.2610  0.1064
  385loPI   C2A 6152  17.244   2.983   8.721 -0.0946  0.0008  0.0101
  385loPI   C3A 6153  17.104   2.995   8.362 -0.1090  0.4088  0.0783
  385loPI   C4A 6154  17.288   3.099   7.980  0.3407 -0.2116  0.3268
  385loPI   C5A 6155  17.508   3.213   7.612 -0.1946 -0.0544  0.1093
  385loPI   C6A 6156  17.765   3.469   7.282 -0.0973 -0.0498  0.1139
  385loPI   C1B 6157  16.872   2.741   8.985 -0.0256  0.3684  0.0210
  385loPI   C2B 6158  17.009   2.518   8.577  0.4591  0.3227  0.3563
  385loPI   C3B 6159  16.873   2.214   8.267 -0.0425 -0.0831 -0.0665
  385loPI   C4B 6160  16.699   2.197   7.909 -0.0654  0.2984 -0.1982
  386loPI    C1 6161   5.301  10.795   9.509 -0.0537 -0.0704 -0.1984
  386loPI    C2 6162   5.445  10.733   9.876 -0.0311  0.2625 -0.1474
  386loPI    C3 6163   5.090  10.581   9.772  0.0855 -0.0638 -0.0804
  386loPI   PO4 6164   5.432  10.734   9.342 -0.0886  0.2768 -0.1225
  386loPI   GL1 6165   5.501  10.738   8.893  0.3156  0.1666 -0.2629
  386loPI   GL2 6166   5.556  10.993   8.655 -0.1138  0.2261 -0.1020
  386loPI   C1A 6167   5.480  10.467   8.425  0.1447 -0.2638  0.2063
  386loPI   C2A 6168   5.542  10.397   8.047 -0.0507 -0.0239  0.1617
  386loPI   C3A 6169   5.850  10.541   7.747  0.0576  0.2544 -0.5675
  386loPI   C4A 6170   5.931  10.519   7.407 -0.1145  0.0660 -0.3717
  386loPI   C5A 6171   5.778  10.504   6.950  0.0196 -0.2432  0.2149
  386loPI   C6A 6172   5.823  10.363   6.535  0.4383 -0.0194 -0.1614
  386loPI   C1B 6173   5.540  10.943   8.237  0.1061 -0.2098 -0.2176
  386loPI   C2B 6174   5.555  10.965   7.805  0.0291  0.1464  0.2112
  386loPI   C3B 6175   5.388  11.016   7.465  0.3473  0.0559  0.1669
  386loPI   C4B 6176   5.054  11.158   7.305 -0.0790  0.0313 -0.3175
  387loPI    C1 6177  13.475   6.693   9.890 -0.3070  0.2490 -0.0161
  387loPI    C2 6178  13.106   6.679  10.045 -0.1968 -0.2979  0.2226
  387loPI    C3 6179  13.400   6.463  10.209  0.1329 -0.2066 -0.2270
  387loPI   PO4 6180  13.455   6.670   9.626 -0.0438 -0.1095  0.0518
  387loPI   GL1 6181  13.403   6.890   9.257 -0.4587 -0.0163 -0.1433
  387loPI   GL2 6182  13.385   7.253   9.273  0.1425  0.0697  0.2024
  387loPI   C1A 6183  13.094   6.638   9.014  0.0449  0.5727  0.1300
  387loPI   C2A 6184  13.153   6.249   8.836 -0.2187  0.4486  0.0347
  387loPI   C3A 6185  13.166   6.052   8.428  0.0725 -0.2557  0.1804
  387loPI   C4A 6186  13.201   5.936   8.060  0.1185  0.1978 -0.0504
  387loPI   C5A 6187  13.098   6.019   7.639  0.1767  0.0536  0.3435
  387loPI   C6A 6188  12.695   6.072   7.295  0.2933 -0.0291 -0.1342
  387loPI   C1B 6189  13.246   7.249   8.895  0.3254 -0.1959 -0.0151
  387loPI   C2B 6190  13.249   6.999   8.521 -0.1801 -0.1952 -0.0244
  387loPI   C3B 6191  13.220   6.628   8.453 -0.1789  0.0816 -0.2749
  387loPI   C4B 6192  13.239   6.451   8.096  0.0038 -0.1399 -0.1261
  388loPI    C1 6193   8.550   3.810   9.702  0.1005 -0.1134  0.1113
  388loPI    C2 6194   8.456   3.428   9.777  0.1277 -0.1006  0.2126
  388loPI    C3 6195   8.815   3.570   9.882  0.1440 -0.0656  0.1111
  388loPI   PO4 6196   8.298   3.872   9.449  0.1235  0.0103  0.1748
  388loPI   GL1 6197   8.372   4.051   9.095 -0.0908  0.0988 -0.1021
  388loPI   GL2 6198   8.224   4.144   8.867  0.0707  0.2083  0.0479
  388loPI   C1A 6199   8.580   3.823   8.629  0.1761 -0.3139  0.0716
  388loPI   C2A 6200   8.675   3.690   8.183 -0.2623 -0.2480 -0.2418
  388loPI   C3A 6201   8.599   3.864   7.767 -0.0886 -0.1306 -0.0895
  388loPI   C4A 6202   8.146   3.919   7.780 -0.1464  0.1157 -0.1079
  388loPI   C5A 6203   7.888   3.996   8.136  0.2409  0.0269  0.2913
  388loPI   C6A 6204   7.853   4.323   8.526  0.2552 -0.2515  0.1398
  388loPI   C1B 6205   8.432   4.268   8.439  0.2110  0.1892 -0.4731
  388loPI   C2B 6206   8.714   4.232   8.075 -0.1205  0.2891 -0.2844
  388loPI   C3B 6207   8.968   4.242   7.657  0.1835 -0.0298  0.2656
  388loPI   C4B 6208   9.223   4.346   7.277  0.2168 -0.0946 -0.1782
  389loPI    C1 6209  18.410  10.041   9.284 -0.0420 -0.1255 -0.1643
  389loPI    C2 6210  18.190  10.010   9.616  0.0664  0.1095 -0.0684
  389loPI    C3 6211  18.589  10.022   9.641  0.0784  0.0315 -0.2151
  389loPI   PO4 6212  18.390   9.845   9.132 -0.2173  0.1587 -0.2163
  389loPI   GL1 6213  18.194   9.831   8.771 -0.1794  0.0386 -0.0956
  389loPI   GL2 6214  17.904   9.449   8.845  0.0178  0.4957 -0.3696
  389loPI   C1A 6215  18.376   9.729   8.436  0.1930  0.1470 -0.2939
  389loPI   C2A 6216  18.432   9.791   8.055 -0.0725 -0.0379  0.2325
  389loPI   C3A 6217  18.491   9.608   7.685 -0.0744  0.2004 -0.3205
  389loPI   C4A 6218  18.458   9.429   7.223  0.4294  0.1704 -0.0450
  389loPI   C5A 6219  18.391   9.214   6.821  0.1322 -0.0851  0.0104
  389loPI   C6A 6220  18.396   8.785   6.609 -0.3000 -0.1911  0.0041
  389loPI   C1B 6221  17.577   9.405   8.576 -0.2942 -0.0869  0.0494
  389loPI   C2B 6222  17.594   9.391   8.139  0.1121 -0.2796  0.0672
  389loPI   C3B 6223  17.449   9.435   7.769  0.2436  0.1570 -0.1829
  389loPI   C4B 6224  17.610   9.371   7.423 -0.1761 -0.2538  0.0472
  390loPI    C1 6225   1.132  17.897   9.731  0.0207  0.2039 -0.0514
  390loPI    C2 6226   1.151  17.925  10.129 -0.2125  0.2971 -0.0456
  390loPI    C3 6227   1.479  17.831   9.920 -0.2126 -0.3227  0.2125
  390loPI   PO4 6228   0.876  17.660   9.635  0.1400  0.1215  0.3864
  390loPI   GL1 6229   0.728  17.776   9.259  0.0398 -0.0950  0.0442
  390loPI   GL2 6230   0.488  17.716   9.343  0.0670  0.2212 -0.2511
  390loPI   C1A 6231   0.946  17.648   8.941  0.0491  0.0675 -0.3099
  390loPI   C2A 6232   0.977  17.466   8.468 -0.2464  0.0522  0.1601
  390loPI   C3A 6233   1.162  17.342   8.142  0.2183  0.1883 -0.0587
  390loPI   C4A 6234   1.543  17.223   7.903 -0.2225  0.0109 -0.0186
  390loPI   C5A 6235   1.645  17.010   7.551 -0.0873  0.1490  0.1318
  390loPI   C6A 6236   1.962  16.930   7.225  0.2510 -0.2051  0.1624
  390loPI   C1B 6237   0.322  17.963   8.963 -0.2880  0.0664  0.1374
  390loPI   C2B 6238  -0.005  18.102   8.647 -0.1479  0.2578 -0.0286
  390loPI   C3B 6239  -0.079  18.197   8.235 -0.2636  0.2917 -0.3506
  390loPI   C4B 6240  -0.158  18.303   7.815 -0.0887  0.3084 -0.4532
  391loPI    C1 6241   0.632   3.854   9.247  0.2100 -0.1361  0.2679
  391loPI    C2 6242   0.417   4.136   9.062  0.2467 -0.3103 -0.0485
  391loPI    C3 6243   0.627   4.227   9.391  0.0571 -0.0318 -0.0006
  391loPI   PO4 6244   0.735   3.804   8.981 -0.2491  0.0379 -0.1307
  391loPI   GL1 6245   0.502   3.862   8.637 -0.0446  0.0173 -0.0311
  391loPI   GL2 6246   0.674   4.130   8.525 -0.1630 -0.1636  0.3455
  391loPI   C1A 6247   0.287   3.718   8.325  0.1601  0.2369 -0.1168
  391loPI   C2A 6248   0.130   3.418   8.074 -0.0508  0.1927 -0.0505
  391loPI   C3A 6249   0.336   3.130   7.781 -0.1907  0.0641 -0.0232
  391loPI   C4A 6250   0.184   2.858   7.551 -0.0027  0.0528 -0.2747
  391loPI   C5A 6251  -0.116   2.535   7.450 -0.0715  0.4466 -0.0940
  391loPI   C6A 6252  -0.507   2.608   7.677 -0.5773  0.1320 -0.1151
  391loPI   C1B 6253   0.769   4.015   8.094  0.1258  0.2509  0.0155
  391loPI   C2B 6254   0.739   3.850   7.758 -0.1004  0.2687  0.2423
  391loPI   C3B 6255   0.451   3.570   7.604 -0.1938  0.3363 -0.2065
  391loPI   C4B 6256   0.189   3.742   7.328  0.0045 -0.2821 -0.0652
  392loPI    C1 6257   1.155  12.324   9.385 -0.0392  0.0472 -0.1842
  392loPI    C2 6258   1.029  12.602   9.643 -0.1164 -0.0032 -0.1672
  392loPI    C3 6259   1.084  12.225   9.766 -0.2493 -0.0492 -0.2472
  392loPI   PO4 6260   1.143  12.435   9.178  0.2924  0.0594 -0.0592
  392loPI   GL1 6261   1.289  12.423   8.749 -0.1449  0.1664  0.2389
  392loPI   GL2 6262   1.497  12.447   8.606 -0.0182 -0.1469 -0.1557
  392loPI   C1A 6263   1.140  12.352   8.212 -0.1358 -0.0853  0.0291
  392loPI   C2A 6264   1.307  12.362   7.708 -0.1541 -0.1943 -0.3029
  392loPI   C3A 6265   1.524  12.387   7.314 -0.4355  0.0489 -0.0339
  392loPI   C4A 6266   1.655  12.520   6.887  0.1254 -0.0312 -0.1283
  392loPI   C5A 6267   1.507  12.340   6.473 -0.1014 -0.0822 -0.1029
  392loPI   C6A 6268   1.593  12.058   6.190 -0.1815 -0.2046  0.3211
  392loPI   C1B 6269   1.607  12.413   8.129  0.0906  0.1804  0.2227
  392loPI   C2B 6270   1.775  12.532   7.718  0.0817 -0.1207  0.2741
  392loPI   C3B 6271   1.803  12.747   7.392 -0.0266  0.0602 -0.0837
  392loPI   C4B 6272   2.132  12.869   6.922  0.0442  0.3338 -0.2270
  393loPI    C1 6273   3.804  14.013   9.852  0.0137  0.0514  0.2834
  393loPI    C2 6274   3.492  13.764   9.873 -0.0375  0.0842 -0.0438
  393loPI    C3 6275   3.436  14.159   9.908  0.0033  0.0722  0.1644
  393loPI   PO4 6276   3.954  13.796   9.638 -0.1381 -0.2437 -0.0806
  393loPI   GL1 6277   3.960  13.804   9.258  0.0934  0.1018  0.0062
  393loPI   GL2 6278   4.120  13.534   9.150 -0.0763 -0.1000  0.2644
  393loPI   C1A 6279   3.966  13.963   8.861 -0.1140 -0.0237 -0.0366
  393loPI   C2A 6280   3.892  13.924   8.385 -0.2371 -0.1307 -0.0170
  393loPI   C3A 6281   3.822  13.982   7.930  0.0468  0.0351 -0.1958
  393loPI   C4A 6282   3.748  14.334   7.716  0.0236  0.0265 -0.0896
  393loPI   C5A 6283   3.351  14.465   7.526 -0.1485  0.1452 -0.1817
  393loPI   C6A 6284   3.171  14.588   7.138  0.0888  0.0323 -0.0038
  393loPI   C1B 6285   4.447  13.746   8.804  0.3697  0.0119 -0.3236
  393loPI   C2B 6286   4.376  13.681   8.392  0.2275 -0.0768  0.3048
  393loPI   C3B 6287   4.268  13.818   8.027  0.1327 -0.2498 -0.1273
  393loPI   C4B 6288   4.207  13.733   7.598  0.3505 -0.3068  0.3503
  394loPI    C1 6289   1.338  12.928   9.004  0.3257 -0.2297 -0.0421
  394loPI    C2 6290   1.392  13.261   9.218  0.2861 -0.1473 -0.1596
  394loPI    C3 6291   1.164  12.965   9.363  0.0665  0.0050 -0.1881
  394loPI   PO4 6292   1.480  12.942   8.800  0.1048 -0.0256 -0.1231
  394loPI   GL1 6293   1.607  13.157   8.412  0.0044  0.4768 -0.2462
  394loPI   GL2 6294   1.686  12.880   8.269 -0.1645 -0.1115  0.1048
  394loPI   C1A 6295   1.258  13.242   8.104 -0.1936  0.1330  0.1451
  394loPI   C2A 6296   0.986  13.579   7.914  0.0729  0.1543  0.1258
  394loPI   C3A 6297   0.811  13.994   7.765  0.3843 -0.2073  0.1921
  394loPI   C4A 6298   0.557  14.216   7.454  0.0157  0.0889 -0.0182
  394loPI   C5A 6299   0.430  14.446   7.032  0.1880 -0.1848 -0.0646
  394loPI   C6A 6300   0.658  14.544   6.641 -0.1021 -0.0346  0.1620
  394loPI   C1B 6301   1.722  13.067   7.916 -0.2103 -0.0527 -0.0215
  394loPI   C2B 6302   1.509  13.338   7.701 -0.3997  0.4423 -0.4419
  394loPI   C3B 6303   1.252  13.604   7.463 -0.1248 -0.2764 -0.1447
  394loPI   C4B 6304   1.247  14.086   7.446  0.1484 -0.0429  0.0190
  395loPI    C1 6305   0.598  12.396   9.737  0.0572 -0.1102  0.1555
  395loPI    C2 6306   0.484  12.778   9.779 -0.0080 -0.0832 -0.2341
  395loPI    C3 6307   0.275  12.487   9.956  0.0075  0.0559  0.0164
  395loPI   PO4 6308   0.653  12.382   9.448 -0.0127  0.2493  0.1879
  395loPI   GL1 6309   0.392  12.461   9.050 -0.1041 -0.1790 -0.1086
  395loPI   GL2 6310   0.676  12.298   8.876  0.3455  0.0689 -0.3106
  395loPI   C1A 6311   0.205  12.372   8.700 -0.0938  0.1682  0.1036
  395loPI   C2A 6312   0.263  12.326   8.310 -0.0076  0.2447 -0.0892
  395loPI   C3A 6313   0.270  12.345   7.762 -0.2298  0.2529 -0.0135
  395loPI   C4A 6314   0.336  12.319   7.332 -0.0120 -0.0054  0.3938
  395loPI   C5A 6315   0.483  12.163   6.892 -0.1483 -0.2263  0.4725
  395loPI   C6A 6316   0.318  12.139   6.462 -0.0619 -0.1836 -0.0719
  395loPI   C1B 6317   0.713  12.539   8.474 -0.0389  0.0112 -0.0584
  395loPI   C2B 6318   0.683  12.512   8.015 -0.1539  0.2573 -0.2006
  395loPI   C3B 6319   0.760  12.223   7.684 -0.3294 -0.2520  0.2885
  395loPI   C4B 6320   0.685  11.941   7.311 -0.1060  0.1295 -0.2670
  396loPI    C1 6321  13.205   2.563  10.279  0.3379 -0.1078  0.0235
  396loPI    C2 6322  13.415   2.845  10.470  0.1609  0.0634 -0.0315
  396loPI    C3 6323  13.018   2.826  10.515  0.1704 -0.1747 -0.0330
  396loPI   PO4 6324  13.370   2.411  10.076 -0.4586  0.0512 -0.1534
  396loPI   GL1 6325  13.365   2.331   9.621 -0.3565  0.1077  0.1384
  396loPI   GL2 6326  13.097   2.535   9.649 -0.1631 -0.3180 -0.1511
  396loPI   C1A 6327  13.307   1.870   9.393  0.2665 -0.1162 -0.1040
  396loPI   C2A 6328  13.117   1.727   9.125 -0.1313 -0.0690 -0.0842
  396loPI   C3A 6329  13.023   1.812   8.689  0.3530  0.2229 -0.1508
  396loPI   C4A 6330  12.826   2.084   8.352 -0.1090  0.1785  0.0530
  396loPI   C5A 6331  12.550   2.098   8.064 -0.0480 -0.1755  0.1702
  396loPI   C6A 6332  12.151   1.837   8.026 -0.1184  0.0340 -0.1850
  396loPI   C1B 6333  12.890   2.704   9.253 -0.1661 -0.0517  0.1596
  396loPI   C2B 6334  12.893   2.904   8.699  0.1695  0.2280 -0.1128
  396loPI   C3B 6335  12.945   3.116   8.279  0.3975 -0.1612  0.1638
  396loPI   C4B 6336  13.212   2.993   7.861 -0.0883 -0.1931 -0.4271
  397loPI    C1 6337  11.634  16.596  10.136  0.3834  0.0411 -0.0873
  397loPI    C2 6338  11.379  16.340   9.964  0.1552  0.3023 -0.1456
  397loPI    C3 6339  11.597  16.224  10.278 -0.0214  0.0688 -0.1065
  397loPI   PO4 6340  11.771  16.680   9.921 -0.0496 -0.0602  0.4671
  397loPI   GL1 6341  11.905  16.538   9.389 -0.1037  0.2775 -0.0708
  397loPI   GL2 6342  12.212  16.599   9.469 -0.1027 -0.0650  0.1861
  397loPI   C1A 6343  11.738  16.786   9.143 -0.0386  0.1287 -0.0373
  397loPI   C2A 6344  11.750  16.726   8.679 -0.1769 -0.0943  0.0999
  397loPI   C3A 6345  11.859  16.401   8.279  0.3296 -0.1737  0.2503
  397loPI   C4A 6346  11.893  16.030   8.024 -0.1573  0.1592  0.1362
  397loPI   C5A 6347  11.673  15.892   7.727 -0.0563  0.2696  0.2923
  397loPI   C6A 6348  11.495  15.832   7.286 -0.3512 -0.0975 -0.1396
  397loPI   C1B 6349  12.296  16.764   9.093  0.2684 -0.1294  0.0840
  397loPI   C2B 6350  12.298  16.771   8.580 -0.2260  0.2232 -0.0795
  397loPI   C3B 6351  12.301  16.686   8.140 -0.0555 -0.1524 -0.4226
  397loPI   C4B 6352  12.183  16.450   7.748 -0.0737 -0.3543  0.0005
  398loPI    C1 6353  13.736  10.450  10.107 -0.2172 -0.0682  0.1448
  398loPI    C2 6354  13.835  10.396  10.491  0.2313  0.2788  0.0869
  398loPI    C3 6355  13.672  10.742  10.373 -0.3442  0.0025  0.0375
  398loPI   PO4 6356  13.905  10.353   9.945 -0.0694  0.1935 -0.2258
  398loPI   GL1 6357  13.870  10.423   9.497  0.0074 -0.2044 -0.2247
  398loPI   GL2 6358  14.122  10.615   9.445 -0.3930  0.0967 -0.0974
  398loPI   C1A 6359  13.919  10.245   9.023  0.1825 -0.2011 -0.0201
  398loPI   C2A 6360  13.517   9.898   8.865  0.3570 -0.1409  0.0828
  398loPI   C3A 6361  13.245  10.049   8.527 -0.2485 -0.2949 -0.0252
  398loPI   C4A 6362  12.921  10.249   8.262  0.1240 -0.0183  0.1280
  398loPI   C5A 6363  12.990  10.353   7.909 -0.0907  0.1449  0.1113
  398loPI   C6A 6364  12.921  10.213   7.540 -0.2655  0.2033 -0.1159
  398loPI   C1B 6365  14.332  10.627   9.067 -0.0100 -0.0496  0.1500
  398loPI   C2B 6366  14.569  10.427   8.688 -0.0094 -0.1759 -0.1938
  398loPI   C3B 6367  14.789  10.517   8.419  0.4409  0.2309  0.1191
  398loPI   C4B 6368  14.976  10.526   8.138  0.0810 -0.0627 -0.2297
  399loPI    C1 6369  10.479  10.268  10.070 -0.0784  0.1694 -0.0056
  399loPI    C2 6370  10.133  10.153  10.232 -0.0394  0.0067 -0.0358
  399loPI    C3 6371  10.466  10.157  10.454 -0.0467  0.0949 -0.0259
  399loPI   PO4 6372  10.447  10.156   9.850  0.0287  0.0435 -0.0691
  399loPI   GL1 6373  10.245  10.109   9.365 -0.0354  0.2335 -0.1359
  399loPI   GL2 6374  10.606  10.195   9.319 -0.1623  0.2980 -0.2532
  399loPI   C1A 6375  10.328  10.133   8.948 -0.0654 -0.1265  0.2109
  399loPI   C2A 6376  10.472   9.895   8.620 -0.1521  0.0571 -0.1302
  399loPI   C3A 6377  10.606   9.838   8.195  0.0696  0.4785  0.0209
  399loPI   C4A 6378  10.937  10.034   7.874 -0.1192 -0.3283  0.0250
  399loPI   C5A 6379  11.310  10.292   7.763  0.0559  0.2557  0.1780
  399loPI   C6A 6380  11.441  10.678   7.814  0.0830 -0.0192  0.3705
  399loPI   C1B 6381  10.851   9.959   9.135  0.0151 -0.0601  0.1169
  399loPI   C2B 6382  10.936   9.877   8.744  0.4009 -0.1425 -0.0873
  399loPI   C3B 6383  11.003  10.010   8.372  0.0203  0.2458  0.0707
  399loPI   C4B 6384  11.330  10.006   8.155 -0.0986  0.0542  0.1819
  400loPI    C1 6385  17.484   3.934   9.327 -0.0018  0.2200 -0.0318
  400loPI    C2 6386  17.361   3.679   9.609 -0.0814  0.0864 -0.1858
  400loPI    C3 6387  17.439   4.059   9.705 -0.2525  0.0797 -0.0128
  400loPI   PO4 6388  17.701   3.644   9.202  0.0355  0.4189  0.0991
  400loPI   GL1 6389  17.665   3.510   8.822  0.2762  0.2084  0.0654
  400loPI   GL2 6390  18.052   3.450   8.945 -0.1385 -0.2123 -0.2831
  400loPI   C1A 6391  17.871   3.756   8.560  0.1196 -0.0276 -0.2553
  400loPI   C2A 6392  17.949   3.949   8.153 -0.1102 -0.1335  0.2542
  400loPI   C3A 6393  18.189   3.942   7.849  0.3786  0.4769  0.1934
  400loPI   C4A 6394  18.392   3.656   7.390  0.0969 -0.0417 -0.0673
  400loPI   C5A 6395  18.657   3.588   6.988  0.0501 -0.1351  0.1050
  400loPI   C6A 6396  18.501   3.391   6.627  0.1026 -0.2004  0.0062
  400loPI   C1B 6397  18.271   3.441   8.565  0.0652 -0.1948  0.0081
  400loPI   C2B 6398  18.225   3.523   8.194 -0.1542 -0.0407  0.0492
  400loPI   C3B 6399  18.211   3.385   7.759 -0.0846  0.0801 -0.2178
  400loPI   C4B 6400  18.230   3.198   7.417 -0.0819 -0.0159  0.0511
  401loPI    C1 6401  13.238   4.748  10.381 -0.2190  0.2473 -0.1396
  401loPI    C2 6402  12.918   4.527  10.477 -0.2406  0.3927  0.1328
  401loPI    C3 6403  13.130   4.708  10.764  0.1863  0.1651 -0.0294
  401loPI   PO4 6404  13.170   4.818  10.158  0.1381 -0.0212 -0.0774
  401loPI   GL1 6405  12.995   4.799   9.798  0.2163 -0.3978  0.0819
  401loPI   GL2 6406  12.915   5.120   9.831  0.0901  0.1853 -0.3761
  401loPI   C1A 6407  13.082   4.759   9.307  0.0393 -0.0750 -0.1661
  401loPI   C2A 6408  12.829   4.778   8.935 -0.0305  0.0994  0.1650
  401loPI   C3A 6409  13.032   4.667   8.534 -0.0592  0.0016  0.0363
  401loPI   C4A 6410  13.265   4.571   8.223 -0.2009  0.0062 -0.2473
  401loPI   C5A 6411  13.392   4.925   7.936  0.2526 -0.1346 -0.0727
  401loPI   C6A 6412  13.688   5.042   7.597 -0.2748  0.1399 -0.0202
  401loPI   C1B 6413  12.459   4.858   9.599 -0.1938  0.0275  0.1950
  401loPI   C2B 6414  12.356   4.715   9.196  0.0548  0.0767 -0.3324
  401loPI   C3B 6415  12.342   4.281   9.082  0.3358  0.2161  0.1192
  401loPI   C4B 6416  12.509   3.850   9.022 -0.0615  0.0524  0.1464
  402loPI    C1 6417   2.084  14.914   9.818  0.0509 -0.2451 -0.1416
  402loPI    C2 6418   1.928  15.241   9.986 -0.0108 -0.1377 -0.4022
  402loPI    C3 6419   1.971  14.906  10.201  0.2163  0.0902 -0.0825
  402loPI   PO4 6420   2.255  15.098   9.649  0.1086  0.2498  0.1504
  402loPI   GL1 6421   2.172  15.280   9.307  0.0199 -0.1420  0.5622
  402loPI   GL2 6422   2.487  15.355   9.119 -0.1955 -0.1110  0.0796
  402loPI   C1A 6423   2.073  15.237   8.803  0.1848 -0.0910  0.1114
  402loPI   C2A 6424   2.368  15.253   8.505  0.1744  0.4025  0.0795
  402loPI   C3A 6425   2.645  15.264   8.204  0.0855  0.0389  0.1329
  402loPI   C4A 6426   2.706  15.557   7.799  0.1566 -0.0242  0.2163
  402loPI   C5A 6427   2.711  15.492   7.350 -0.3860  0.1372 -0.1385
  402loPI   C6A 6428   2.684  15.368   6.924 -0.0355  0.2841 -0.0885
  402loPI   C1B 6429   2.662  15.508   8.772 -0.1661 -0.3322 -0.2842
  402loPI   C2B 6430   2.968  15.773   8.469  0.0008 -0.0161 -0.1549
  402loPI   C3B 6431   3.040  15.728   8.106  0.0985  0.1809  0.1162
  402loPI   C4B 6432   3.129  15.415   7.820  0.1864  0.3045  0.0829
  403loPI    C1 6433  16.172  17.014  10.215  0.2439  0.2223 -0.0372
  403loPI    C2 6434  16.394  16.703  10.098 -0.1566 -0.0220 -0.1679
  403loPI    C3 6435  16.538  16.961  10.368  0.2113 -0.2728 -0.1166
  403loPI   PO4 6436  16.050  17.120  10.003 -0.0187  0.0642 -0.2008
  403loPI   GL1 6437  16.130  16.888   9.688 -0.2647  0.3225 -0.2780
  403loPI   GL2 6438  16.424  16.944   9.481  0.0710 -0.1149  0.0718
  403loPI   C1A 6439  15.979  16.543   9.360  0.0688  0.1787  0.1301
  403loPI   C2A 6440  15.576  16.367   9.146  0.1414  0.0776 -0.3858
  403loPI   C3A 6441  15.479  16.136   8.732 -0.1609 -0.1839 -0.1291
  403loPI   C4A 6442  14.975  15.901   8.601  0.1228 -0.1244 -0.1290
  403loPI   C5A 6443  14.918  15.506   8.653  0.1693  0.2474 -0.1163
  403loPI   C6A 6444  14.770  15.222   8.253 -0.0087  0.1250 -0.1906
  403loPI   C1B 6445  16.296  16.966   9.049  0.3043 -0.2223 -0.0931
  403loPI   C2B 6446  16.002  16.977   8.626 -0.3427  0.1246 -0.1989
  403loPI   C3B 6447  15.938  16.779   8.292  0.0319 -0.1016 -0.1834
  403loPI   C4B 6448  15.995  16.800   7.843  0.0604 -0.2551  0.1602
  404loPI    C1 6449  18.231  16.526   9.823 -0.2850  0.1050 -0.0796
  404loPI    C2 6450  18.577  16.727   9.820 -0.2215 -0.0037 -0.3400
  404loPI    C3 6451  18.323  16.771  10.126  0.1360 -0.1200 -0.0184
  404loPI   PO4 6452  18.138  16.608   9.599  0.1213  0.1834 -0.1839
  404loPI   GL1 6453  17.901  16.577   9.207  0.3657  0.0847  0.1313
  404loPI   GL2 6454  17.745  16.320   9.279 -0.0672 -0.1147  0.0055
  404loPI   C1A 6455  17.602  16.516   8.803  0.0493 -0.0165 -0.1145
  404loPI   C2A 6456  17.443  16.560   8.397 -0.2777  0.2038  0.0925
  404loPI   C3A 6457  17.587  16.765   7.959 -0.0274  0.0784 -0.0239
  404loPI   C4A 6458  17.610  16.455   7.601 -0.0622  0.0128  0.2028
  404loPI   C5A 6459  17.089  16.186   7.613  0.1863 -0.2794 -0.1457
  404loPI   C6A 6460  16.734  16.298   7.739 -0.0014  0.0846 -0.2512
  404loPI   C1B 6461  17.489  15.934   9.265 -0.3061 -0.1388 -0.3005
  404loPI   C2B 6462  17.569  15.600   9.047  0.2400  0.0668 -0.2554
  404loPI   C3B 6463  17.550  15.525   8.530  0.2302 -0.1875 -0.2748
  404loPI   C4B 6464  17.705  15.151   8.379  0.3171 -0.4098 -0.0792
  405loPI    C1 6465  18.915   8.229   9.652  0.0269 -0.0178  0.1183
  405loPI    C2 6466  18.648   8.227   9.354  0.0667  0.0009  0.0823
  405loPI    C3 6467  18.580   8.014   9.686 -0.1497  0.2673  0.2131
  405loPI   PO4 6468  19.129   8.224   9.443  0.1946  0.1736 -0.2178
  405loPI   GL1 6469  18.873   8.448   9.021 -0.2340 -0.0713 -0.3607
  405loPI   GL2 6470  19.007   8.194   8.978 -0.1516 -0.5191 -0.2841
  405loPI   C1A 6471  18.988   8.547   8.645 -0.0626 -0.1057  0.1641
  405loPI   C2A 6472  19.253   8.595   8.371  0.2015 -0.0944  0.2404
  405loPI   C3A 6473  19.290   8.523   7.924  0.2081 -0.2512  0.1576
  405loPI   C4A 6474  19.363   8.705   7.570 -0.0206  0.2804 -0.1824
  405loPI   C5A 6475  19.370   9.188   7.515  0.1810 -0.2266 -0.0233
  405loPI   C6A 6476  19.373   9.560   7.356  0.1029  0.5406  0.0935
  405loPI   C1B 6477  18.702   8.021   8.607  0.2951  0.0169 -0.1826
  405loPI   C2B 6478  18.557   7.885   8.322  0.1742  0.0502 -0.3006
  405loPI   C3B 6479  18.309   7.724   7.953 -0.2216  0.1650 -0.1957
  405loPI   C4B 6480  18.115   7.733   7.543  0.0946 -0.1245 -0.3089
  406loPI    C1 6481   8.327   2.975   9.765 -0.0565  0.1954 -0.2241
  406loPI    C2 6482   8.088   2.791  10.029  0.1851  0.0888 -0.0762
  406loPI    C3 6483   8.073   3.189   9.989  0.0134  0.0869 -0.0390
  406loPI   PO4 6484   8.406   2.871   9.578  0.1123 -0.1808  0.1294
  406loPI   GL1 6485   8.439   2.753   9.207  0.0718  0.0348 -0.0522
  406loPI   GL2 6486   8.745   2.542   9.244 -0.0178  0.1319  0.1261
  406loPI   C1A 6487   8.448   2.627   8.765 -0.0536  0.1975  0.1523
  406loPI   C2A 6488   8.411   2.523   8.362 -0.2179  0.1789 -0.0883
  406loPI   C3A 6489   8.561   2.529   7.938 -0.1105 -0.1728  0.1061
  406loPI   C4A 6490   8.782   2.493   7.554 -0.0142 -0.0668 -0.3114
  406loPI   C5A 6491   8.981   2.783   7.287  0.0475 -0.1354 -0.4576
  406loPI   C6A 6492   9.353   2.923   7.204  0.2677 -0.1895 -0.0359
  406loPI   C1B 6493   9.033   2.472   8.854 -0.0257 -0.1199 -0.3484
  406loPI   C2B 6494   8.973   2.394   8.389 -0.2068  0.1925 -0.0845
  406loPI   C3B 6495   9.066   2.195   7.966  0.2136  0.2721 -0.1060
  406loPI   C4B 6496   9.267   2.168   7.553  0.2045  0.1082  0.1265
  407loPI    C1 6497   9.549  12.861  10.397 -0.1229  0.1683 -0.0940
  407loPI    C2 6498   9.265  12.594  10.488 -0.2583  0.2475 -0.2781
  407loPI    C3 6499   9.320  12.915  10.720 -0.0256  0.0103  0.0028
  407loPI   PO4 6500   9.532  12.857  10.167 -0.0580  0.0697  0.4750
  407loPI   GL1 6501   9.707  12.921   9.792  0.0677 -0.2510  0.1247
  407loPI   GL2 6502   9.868  13.145   9.857  0.1024 -0.0190 -0.1234
  407loPI   C1A 6503   9.774  12.955   9.361  0.1212  0.2673 -0.3127
  407loPI   C2A 6504   9.733  13.065   8.930  0.0834 -0.1585  0.3371
  407loPI   C3A 6505   9.785  13.080   8.573 -0.0535  0.1908 -0.2672
  407loPI   C4A 6506   9.749  13.079   8.187  0.1106 -0.1247  0.3088
  407loPI   C5A 6507   9.999  13.153   7.764 -0.1448  0.2494 -0.3044
  407loPI   C6A 6508  10.184  13.604   7.844 -0.2209  0.1435 -0.0703
  407loPI   C1B 6509  10.009  13.392   9.384  0.1733  0.0568  0.2217
  407loPI   C2B 6510  10.064  13.463   8.908 -0.1103  0.0566  0.4351
  407loPI   C3B 6511  10.080  13.571   8.488 -0.2179  0.1147  0.1375
  407loPI   C4B 6512   9.733  13.590   8.169 -0.1572 -0.0058 -0.0060
  408loPI    C1 6513  14.156  14.345  10.649  0.0367  0.0295 -0.0674
  408loPI    C2 6514  14.106  14.051  10.916 -0.1493 -0.1125 -0.2549
  408loPI    C3 6515  13.927  14.405  10.972 -0.2290 -0.1587 -0.2165
  408loPI   PO4 6516  14.118  14.299  10.445 -0.1562 -0.0686  0.0758
  408loPI   GL1 6517  14.310  14.378  10.009  0.1507  0.1867 -0.2206
  408loPI   GL2 6518  13.981  14.298   9.985 -0.1993  0.4230 -0.0583
  408loPI   C1A 6519  14.190  14.554   9.539 -0.1783  0.1072 -0.1291
  408loPI   C2A 6520  13.916  14.487   9.188 -0.0677  0.1950  0.1768
  408loPI   C3A 6521  13.970  14.496   8.778 -0.2078 -0.1123 -0.1323
  408loPI   C4A 6522  13.848  14.523   8.320  0.2129 -0.0696 -0.2171
  408loPI   C5A 6523  13.994  14.884   8.037  0.0379 -0.0164  0.0636
  408loPI   C6A 6524  14.351  15.178   8.059  0.0249  0.0414  0.1206
  408loPI   C1B 6525  13.690  14.412   9.628  0.4413 -0.0629  0.3746
  408loPI   C2B 6526  13.374  14.315   9.343 -0.1602  0.1644  0.0216
  408loPI   C3B 6527  13.099  14.088   9.092 -0.3650 -0.0967 -0.1957
  408loPI   C4B 6528  12.682  14.194   9.034  0.1719  0.2988 -0.2935
  409loPI    C1 6529  10.628  10.816  10.131 -0.1335 -0.2462  0.1145
  409loPI    C2 6530  10.760  11.183  10.041 -0.3916 -0.1399  0.1594
  409loPI    C3 6531  10.932  10.975  10.336 -0.4051  0.0463  0.3004
  409loPI   PO4 6532  10.591  10.723   9.910 -0.3408 -0.4761 -0.2114
  409loPI   GL1 6533  10.564  10.718   9.460  0.1926 -0.0644 -0.1790
  409loPI   GL2 6534  10.301  10.580   9.577  0.2735 -0.0005  0.4473
  409loPI   C1A 6535  10.737  10.787   9.035  0.1077 -0.1684 -0.0447
  409loPI   C2A 6536  11.022  10.869   8.633 -0.2483 -0.1027  0.1252
  409loPI   C3A 6537  11.461  10.909   8.368  0.1409  0.3077  0.2209
  409loPI   C4A 6538  11.830  10.939   8.062  0.0392  0.4203 -0.0512
  409loPI   C5A 6539  12.200  10.754   7.932  0.0012 -0.1788  0.0448
  409loPI   C6A 6540  12.534  10.435   7.690  0.5808 -0.1204 -0.4937
  409loPI   C1B 6541  10.256  10.575   9.075  0.1310 -0.1541  0.0594
  409loPI   C2B 6542  10.193  10.580   8.647  0.4054  0.0604 -0.0286
  409loPI   C3B 6543  10.136  10.494   8.177  0.1589 -0.3065 -0.2788
  409loPI   C4B 6544   9.993  10.562   7.740 -0.1252  0.3390 -0.2330
  410loPI    C1 6545   5.340   4.193   9.357  0.1034  0.2337 -0.2390
  410loPI    C2 6546   5.641   4.379   9.169  0.2554 -0.0651 -0.2978
  410loPI    C3 6547   5.653   4.329   9.566  0.1442  0.1758 -0.2621
  410loPI   PO4 6548   5.236   4.058   9.181 -0.1573  0.1697 -0.0065
  410loPI   GL1 6549   5.441   4.152   8.780  0.2882  0.0229  0.0412
  410loPI   GL2 6550   5.482   3.857   8.716 -0.0511 -0.3379 -0.3365
  410loPI   C1A 6551   5.451   4.269   8.323 -0.1630 -0.3056 -0.5369
  410loPI   C2A 6552   5.266   4.395   7.883  0.2598 -0.2658 -0.0246
  410loPI   C3A 6553   5.296   4.328   7.392  0.2272 -0.2617  0.0151
  410loPI   C4A 6554   5.371   4.405   6.979  0.0829  0.0813 -0.1432
  410loPI   C5A 6555   5.121   4.659   6.639  0.1058  0.0097 -0.0820
  410loPI   C6A 6556   5.098   4.951   6.382  0.2197  0.0284 -0.2674
  410loPI   C1B 6557   5.440   3.605   8.443  0.2684  0.1169 -0.0753
  410loPI   C2B 6558   5.490   3.841   7.961  0.1861  0.1671 -0.1097
  410loPI   C3B 6559   5.589   3.931   7.586 -0.0199 -0.0076  0.1248
  410loPI   C4B 6560   5.554   3.985   7.157  0.1705  0.1373  0.0437
  411loPI    C1 6561  14.235   7.344   9.881 -0.3106  0.0400  0.1100
  411loPI    C2 6562  14.628   7.270   9.876 -0.2717  0.2469 -0.1551
  411loPI    C3 6563  14.442   7.342  10.223 -0.1137 -0.0350 -0.0081
  411loPI   PO4 6564  14.090   7.572   9.745 -0.2968  0.4791  0.0896
  411loPI   GL1 6565  13.871   7.545   9.403 -0.1559 -0.0667  0.1017
  411loPI   GL2 6566  13.967   7.271   9.250 -0.1909  0.0427  0.0957
  411loPI   C1A 6567  13.644   7.695   9.013 -0.0017 -0.1378 -0.4060
  411loPI   C2A 6568  13.669   7.759   8.594 -0.0717  0.0870 -0.3943
  411loPI   C3A 6569  13.939   7.792   8.285 -0.3021 -0.0586 -0.0876
  411loPI   C4A 6570  14.265   7.953   7.810 -0.4223 -0.0629  0.3158
  411loPI   C5A 6571  14.315   8.078   7.397  0.2846 -0.0963  0.2240
  411loPI   C6A 6572  14.455   7.958   6.958 -0.3120 -0.0603 -0.0163
  411loPI   C1B 6573  13.737   7.195   8.896 -0.0205  0.0849 -0.2980
  411loPI   C2B 6574  13.710   7.097   8.350  0.0271 -0.0819 -0.0169
  411loPI   C3B 6575  13.487   6.909   7.990  0.0166  0.1503 -0.1239
  411loPI   C4B 6576  13.784   6.918   7.647 -0.2030  0.2891  0.3749
  412loPI    C1 6577  11.679   7.302   9.576 -0.1760  0.0092 -0.1927
  412loPI    C2 6578  11.736   6.906   9.582 -0.0999  0.0216  0.1546
  412loPI    C3 6579  11.471   7.074   9.830 -0.2741  0.1705 -0.1267
  412loPI   PO4 6580  11.646   7.355   9.333 -0.1432  0.1727 -0.4384
  412loPI   GL1 6581  11.817   7.469   8.999 -0.2273  0.4128 -0.0747
  412loPI   GL2 6582  11.518   7.348   8.832 -0.1092 -0.0899 -0.2537
  412loPI   C1A 6583  11.935   7.427   8.467 -0.2275  0.0123 -0.2171
  412loPI   C2A 6584  12.029   7.799   8.133  0.2648  0.0288 -0.0321
  412loPI   C3A 6585  11.927   7.880   7.737  0.5090  0.0045  0.3573
  412loPI   C4A 6586  12.173   8.043   7.388 -0.0425 -0.1124  0.0035
  412loPI   C5A 6587  12.406   8.294   7.059 -0.1090  0.1334 -0.1631
  412loPI   C6A 6588  12.840   8.240   7.041 -0.1691  0.0357  0.1780
  412loPI   C1B 6589  11.505   7.227   8.320  0.2266  0.0189 -0.1255
  412loPI   C2B 6590  11.260   7.374   7.926 -0.1663  0.0412 -0.1695
  412loPI   C3B 6591  11.368   7.320   7.496  0.0485  0.0879 -0.2054
  412loPI   C4B 6592  11.210   6.903   7.444 -0.1115 -0.1166  0.0060
  413loPI    C1 6593   7.707   1.122  10.150  0.0235  0.2837  0.2328
  413loPI    C2 6594   7.396   0.961   9.956  0.0755  0.3294  0.1104
  413loPI    C3 6595   7.570   0.762  10.257  0.1151  0.1735 -0.0146
  413loPI   PO4 6596   7.880   1.224   9.925 -0.2744  0.3074  0.2065
  413loPI   GL1 6597   8.030   1.269   9.530  0.0330  0.1225 -0.1884
  413loPI   GL2 6598   7.776   1.549   9.475 -0.0284 -0.1786  0.1210
  413loPI   C1A 6599   8.010   0.820   9.349 -0.0133  0.0943  0.2558
  413loPI   C2A 6600   8.228   0.491   9.070 -0.0404  0.2181  0.3472
  413loPI   C3A 6601   8.415   0.376   8.796  0.0745 -0.1868 -0.1809
  413loPI   C4A 6602   8.221   0.246   8.470  0.2701  0.4304  0.0793
  413loPI   C5A 6603   7.913   0.092   8.167 -0.3603  0.0638  0.1101
  413loPI   C6A 6604   7.533  -0.063   8.115 -0.0086  0.0062 -0.1470
  413loPI   C1B 6605   7.731   1.389   9.020  0.1806 -0.2102  0.0512
  413loPI   C2B 6606   7.542   1.249   8.701  0.1712  0.2610  0.1426
  413loPI   C3B 6607   7.523   0.954   8.306 -0.2249 -0.0095  0.2724
  413loPI   C4B 6608   7.331   0.752   7.894 -0.0749  0.1369  0.0114
  414loPI    C1 6609  11.549  11.515  10.199 -0.1210  0.0115 -0.1199
  414loPI    C2 6610  11.236  11.304  10.067 -0.3286  0.1975  0.0655
  414loPI    C3 6611  11.403  11.215  10.419 -0.2129  0.1405 -0.0030
  414loPI   PO4 6612  11.711  11.600  10.033  0.2894 -0.1436  0.1140
  414loPI   GL1 6613  11.656  11.522   9.563 -0.1111  0.0742  0.1570
  414loPI   GL2 6614  11.377  11.516   9.635 -0.1227  0.1819  0.2072
  414loPI   C1A 6615  11.860  11.585   9.043  0.3881 -0.1290  0.2354
  414loPI   C2A 6616  11.977  11.815   8.605 -0.1023 -0.0470  0.2103
  414loPI   C3A 6617  12.283  11.727   8.393 -0.1686 -0.2336  0.0437
  414loPI   C4A 6618  12.408  11.720   8.018 -0.0377  0.0274 -0.0592
  414loPI   C5A 6619  12.733  11.481   7.779 -0.0509 -0.3977  0.0458
  414loPI   C6A 6620  13.039  11.358   8.002 -0.0174  0.0714 -0.0628
  414loPI   C1B 6621  11.290  11.306   9.310 -0.1840 -0.3144  0.3294
  414loPI   C2B 6622  11.532  11.239   8.865 -0.0305 -0.0440  0.2583
  414loPI   C3B 6623  11.646  11.449   8.529 -0.2418 -0.1869 -0.1138
  414loPI   C4B 6624  11.704  11.450   8.088  0.2736 -0.1011 -0.3111
  415loPI    C1 6625  18.736   3.589   9.693 -0.1004 -0.2513 -0.0986
  415loPI    C2 6626  18.610   3.848   9.971 -0.0558 -0.0011 -0.3073
  415loPI    C3 6627  18.960   3.661  10.017 -0.0104  0.1011 -0.2342
  415loPI   PO4 6628  18.637   3.751   9.440 -0.2144  0.0378  0.3016
  415loPI   GL1 6629  18.525   3.602   9.044 -0.1800 -0.1893  0.1273
  415loPI   GL2 6630  18.689   3.515   8.804 -0.2234  0.0311 -0.1833
  415loPI   C1A 6631  18.459   3.905   8.552 -0.1146  0.1296  0.0189
  415loPI   C2A 6632  18.584   3.852   8.175  0.3944  0.4518  0.0894
  415loPI   C3A 6633  18.687   3.720   7.747  0.0260 -0.0449  0.0239
  415loPI   C4A 6634  18.725   3.260   7.445 -0.1708 -0.1275 -0.0175
  415loPI   C5A 6635  19.072   3.000   7.338 -0.0726 -0.1580  0.1021
  415loPI   C6A 6636  19.215   2.825   6.968  0.0410  0.1457 -0.2506
  415loPI   C1B 6637  18.686   3.415   8.376 -0.0608 -0.0910  0.0903
  415loPI   C2B 6638  18.655   3.262   7.979 -0.1912 -0.1715 -0.1258
  415loPI   C3B 6639  18.500   2.951   7.783  0.0980 -0.3651 -0.0988
  415loPI   C4B 6640  18.176   2.668   7.733 -0.1043  0.0266  0.2819
  416loPI    C1 6641   9.784  10.863  10.025 -0.1011  0.2193 -0.0072
  416loPI    C2 6642   9.788  10.522  10.234 -0.1152  0.1560 -0.1097
  416loPI    C3 6643  10.128  10.665  10.079 -0.1166  0.1661 -0.1034
  416loPI   PO4 6644   9.572  10.808   9.855 -0.4169 -0.0079 -0.1813
  416loPI   GL1 6645   9.517  10.993   9.481  0.0014  0.0186 -0.1393
  416loPI   GL2 6646   9.470  11.327   9.424 -0.1204 -0.2455  0.2982
  416loPI   C1A 6647   9.625  11.008   9.015 -0.1627  0.2462 -0.1000
  416loPI   C2A 6648   9.787  10.939   8.640 -0.1677 -0.0266  0.3104
  416loPI   C3A 6649   9.866  10.947   8.118 -0.1926  0.0365 -0.0504
  416loPI   C4A 6650  10.011  11.091   7.727 -0.1318  0.0336 -0.1872
  416loPI   C5A 6651  10.199  11.278   7.357  0.3460  0.1619  0.1093
  416loPI   C6A 6652  10.586  11.365   7.600  0.0909  0.0177 -0.3330
  416loPI   C1B 6653   9.574  11.534   9.111  0.0625 -0.0404 -0.0515
  416loPI   C2B 6654   9.559  11.532   8.691 -0.1368  0.2241 -0.0114
  416loPI   C3B 6655   9.481  11.324   8.271  0.0071  0.0346  0.0548
  416loPI   C4B 6656   9.113  11.226   7.974 -0.1678 -0.0600 -0.1347
  417loPI    C1 6657   8.274  15.775  10.714 -0.0690  0.1218 -0.1484
  417loPI    C2 6658   8.517  15.473  10.815 -0.0483  0.1874  0.0007
  417loPI    C3 6659   8.359  15.707  11.099 -0.2131  0.2019 -0.1014
  417loPI   PO4 6660   8.232  15.745  10.482  0.1150 -0.0144 -0.1754
  417loPI   GL1 6661   8.297  15.584  10.021 -0.0165 -0.0570 -0.0267
  417loPI   GL2 6662   8.477  15.331   9.962  0.3050 -0.1176  0.1187
  417loPI   C1A 6663   8.277  15.661   9.584 -0.2060  0.0245 -0.2600
  417loPI   C2A 6664   8.076  15.743   9.136 -0.0424  0.1462 -0.0698
  417loPI   C3A 6665   8.124  15.775   8.718  0.0373  0.0789  0.0608
  417loPI   C4A 6666   8.067  15.735   8.268  0.2421  0.5361 -0.4038
  417loPI   C5A 6667   8.042  15.820   7.783  0.0345  0.1877 -0.2755
  417loPI   C6A 6668   8.177  15.777   7.241  0.0989  0.0020  0.0672
  417loPI   C1B 6669   8.568  15.273   9.608  0.0607 -0.2402  0.0859
  417loPI   C2B 6670   8.421  15.122   9.184 -0.1997  0.1977 -0.1576
  417loPI   C3B 6671   8.290  14.850   8.962 -0.0289 -0.0082  0.1533
  417loPI   C4B 6672   8.258  14.522   8.782  0.0744 -0.3401 -0.3179
  418loPI    C1 6673  19.105   7.287   9.229 -0.3149  0.0873 -0.0445
  418loPI    C2 6674  19.163   6.964   9.458  0.1005  0.1153 -0.1032
  418loPI    C3 6675  19.310   7.319   9.571  0.1067  0.1761 -0.2987
  418loPI   PO4 6676  19.185   7.286   9.013 -0.1461 -0.1544 -0.1838
  418loPI   GL1 6677  18.970   7.192   8.651  0.3663 -0.1877  0.1910
  418loPI   GL2 6678  18.781   7.439   8.794 -0.0699  0.0546  0.0144
  418loPI   C1A 6679  18.851   6.999   8.303  0.5459 -0.0875  0.2204
  418loPI   C2A 6680  18.821   6.908   7.937  0.1667 -0.0965  0.0169
  418loPI   C3A 6681  18.786   6.855   7.486  0.0418  0.0051  0.1635
  418loPI   C4A 6682  18.800   6.660   7.207 -0.0700 -0.1792  0.1173
  418loPI   C5A 6683  18.946   6.295   7.100 -0.2831  0.0317  0.3809
  418loPI   C6A 6684  18.969   5.821   6.968 -0.1705  0.0928  0.0275
  418loPI   C1B 6685  18.498   7.353   8.437 -0.4548  0.0393 -0.1877
  418loPI   C2B 6686  18.355   7.197   8.061  0.0416  0.2980  0.1732
  418loPI   C3B 6687  18.190   7.110   7.611 -0.1739 -0.1432 -0.2726
  418loPI   C4B 6688  17.909   7.267   7.315  0.1944 -0.0028  0.2061
  419loPI    C1 6689  16.096  17.724  10.189  0.0422  0.1373  0.1205
  419loPI    C2 6690  16.311  17.468  10.408  0.0824  0.1478  0.0933
  419loPI    C3 6691  15.912  17.455  10.421  0.0836  0.0303  0.0302
  419loPI   PO4 6692  16.173  17.691   9.918  0.1380  0.0995  0.0304
  419loPI   GL1 6693  16.110  17.361   9.590  0.1284 -0.2891 -0.1181
  419loPI   GL2 6694  16.310  17.535   9.413 -0.0212  0.0334 -0.2767
  419loPI   C1A 6695  15.863  17.123   9.332  0.3366 -0.4376 -0.0827
  419loPI   C2A 6696  15.674  16.835   9.059 -0.2077 -0.0981 -0.0393
  419loPI   C3A 6697  15.535  16.613   8.665 -0.1182 -0.0985  0.0870
  419loPI   C4A 6698  15.416  16.522   8.319 -0.0336 -0.0627  0.3806
  419loPI   C5A 6699  15.103  16.763   8.055  0.0888 -0.2208 -0.2986
  419loPI   C6A 6700  14.837  17.080   8.080 -0.2200 -0.2957 -0.3029
  419loPI   C1B 6701  15.918  17.589   9.151  0.1008 -0.0791  0.1556
  419loPI   C2B 6702  15.764  17.771   8.815 -0.1803 -0.1727  0.0617
  419loPI   C3B 6703  15.648  17.649   8.368 -0.0405 -0.0721 -0.3331
  419loPI   C4B 6704  15.428  17.761   8.125  0.0511 -0.1121 -0.0985
  420loPI    C1 6705  18.417  12.914   9.553 -0.0271 -0.0355  0.1506
  420loPI    C2 6706  18.719  12.986   9.806 -0.0772  0.1359  0.1635
  420loPI    C3 6707  18.449  12.703   9.892  0.0884 -0.0305  0.1433
  420loPI   PO4 6708  18.586  12.962   9.311 -0.3425  0.2352  0.0426
  420loPI   GL1 6709  18.683  12.926   8.863  0.1468 -0.0206 -0.1607
  420loPI   GL2 6710  18.674  12.656   8.958  0.1353  0.0540 -0.0674
  420loPI   C1A 6711  18.598  12.810   8.466  0.3651  0.0102 -0.1256
  420loPI   C2A 6712  18.784  12.895   8.093 -0.1845  0.0947  0.0753
  420loPI   C3A 6713  18.843  12.945   7.660  0.2293  0.0971 -0.2383
  420loPI   C4A 6714  18.730  12.946   7.232  0.1473 -0.1726  0.2645
  420loPI   C5A 6715  18.417  12.900   6.975  0.1148 -0.0070 -0.0547
  420loPI   C6A 6716  18.030  12.782   6.916 -0.1473 -0.0979  0.0693
  420loPI   C1B 6717  18.820  12.316   8.613 -0.1521 -0.3450  0.0354
  420loPI   C2B 6718  18.861  12.380   8.177 -0.1347  0.1631  0.0409
  420loPI   C3B 6719  18.589  12.475   7.939 -0.2450 -0.0685  0.1275
  420loPI   C4B 6720  18.219  12.720   8.126 -0.0459 -0.0915  0.2173
  421loPI    C1 6721   3.801   7.875   9.377  0.2192  0.0154  0.0316
  421loPI    C2 6722   4.091   8.149   9.403  0.1959  0.0344  0.0904
  421loPI    C3 6723   3.996   7.928   9.722  0.2068 -0.0342  0.0462
  421loPI   PO4 6724   3.839   7.825   9.143  0.0346 -0.1043 -0.0813
  421loPI   GL1 6725   3.929   7.795   8.723 -0.3112  0.0685 -0.1503
  421loPI   GL2 6726   4.200   7.608   8.810 -0.2602  0.2615  0.0547
  421loPI   C1A 6727   3.816   7.602   8.258  0.1971 -0.3147 -0.0700
  421loPI   C2A 6728   3.698   7.538   7.785 -0.0609  0.1557  0.1096
  421loPI   C3A 6729   3.788   7.188   7.674  0.0708 -0.2536 -0.0932
  421loPI   C4A 6730   4.103   6.877   7.564  0.4599  0.0643 -0.2893
  421loPI   C5A 6731   4.032   6.981   7.118 -0.0940  0.1939 -0.1751
  421loPI   C6A 6732   3.914   6.960   6.706  0.0125  0.2453 -0.2805
  421loPI   C1B 6733   4.297   7.817   8.408  0.3326 -0.2808  0.1468
  421loPI   C2B 6734   4.131   7.886   7.997  0.0453  0.0456 -0.1019
  421loPI   C3B 6735   4.255   8.023   7.588  0.3277  0.3304  0.0667
  421loPI   C4B 6736   4.407   8.086   7.144  0.0688 -0.1799 -0.1540
  422loPI    C1 6737  17.921   4.256   9.536  0.3292  0.2725 -0.0186
  422loPI    C2 6738  17.989   4.308   9.926 -0.0084 -0.3539  0.1367
  422loPI    C3 6739  18.287   4.197   9.685  0.2357  0.1813  0.1791
  422loPI   PO4 6740  17.697   4.425   9.502  0.1906 -0.0742 -0.2361
  422loPI   GL1 6741  17.499   4.727   9.136 -0.0688  0.2262 -0.0586
  422loPI   GL2 6742  17.329   4.803   8.933 -0.0179 -0.2057  0.0404
  422loPI   C1A 6743  17.638   4.594   8.619 -0.2409 -0.1359  0.0563
  422loPI   C2A 6744  17.686   4.548   8.185  0.1726 -0.1485  0.0066
  422loPI   C3A 6745  17.414   4.790   7.902 -0.0191  0.3063  0.0831
  422loPI   C4A 6746  17.207   4.921   7.663  0.0810 -0.0931 -0.2314
  422loPI   C5A 6747  16.899   4.949   7.243  0.0705  0.1331  0.1010
  422loPI   C6A 6748  16.960   4.846   6.774 -0.3936  0.0925  0.4002
  422loPI   C1B 6749  16.938   4.876   8.598 -0.0325  0.0468  0.3539
  422loPI   C2B 6750  16.742   4.820   8.159 -0.2099 -0.1474 -0.3022
  422loPI   C3B 6751  16.713   4.740   7.723  0.2082 -0.0735 -0.0513
  422loPI   C4B 6752  16.495   4.760   7.410  0.0684  0.1176 -0.1931
  423loPI    C1 6753  18.778   7.613   9.511  0.1683 -0.1101  0.1157
  423loPI    C2 6754  19.055   7.757   9.260  0.0055  0.1962  0.1073
  423loPI    C3 6755  19.110   7.784   9.656  0.0037  0.2277  0.1055
  423loPI   PO4 6756  18.531   7.652   9.292  0.1632  0.0321  0.2831
  423loPI   GL1 6757  18.436   7.893   9.008 -0.0454 -0.0981 -0.1562
  423loPI   GL2 6758  18.216   8.189   9.081 -0.0486  0.1878  0.1777
  423loPI   C1A 6759  18.126   7.900   8.638 -0.1967  0.0443 -0.0380
  423loPI   C2A 6760  17.915   7.881   8.350 -0.2146 -0.2674 -0.0019
  423loPI   C3A 6761  17.941   8.029   8.046 -0.2276 -0.3328  0.3185
  423loPI   C4A 6762  17.903   8.141   7.655  0.0293  0.1039 -0.1164
  423loPI   C5A 6763  17.792   8.460   7.432  0.1160 -0.6298 -0.1826
  423loPI   C6A 6764  17.447   8.460   7.112 -0.2608  0.0560  0.0180
  423loPI   C1B 6765  18.414   8.561   8.777 -0.2295 -0.0067  0.0782
  423loPI   C2B 6766  18.364   8.367   8.280  0.1554  0.1561 -0.0433
  423loPI   C3B 6767  18.326   8.384   7.917  0.0441  0.1404  0.0361
  423loPI   C4B 6768  18.361   8.422   7.421 -0.1153 -0.0439 -0.0090
  424loPI    C1 6769   3.857   9.993   9.513 -0.1689  0.0124 -0.0878
  424loPI    C2 6770   4.191  10.006   9.734 -0.0579  0.0869 -0.2575
  424loPI    C3 6771   3.912   9.729   9.808 -0.1300  0.2548  0.1262
  424loPI   PO4 6772   3.982   9.939   9.285  0.2001 -0.1981 -0.1429
  424loPI   GL1 6773   4.172   9.705   8.991  0.2403 -0.1946 -0.0445
  424loPI   GL2 6774   4.214  10.049   8.868  0.0744 -0.4022  0.3117
  424loPI   C1A 6775   4.311   9.653   8.584 -0.2218 -0.0328 -0.3229
  424loPI   C2A 6776   4.226   9.522   8.173  0.2827  0.0705  0.4025
  424loPI   C3A 6777   4.267   9.619   7.689 -0.2047 -0.2575 -0.1011
  424loPI   C4A 6778   4.238   9.408   7.298 -0.0052 -0.0736 -0.1710
  424loPI   C5A 6779   4.064   9.390   6.923 -0.0297  0.1096  0.1455
  424loPI   C6A 6780   4.395   9.475   6.643 -0.0008  0.0335 -0.0179
  424loPI   C1B 6781   3.830   9.954   8.662 -0.1902  0.2214  0.1976
  424loPI   C2B 6782   3.847   9.924   8.203  0.1664  0.1275 -0.0190
  424loPI   C3B 6783   3.787   9.974   7.665  0.3004 -0.1602 -0.2095
  424loPI   C4B 6784   3.847   9.762   7.289 -0.0377 -0.0645 -0.2247
  425loPI    C1 6785   7.207   3.757   9.356  0.0931 -0.1694  0.1169
  425loPI    C2 6786   6.860   3.571   9.427  0.1094 -0.2552 -0.0245
  425loPI    C3 6787   7.038   3.779   9.718 -0.0113 -0.2921  0.0767
  425loPI   PO4 6788   7.308   3.826   9.089 -0.2508  0.1394 -0.4026
  425loPI   GL1 6789   7.560   3.714   8.871  0.0780  0.2609  0.2610
  425loPI   GL2 6790   7.359   3.961   8.632 -0.1831  0.0413 -0.0130
  425loPI   C1A 6791   7.575   3.369   8.540 -0.2493 -0.2344 -0.2811
  425loPI   C2A 6792   7.467   3.495   8.086  0.0685 -0.2572  0.1296
  425loPI   C3A 6793   7.398   3.490   7.629 -0.1873  0.0175  0.3672
  425loPI   C4A 6794   7.253   3.292   7.299 -0.2085  0.3182 -0.0945
  425loPI   C5A 6795   7.316   3.285   6.908  0.1766  0.0722 -0.3049
  425loPI   C6A 6796   7.391   3.170   6.423 -0.0739 -0.1986 -0.2672
  425loPI   C1B 6797   7.398   3.997   8.188  0.0145  0.2429  0.2175
  425loPI   C2B 6798   7.503   4.007   7.734  0.2959  0.3305 -0.1456
  425loPI   C3B 6799   7.495   3.840   7.247  0.1198  0.1288  0.0869
  425loPI   C4B 6800   7.515   3.751   6.888  0.3351  0.0000 -0.1985
  426loPI    C1 6801   4.455  12.951   9.866  0.0863 -0.2111  0.0087
  426loPI    C2 6802   4.850  12.888   9.876  0.1199 -0.0021  0.0362
  426loPI    C3 6803   4.673  13.093  10.170  0.0117  0.0235 -0.0461
  426loPI   PO4 6804   4.398  13.020   9.609  0.0751  0.2456 -0.0620
  426loPI   GL1 6805   4.523  13.134   9.177  0.1801  0.1126  0.3292
  426loPI   GL2 6806   4.795  12.982   9.337  0.1858 -0.0837 -0.2134
  426loPI   C1A 6807   4.393  13.258   8.780 -0.0007  0.3009  0.1592
  426loPI   C2A 6808   4.562  13.175   8.333  0.2240  0.1782 -0.0718
  426loPI   C3A 6809   4.601  13.402   8.004  0.0378  0.0305  0.1010
  426loPI   C4A 6810   4.755  13.715   7.700 -0.0294 -0.2702  0.0592
  426loPI   C5A 6811   4.848  14.062   7.351  0.0575 -0.4701 -0.4451
  426loPI   C6A 6812   4.538  14.410   7.331 -0.0411  0.3309  0.2569
  426loPI   C1B 6813   4.964  12.886   8.972  0.2324 -0.0290  0.0412
  426loPI   C2B 6814   5.086  12.943   8.667 -0.0248 -0.1081  0.0923
  426loPI   C3B 6815   5.040  12.995   8.268 -0.0438 -0.2028  0.1123
  426loPI   C4B 6816   5.114  13.041   7.899 -0.2158 -0.0418 -0.0080
  427loPI    C1 6817  14.673  12.615  10.307 -0.0292 -0.2404 -0.1137
  427loPI    C2 6818  14.974  12.503  10.546  0.0915  0.0868 -0.1069
  427loPI    C3 6819  14.792  12.855  10.604 -0.0440  0.0585 -0.3432
  427loPI   PO4 6820  14.732  12.525  10.080  0.0987 -0.0493  0.2987
  427loPI   GL1 6821  14.773  12.301   9.770  0.2509 -0.0815  0.0151
  427loPI   GL2 6822  14.651  12.117   9.517  0.2944 -0.0736 -0.0721
  427loPI   C1A 6823  14.994  12.432   9.328 -0.2396 -0.0378 -0.2199
  427loPI   C2A 6824  15.428  12.470   9.026  0.4600 -0.2304 -0.0234
  427loPI   C3A 6825  15.644  12.579   8.633  0.2055 -0.0146 -0.1245
  427loPI   C4A 6826  15.728  12.373   8.241 -0.2979 -0.1788 -0.1737
  427loPI   C5A 6827  15.577  12.399   7.796 -0.0394  0.3054 -0.0391
  427loPI   C6A 6828  15.791  12.296   7.349 -0.1362  0.0778  0.0860
  427loPI   C1B 6829  14.587  12.091   9.050  0.2257 -0.1437  0.2865
  427loPI   C2B 6830  14.419  11.955   8.533 -0.1307  0.1722 -0.3189
  427loPI   C3B 6831  14.530  12.127   8.123  0.2518  0.0702  0.0978
  427loPI   C4B 6832  14.747  12.439   8.074 -0.2910 -0.0401  0.3281
  428loPI    C1 6833  17.013  18.819  10.429 -0.1627  0.1742  0.0038
  428loPI    C2 6834  17.339  18.702  10.629 -0.0732  0.2896 -0.0735
  428loPI    C3 6835  17.023  18.459  10.604 -0.0674  0.2548  0.1666
  428loPI   PO4 6836  17.116  18.894  10.189  0.1260 -0.0014  0.1220
  428loPI   GL1 6837  17.062  19.042   9.846 -0.1264  0.1482 -0.1819
  428loPI   GL2 6838  16.807  19.297   9.722  0.0186 -0.1275  0.3171
  428loPI   C1A 6839  17.231  19.143   9.420  0.1487 -0.0163  0.1545
  428loPI   C2A 6840  17.138  19.157   8.976  0.1261 -0.1114 -0.3148
  428loPI   C3A 6841  16.974  18.904   8.621  0.1849  0.0707  0.3800
  428loPI   C4A 6842  16.928  19.026   8.212 -0.1752  0.0262  0.0230
  428loPI   C5A 6843  16.747  18.790   8.083 -0.1069  0.1378  0.0086
  428loPI   C6A 6844  16.350  18.726   7.986  0.0748 -0.1460  0.1708
  428loPI   C1B 6845  16.924  19.549   9.381 -0.0515 -0.3756  0.2087
  428loPI   C2B 6846  17.228  19.750   9.057  0.1677 -0.0181  0.0210
  428loPI   C3B 6847  17.471  19.595   8.888  0.0755 -0.1085  0.0900
  428loPI   C4B 6848  17.445  19.366   8.408 -0.2470 -0.0265 -0.1838
  429loPI    C1 6849   1.378   7.670   9.374  0.0284  0.1079 -0.0499
  429loPI    C2 6850   1.296   7.705   9.764 -0.0572 -0.1733 -0.0405
  429loPI    C3 6851   1.495   7.995   9.575  0.1850 -0.1362  0.2636
  429loPI   PO4 6852   1.168   7.565   9.288  0.1560  0.2562  0.0886
  429loPI   GL1 6853   1.156   7.228   8.922 -0.1267 -0.0765  0.0783
  429loPI   GL2 6854   1.136   7.423   8.776 -0.0369 -0.4107 -0.0988
  429loPI   C1A 6855   1.499   7.166   8.576  0.2429 -0.2282 -0.1880
  429loPI   C2A 6856   1.481   7.131   8.051 -0.2731  0.0932  0.1257
  429loPI   C3A 6857   1.587   7.150   7.665 -0.2315  0.0036  0.3794
  429loPI   C4A 6858   1.843   7.256   7.357 -0.3377  0.3762  0.0817
  429loPI   C5A 6859   1.998   7.539   7.140 -0.0978  0.0863  0.1033
  429loPI   C6A 6860   2.308   7.791   7.017  0.1091 -0.0871 -0.0096
  429loPI   C1B 6861   1.244   7.766   8.488  0.2690 -0.2989  0.0794
  429loPI   C2B 6862   1.382   7.649   8.113  0.0716  0.1529 -0.1538
  429loPI   C3B 6863   1.306   7.531   7.729  0.2491 -0.0576 -0.1998
  429loPI   C4B 6864   1.455   7.583   7.317  0.1573  0.2281  0.1329
  430loPI    C1 6865   6.570   2.255   9.785  0.0479 -0.0733  0.0438
  430loPI    C2 6866   6.585   2.046  10.126 -0.1576  0.1787  0.2108
  430loPI    C3 6867   6.797   2.383  10.088 -0.1909  0.1893  0.1150
  430loPI   PO4 6868   6.701   1.946   9.542  0.1487  0.3284 -0.0202
  430loPI   GL1 6869   6.722   1.732   9.197 -0.2073  0.4814 -0.1938
  430loPI   GL2 6870   6.631   1.667   8.930 -0.0298  0.0395  0.1654
  430loPI   C1A 6871   7.164   1.813   9.054 -0.1822 -0.1728 -0.0495
  430loPI   C2A 6872   7.463   1.790   8.811 -0.1582  0.1611 -0.0285
  430loPI   C3A 6873   7.553   1.759   8.362  0.1338  0.0993  0.0991
  430loPI   C4A 6874   7.557   1.800   7.846  0.0446  0.2033 -0.2520
  430loPI   C5A 6875   7.761   2.140   7.529  0.0584 -0.0680  0.1687
  430loPI   C6A 6876   7.522   2.373   7.341 -0.0382  0.4198  0.0593
  430loPI   C1B 6877   6.520   1.812   8.548  0.0145  0.1177 -0.3965
  430loPI   C2B 6878   6.671   2.040   8.040  0.1629 -0.2421 -0.3345
  430loPI   C3B 6879   6.724   2.138   7.606  0.0283  0.0812 -0.2016
  430loPI   C4B 6880   6.976   2.414   7.385 -0.0723 -0.0298 -0.0940
  431loPI    C1 6881   6.953  18.805  10.204 -0.0176  0.0949  0.3577
  431loPI    C2 6882   7.300  18.608  10.222 -0.1321 -0.1121  0.3289
  431loPI    C3 6883   7.259  18.959  10.411  0.1352 -0.0184  0.2172
  431loPI   PO4 6884   6.943  18.858   9.944  0.1408  0.1008  0.0695
  431loPI   GL1 6885   7.005  18.581   9.750  0.5410 -0.4502 -0.1472
  431loPI   GL2 6886   7.217  18.338   9.774 -0.0812  0.4624 -0.2947
  431loPI   C1A 6887   6.843  18.541   9.367 -0.1686 -0.1876  0.2247
  431loPI   C2A 6888   7.016  18.438   9.011  0.1656 -0.2429 -0.1057
  431loPI   C3A 6889   7.078  18.582   8.591 -0.1123  0.3128  0.0902
  431loPI   C4A 6890   6.977  18.388   8.208  0.1990  0.1157  0.0174
  431loPI   C5A 6891   7.087  18.273   7.775 -0.0222 -0.2750  0.3297
  431loPI   C6A 6892   6.637  18.280   7.691 -0.2601 -0.0444  0.1680
  431loPI   C1B 6893   7.163  18.136   9.406 -0.1558  0.2452  0.1652
  431loPI   C2B 6894   6.897  17.951   9.093  0.1175 -0.0902  0.0646
  431loPI   C3B 6895   6.479  17.824   8.896 -0.1758  0.2759  0.2489
  431loPI   C4B 6896   6.388  17.576   8.540  0.1275 -0.2140 -0.0098
  432loPI    C1 6897   8.137   5.004   9.453  0.0162 -0.0053  0.0783
  432loPI    C2 6898   8.451   5.246   9.510  0.0035  0.0328 -0.0115
  432loPI    C3 6899   8.251   5.100   9.825  0.1063  0.0146  0.0458
  432loPI   PO4 6900   8.214   5.038   9.086 -0.2136 -0.0385 -0.0537
  432loPI   GL1 6901   8.256   5.140   8.714 -0.1128  0.2975 -0.2538
  432loPI   GL2 6902   8.297   5.501   8.653  0.0198  0.2149  0.2811
  432loPI   C1A 6903   8.202   4.739   8.495  0.0277  0.1149 -0.2086
  432loPI   C2A 6904   7.951   4.728   8.112 -0.0962 -0.1709 -0.4420
  432loPI   C3A 6905   7.729   4.907   7.736  0.3061  0.0059  0.0894
  432loPI   C4A 6906   7.427   5.040   7.491  0.1372  0.2705 -0.2581
  432loPI   C5A 6907   7.248   5.448   7.311 -0.1639  0.4884  0.0590
  432loPI   C6A 6908   6.844   5.677   7.244  0.0729  0.0636  0.2091
  432loPI   C1B 6909   8.204   5.668   8.243 -0.4315  0.0412  0.0783
  432loPI   C2B 6910   8.385   5.960   7.916 -0.1883 -0.0417  0.1142
  432loPI   C3B 6911   8.598   5.852   7.543  0.1782 -0.1499  0.2529
  432loPI   C4B 6912   8.649   5.590   7.221 -0.2087  0.1672  0.1291
  433loPI    C1 6913  17.214   7.102   9.610  0.2217  0.2334  0.0859
  433loPI    C2 6914  17.073   7.284   9.284  0.1766  0.0630  0.0093
  433loPI    C3 6915  16.932   7.383   9.645 -0.3377 -0.2859 -0.0849
  433loPI   PO4 6916  17.530   7.085   9.511  0.0966  0.0206  0.3024
  433loPI   GL1 6917  17.647   7.200   9.136 -0.2840  0.0859  0.0225
  433loPI   GL2 6918  17.468   7.319   8.954  0.0609  0.2723  0.1437
  433loPI   C1A 6919  17.923   7.200   8.810  0.1184 -0.1714  0.1103
  433loPI   C2A 6920  18.053   7.407   8.467 -0.1586  0.2540  0.2223
  433loPI   C3A 6921  17.865   7.431   8.074  0.1415  0.0716  0.1699
  433loPI   C4A 6922  17.642   7.504   7.669  0.0826  0.4878 -0.1915
  433loPI   C5A 6923  17.604   7.715   7.275 -0.2124  0.0899 -0.3657
  433loPI   C6A 6924  17.349   7.868   6.889  0.3328  0.1981 -0.1741
  433loPI   C1B 6925  17.424   7.480   8.581  0.2012  0.0020  0.2220
  433loPI   C2B 6926  17.373   7.222   8.209 -0.4009 -0.2968 -0.1903
  433loPI   C3B 6927  17.265   7.205   7.782  0.2348 -0.0127 -0.2698
  433loPI   C4B 6928  17.418   7.165   7.386  0.0730  0.3713  0.3408
  434loPI    C1 6929   2.087   4.043   9.138 -0.3546 -0.0733  0.2384
  434loPI    C2 6930   1.917   4.376   8.994  0.1894  0.1009 -0.0283
  434loPI    C3 6931   1.931   4.313   9.389  0.0719  0.3893  0.0245
  434loPI   PO4 6932   2.279   4.030   8.749 -0.0849 -0.0641  0.2740
  434loPI   GL1 6933   2.471   3.877   8.402 -0.0784 -0.2832  0.1092
  434loPI   GL2 6934   2.744   3.714   8.335 -0.0924  0.2984 -0.0740
  434loPI   C1A 6935   2.367   3.815   7.939  0.1501  0.0653 -0.0319
  434loPI   C2A 6936   2.031   3.706   7.526 -0.1053 -0.0640  0.1972
  434loPI   C3A 6937   1.984   3.546   7.095 -0.0733 -0.1881 -0.1077
  434loPI   C4A 6938   2.270   3.259   6.932 -0.1500 -0.0267  0.0304
  434loPI   C5A 6939   2.321   2.903   6.870 -0.0329 -0.2735  0.0557
  434loPI   C6A 6940   2.071   2.501   6.854 -0.0135  0.2644 -0.0402
  434loPI   C1B 6941   2.940   3.752   7.959 -0.1299 -0.1157  0.1916
  434loPI   C2B 6942   3.010   3.701   7.501 -0.2095 -0.2484 -0.0707
  434loPI   C3B 6943   3.034   3.732   6.984 -0.1496 -0.1186  0.0355
  434loPI   C4B 6944   2.945   3.667   6.573  0.4436 -0.0817 -0.1748
  435loPI    C1 6945  16.205  15.770  10.048 -0.0782 -0.0780 -0.0408
  435loPI    C2 6946  15.812  15.756   9.973 -0.0340 -0.1876 -0.2573
  435loPI    C3 6947  15.949  15.671  10.339 -0.2092 -0.1803 -0.1892
  435loPI   PO4 6948  16.288  15.709   9.755 -0.0035  0.0723  0.2209
  435loPI   GL1 6949  16.151  15.894   9.381  0.1158  0.0705 -0.0902
  435loPI   GL2 6950  16.198  16.113   9.407 -0.0082 -0.4069  0.1223
  435loPI   C1A 6951  16.378  15.681   9.023 -0.0647 -0.1245  0.0222
  435loPI   C2A 6952  16.231  15.398   8.692  0.0229  0.0463  0.0297
  435loPI   C3A 6953  15.962  15.291   8.299  0.1520 -0.1221  0.1830
  435loPI   C4A 6954  15.769  15.422   7.881 -0.1999 -0.0786 -0.1992
  435loPI   C5A 6955  15.423  15.590   7.650  0.2939 -0.0617  0.2587
  435loPI   C6A 6956  15.163  15.819   7.488  0.1943 -0.1175  0.4212
  435loPI   C1B 6957  16.142  16.207   9.003 -0.5937  0.1311 -0.0180
  435loPI   C2B 6958  15.952  16.323   8.550  0.1859 -0.1658  0.0454
  435loPI   C3B 6959  15.883  16.335   8.130  0.2270  0.1579  0.1141
  435loPI   C4B 6960  15.457  16.325   7.839  0.2379  0.3741  0.0432
  436loPI    C1 6961  11.063   6.262   9.547 -0.1516  0.2143  0.0414
  436loPI    C2 6962  11.440   6.128   9.553 -0.2154  0.0202 -0.1511
  436loPI    C3 6963  11.198   6.061   9.865 -0.1532 -0.0388 -0.1152
  436loPI   PO4 6964  10.988   6.139   9.351 -0.4203 -0.2627  0.1844
  436loPI   GL1 6965  11.208   5.853   9.176  0.0228 -0.4076 -0.1025
  436loPI   GL2 6966  11.076   5.516   9.263  0.0572  0.2042 -0.3953
  436loPI   C1A 6967  11.291   5.850   8.764 -0.0806 -0.0485  0.3872
  436loPI   C2A 6968  11.379   5.688   8.372 -0.1019  0.0879  0.0670
  436loPI   C3A 6969  11.496   5.676   7.945  0.2301 -0.1461  0.1708
  436loPI   C4A 6970  11.465   5.792   7.505  0.2015 -0.0010 -0.1198
  436loPI   C5A 6971  11.485   6.019   7.038 -0.0849  0.0777 -0.0791
  436loPI   C6A 6972  11.488   5.824   6.649  0.2347  0.0686  0.0247
  436loPI   C1B 6973  11.088   5.350   8.904  0.0857 -0.2655  0.1242
  436loPI   C2B 6974  11.028   5.323   8.422  0.0450 -0.0540 -0.1973
  436loPI   C3B 6975  11.017   5.385   8.081  0.0919  0.0997 -0.2607
  436loPI   C4B 6976  10.980   5.031   7.767 -0.1924 -0.3397 -0.0772
  437loPI    C1 6977  12.406  13.504  10.595 -0.0050  0.2447 -0.0205
  437loPI    C2 6978  12.761  13.611  10.744  0.1442 -0.0174 -0.1803
  437loPI    C3 6979  12.570  13.292  10.892 -0.0786  0.1869 -0.0206
  437loPI   PO4 6980  12.406  13.740  10.461  0.0994  0.0812  0.0620
  437loPI   GL1 6981  12.516  13.901   9.999  0.4639  0.0955 -0.1598
  437loPI   GL2 6982  12.770  14.165   9.980 -0.2950 -0.1765 -0.0562
  437loPI   C1A 6983  12.264  13.731   9.565 -0.0624  0.1218  0.0750
  437loPI   C2A 6984  12.230  13.538   9.190 -0.0802 -0.1823 -0.2697
  437loPI   C3A 6985  12.240  13.751   8.821  0.0718  0.0416 -0.1596
  437loPI   C4A 6986  12.483  14.172   8.556 -0.0887  0.0904 -0.1314
  437loPI   C5A 6987  12.861  14.445   8.645 -0.1417  0.1049  0.1089
  437loPI   C6A 6988  13.019  14.603   9.044  0.0452  0.0147  0.2768
  437loPI   C1B 6989  12.690  14.054   9.496 -0.1303 -0.0499 -0.3212
  437loPI   C2B 6990  12.294  14.126   9.269  0.0782 -0.2236 -0.0542
  437loPI   C3B 6991  12.161  14.228   8.918  0.0559 -0.3869 -0.0713
  437loPI   C4B 6992  12.158  14.517   8.582  0.0774  0.3265  0.3541
  438loPI    C1 6993   8.999   2.013   9.943 -0.2482 -0.1619 -0.0169
  438loPI    C2 6994   8.768   2.218  10.197  0.0648  0.2298 -0.0386
  438loPI    C3 6995   8.605   1.943   9.956 -0.2817  0.0694  0.3660
  438loPI   PO4 6996   9.133   2.226   9.808  0.2096  0.1659  0.1636
  438loPI   GL1 6997   9.206   2.429   9.426 -0.0201  0.0928  0.0802
  438loPI   GL2 6998   9.455   2.526   9.361 -0.1126 -0.1190 -0.3532
  438loPI   C1A 6999   9.225   2.018   9.129 -0.1172  0.2970 -0.0836
  438loPI   C2A 7000   8.995   1.945   8.740 -0.1994  0.3097  0.1968
  438loPI   C3A 7001   8.963   1.788   8.311  0.0776  0.1134  0.0481
  438loPI   C4A 7002   9.011   1.696   7.911 -0.2044  0.0897  0.1162
  438loPI   C5A 7003   9.146   1.682   7.468 -0.3392  0.0726  0.0194
  438loPI   C6A 7004   8.894   1.579   7.112 -0.1540 -0.2771  0.0042
  438loPI   C1B 7005   9.536   2.402   8.894  0.1812 -0.3242 -0.1699
  438loPI   C2B 7006   9.462   2.119   8.602  0.2432  0.0331 -0.2608
  438loPI   C3B 7007   9.397   2.068   8.322 -0.1664 -0.0852  0.0601
  438loPI   C4B 7008   9.517   1.942   7.945 -0.0105 -0.1801  0.1174
  439loPI    C1 7009   9.003  12.163   9.993 -0.4958  0.0939  0.1793
  439loPI    C2 7010   8.996  12.047  10.376 -0.5827  0.1893  0.2069
  439loPI    C3 7011   8.904  12.424  10.279 -0.0235  0.3197  0.1472
  439loPI   PO4 7012   8.909  11.969   9.827  0.0749  0.0360 -0.0001
  439loPI   GL1 7013   8.730  12.043   9.372 -0.2348  0.1120 -0.0750
  439loPI   GL2 7014   9.022  11.935   9.306  0.1237  0.1888  0.2776
  439loPI   C1A 7015   8.623  12.256   9.058  0.0596 -0.3232  0.1087
  439loPI   C2A 7016   8.693  12.660   8.982 -0.1021 -0.0060 -0.2252
  439loPI   C3A 7017   8.807  13.004   8.839  0.1114  0.0892  0.0503
  439loPI   C4A 7018   8.894  13.178   8.414  0.2607  0.1262 -0.0659
  439loPI   C5A 7019   8.758  12.971   7.931 -0.1312  0.5801  0.4066
  439loPI   C6A 7020   8.543  12.747   7.583 -0.0946  0.0947  0.0455
  439loPI   C1B 7021   9.096  11.699   8.924 -0.1018 -0.2956 -0.1718
  439loPI   C2B 7022   9.120  11.550   8.503  0.3603  0.0354 -0.0645
  439loPI   C3B 7023   9.070  11.696   8.085 -0.2601  0.0753 -0.1486
  439loPI   C4B 7024   8.789  11.635   7.765 -0.2762  0.1453  0.5799
  440loPI    C1 7025   4.305   8.601   9.431  0.2977  0.0905  0.0021
  440loPI    C2 7026   4.552   8.327   9.586  0.0403 -0.1383  0.0169
  440loPI    C3 7027   4.219   8.431   9.782  0.0056 -0.0035 -0.1113
  440loPI   PO4 7028   4.233   8.562   9.136  0.1225 -0.3140  0.0929
  440loPI   GL1 7029   3.997   8.701   8.766 -0.2024  0.1072  0.0778
  440loPI   GL2 7030   3.990   8.409   8.650  0.1627  0.0675 -0.0041
  440loPI   C1A 7031   3.960   8.831   8.362 -0.1035 -0.0673  0.0445
  440loPI   C2A 7032   4.073   9.003   8.001 -0.0326 -0.4837 -0.0284
  440loPI   C3A 7033   4.277   8.949   7.516  0.1601  0.0266 -0.1598
  440loPI   C4A 7034   4.286   8.877   7.030  0.2747  0.1685  0.3267
  440loPI   C5A 7035   4.535   8.994   6.704 -0.1722 -0.1408  0.1147
  440loPI   C6A 7036   5.068   9.135   6.692 -0.3489 -0.2100  0.2279
  440loPI   C1B 7037   4.285   8.390   8.372  0.2650 -0.0008  0.1228
  440loPI   C2B 7038   3.888   8.358   8.081 -0.0353  0.0400 -0.0005
  440loPI   C3B 7039   3.787   8.583   7.754  0.0658  0.1246 -0.0644
  440loPI   C4B 7040   3.534   8.603   7.300  0.0225 -0.1005 -0.1217
  441loPI    C1 7041  16.291  19.079  10.267  0.1592 -0.3710 -0.1808
  441loPI    C2 7042  16.674  19.126  10.161  0.1045 -0.0455 -0.2446
  441loPI    C3 7043  16.524  19.333  10.469 -0.0133 -0.1956 -0.1993
  441loPI   PO4 7044  16.198  19.026  10.042  0.2414 -0.3035 -0.1603
  441loPI   GL1 7045  16.478  18.921   9.711 -0.2681 -0.0141  0.0079
  441loPI   GL2 7046  16.226  19.015   9.496  0.1855 -0.0345  0.1668
  441loPI   C1A 7047  16.744  18.832   9.354  0.3258  0.2051 -0.2614
  441loPI   C2A 7048  16.607  18.885   8.966 -0.2441 -0.0017  0.2247
  441loPI   C3A 7049  16.480  18.859   8.513  0.0099 -0.2763 -0.0423
  441loPI   C4A 7050  16.446  19.180   8.313  0.1067 -0.0233 -0.0992
  441loPI   C5A 7051  16.530  19.214   7.945 -0.0376 -0.0510  0.3210
  441loPI   C6A 7052  16.434  19.239   7.504  0.0266  0.1424  0.0980
  441loPI   C1B 7053  16.456  19.366   9.392 -0.1051  0.1865 -0.0105
  441loPI   C2B 7054  16.648  19.389   9.003  0.2058  0.2138 -0.0392
  441loPI   C3B 7055  16.852  19.399   8.546 -0.0292  0.2196 -0.2456
  441loPI   C4B 7056  16.836  19.599   8.096  0.1296 -0.1684  0.0390
  442loPI    C1 7057   2.583  13.646   9.788 -0.0544  0.0138 -0.0745
  442loPI    C2 7058   2.328  13.432  10.009  0.0444  0.0330  0.0589
  442loPI    C3 7059   2.615  13.646  10.186 -0.1125  0.3534 -0.0669
  442loPI   PO4 7060   2.638  13.523   9.634  0.1732 -0.1458  0.0827
  442loPI   GL1 7061   2.689  13.501   9.198 -0.1062  0.1721 -0.1176
  442loPI   GL2 7062   2.685  13.204   9.052  0.0953 -0.1804  0.1175
  442loPI   C1A 7063   3.012  13.653   8.731  0.0468 -0.0955 -0.3570
  442loPI   C2A 7064   3.010  13.615   8.186 -0.0222 -0.1550 -0.2351
  442loPI   C3A 7065   2.957  13.610   7.690  0.2259 -0.1514  0.2803
  442loPI   C4A 7066   2.814  13.865   7.257 -0.2551  0.1289 -0.2620
  442loPI   C5A 7067   2.601  13.680   6.858  0.2472 -0.1500 -0.0909
  442loPI   C6A 7068   2.540  13.353   6.623  0.1106 -0.3749 -0.0864
  442loPI   C1B 7069   2.698  13.070   8.643  0.1428 -0.1116  0.0716
  442loPI   C2B 7070   2.686  13.263   8.326 -0.2534  0.2800 -0.2195
  442loPI   C3B 7071   2.635  13.272   7.925 -0.1869  0.1635 -0.0037
  442loPI   C4B 7072   2.870  13.064   7.500  0.0356 -0.1109 -0.0464
  443loPI    C1 7073   9.046   8.838   9.517  0.0514 -0.2104  0.3766
  443loPI    C2 7074   9.075   9.105   9.813  0.0388  0.1660  0.0469
  443loPI    C3 7075   8.780   9.135   9.544  0.2210  0.0047 -0.1746
  443loPI   PO4 7076   9.389   8.913   9.406  0.0826  0.1180 -0.1393
  443loPI   GL1 7077   9.503   8.956   9.094 -0.3184 -0.0403  0.2484
  443loPI   GL2 7078   9.410   8.833   8.869  0.0637 -0.0844  0.0191
  443loPI   C1A 7079   9.757   9.144   8.742 -0.3726  0.2420  0.0691
  443loPI   C2A 7080   9.793   9.196   8.288  0.0213  0.0077 -0.2384
  443loPI   C3A 7081  10.015   9.071   8.018  0.1308 -0.1800  0.0452
  443loPI   C4A 7082  10.119   9.044   7.721  0.0143 -0.2091 -0.0501
  443loPI   C5A 7083  10.523   9.134   7.470 -0.1728  0.0515  0.1691
  443loPI   C6A 7084  10.893   9.086   7.794  0.1572  0.0554 -0.2105
  443loPI   C1B 7085   9.367   8.953   8.434  0.2824 -0.1442  0.4539
  443loPI   C2B 7086   8.950   9.173   8.360  0.0375 -0.1487 -0.0533
  443loPI   C3B 7087   8.826   9.437   7.975  0.1968  0.1959  0.1287
  443loPI   C4B 7088   9.098   9.443   7.557  0.0705  0.2423  0.3905
  444loPI    C1 7089   2.670   9.593   9.442  0.2028  0.0079  0.5598
  444loPI    C2 7090   2.432   9.914   9.435 -0.1818 -0.2728  0.1004
  444loPI    C3 7091   2.456   9.691   9.766 -0.0566  0.1155  0.3604
  444loPI   PO4 7092   2.504   9.468   9.186  0.1020  0.3909  0.3150
  444loPI   GL1 7093   2.549   9.850   8.932  0.1741 -0.2306 -0.2214
  444loPI   GL2 7094   2.378  10.157   8.884 -0.1597  0.0072 -0.0485
  444loPI   C1A 7095   2.649   9.990   8.449 -0.0223 -0.1514 -0.2460
  444loPI   C2A 7096   2.715  10.311   8.204 -0.1344 -0.1279  0.0168
  444loPI   C3A 7097   2.640  10.584   7.875 -0.0791  0.0130  0.2846
  444loPI   C4A 7098   2.499  10.667   7.422 -0.0989 -0.3197 -0.2266
  444loPI   C5A 7099   2.396  10.952   7.079 -0.1045  0.0482  0.3475
  444loPI   C6A 7100   2.172  10.919   6.732 -0.1488 -0.0264  0.3731
  444loPI   C1B 7101   2.663  10.416   8.698  0.1611 -0.2156 -0.0384
  444loPI   C2B 7102   3.071  10.586   8.429  0.2865  0.2101  0.2424
  444loPI   C3B 7103   3.163  10.692   7.926 -0.3891  0.0165  0.0136
  444loPI   C4B 7104   3.106  10.559   7.444  0.1474 -0.3864 -0.3822
  445loPI    C1 7105  16.018   0.013  10.680  0.0291  0.2356  0.0140
  445loPI    C2 7106  15.646   0.014  10.829  0.0521 -0.0798  0.0813
  445loPI    C3 7107  15.947  -0.142  11.042  0.1627 -0.1390 -0.1150
  445loPI   PO4 7108  15.949   0.121  10.400  0.0084 -0.0347  0.0670
  445loPI   GL1 7109  15.994   0.132  10.008  0.5509 -0.2500 -0.1053
  445loPI   GL2 7110  15.659   0.075   9.919 -0.2020  0.0799  0.0725
  445loPI   C1A 7111  15.968   0.188   9.493  0.1769 -0.3349 -0.4149
  445loPI   C2A 7112  15.821   0.146   9.053  0.3706  0.1354  0.4268
  445loPI   C3A 7113  15.631  -0.215   8.816  0.2610 -0.2229  0.2461
  445loPI   C4A 7114  15.483  -0.179   8.409 -0.2226 -0.2294 -0.2142
  445loPI   C5A 7115  15.404   0.200   8.165 -0.0965  0.1330  0.0455
  445loPI   C6A 7116  15.227   0.457   7.849  0.0476  0.0158 -0.0385
  445loPI   C1B 7117  15.554   0.472   9.955  0.0344  0.2540  0.0246
  445loPI   C2B 7118  15.782   0.721   9.647 -0.6455 -0.1872 -0.2722
  445loPI   C3B 7119  16.050   0.671   9.300  0.2138  0.0157  0.1273
  445loPI   C4B 7120  16.378   0.424   9.126  0.2821  0.0675 -0.4609
  446loPI    C1 7121   6.993   0.398  10.693  0.0486  0.1769  0.0145
  446loPI    C2 7122   6.861   0.729  10.874 -0.0264  0.2592 -0.1873
  446loPI    C3 7123   6.605   0.435  10.785  0.0226  0.1889 -0.0987
  446loPI   PO4 7124   7.187   0.558  10.485 -0.0912  0.0732  0.1366
  446loPI   GL1 7125   7.410   0.284  10.211  0.1456  0.2881 -0.0275
  446loPI   GL2 7126   7.651   0.113  10.233 -0.0920  0.0510  0.1505
  446loPI   C1A 7127   7.360   0.396   9.843  0.0228  0.2064 -0.0909
  446loPI   C2A 7128   7.254   0.171   9.498  0.4618  0.2491 -0.1066
  446loPI   C3A 7129   7.416   0.003   9.140  0.4925 -0.1911 -0.0824
  446loPI   C4A 7130   7.354   0.064   8.665  0.3980 -0.1643 -0.0473
  446loPI   C5A 7131   7.156   0.188   8.303  0.0778 -0.2853  0.1399
  446loPI   C6A 7132   7.169   0.317   7.840  0.4252 -0.1191 -0.0776
  446loPI   C1B 7133   7.717   0.088   9.772 -0.3051  0.4707  0.1529
  446loPI   C2B 7134   7.704  -0.192   9.483  0.0392 -0.3227 -0.0976
  446loPI   C3B 7135   7.731  -0.379   9.119 -0.0148  0.3690  0.0353
  446loPI   C4B 7136   7.981  -0.680   8.822 -0.0501 -0.1908  0.0038
  447loPI    C1 7137   8.538   0.037  10.703 -0.0263 -0.4588  0.0778
  447loPI    C2 7138   8.932   0.105  10.694 -0.1095  0.0402 -0.0577
  447loPI    C3 7139   8.763  -0.042  11.025  0.1547  0.0515  0.0853
  447loPI   PO4 7140   8.522  -0.122  10.438 -0.0335  0.2422 -0.2869
  447loPI   GL1 7141   8.531  -0.287  10.009 -0.1083  0.1386  0.0635
  447loPI   GL2 7142   8.844  -0.188   9.947  0.1833  0.2459  0.0684
  447loPI   C1A 7143   8.603  -0.399   9.510  0.2527 -0.0760  0.3344
  447loPI   C2A 7144   8.910  -0.358   9.082 -0.1805 -0.3584  0.2442
  447loPI   C3A 7145   8.944  -0.502   8.729  0.1235  0.0382  0.1714
  447loPI   C4A 7146   9.010  -0.535   8.381 -0.0321 -0.1815  0.0966
  447loPI   C5A 7147   9.259  -0.694   8.006 -0.1032  0.0415 -0.2023
  447loPI   C6A 7148   9.493  -1.069   7.830  0.1327 -0.0767 -0.1134
  447loPI   C1B 7149   8.652   0.105   9.667 -0.2621 -0.3405 -0.0068
  447loPI   C2B 7150   8.642   0.107   9.229 -0.0443 -0.2913 -0.4419
  447loPI   C3B 7151   8.839   0.073   8.926  0.3222  0.1579 -0.0709
  447loPI   C4B 7152   8.912   0.037   8.473 -0.0140  0.2893 -0.1504
  448loPI    C1 7153   6.335  10.674   9.383 -0.2424 -0.0652 -0.0640
  448loPI    C2 7154   6.336  11.043   9.538  0.0575 -0.0436 -0.1101
  448loPI    C3 7155   6.245  10.729   9.769 -0.2443  0.0608 -0.0819
  448loPI   PO4 7156   6.569  10.691   9.265  0.5076  0.1357  0.0178
  448loPI   GL1 7157   6.850  10.483   8.996  0.0830 -0.0003  0.2176
  448loPI   GL2 7158   7.150  10.217   9.042  0.2916  0.0154  0.1323
  448loPI   C1A 7159   7.003  10.658   8.698 -0.3932  0.1896  0.0411
  448loPI   C2A 7160   7.083  10.732   8.150  0.1933  0.0183 -0.3288
  448loPI   C3A 7161   7.175  10.866   7.782  0.4147 -0.2208  0.1911
  448loPI   C4A 7162   7.279  11.013   7.454 -0.0334  0.2470  0.3234
  448loPI   C5A 7163   7.460  10.807   7.153 -0.0284 -0.0159 -0.3770
  448loPI   C6A 7164   7.712  10.771   6.707 -0.2271  0.2706 -0.0054
  448loPI   C1B 7165   7.145  10.215   8.557 -0.1656 -0.2017  0.0433
  448loPI   C2B 7166   7.160  10.136   8.131 -0.1040  0.1173 -0.4186
  448loPI   C3B 7167   7.162  10.026   7.707 -0.3058 -0.1284 -0.2130
  448loPI   C4B 7168   7.513   9.843   7.506 -0.0002 -0.0045  0.0067
  449loPI    C1 7169   5.471  12.112   9.890  0.0350  0.0358  0.0211
  449loPI    C2 7170   5.848  12.015   9.980 -0.0616 -0.2458  0.1302
  449loPI    C3 7171   5.614  11.753   9.789 -0.1961 -0.0641  0.0431
  449loPI   PO4 7172   5.535  12.370   9.778 -0.0623 -0.5258 -0.0919
  449loPI   GL1 7173   5.602  12.319   9.350  0.2422  0.2138 -0.0227
  449loPI   GL2 7174   5.253  12.282   9.174 -0.0888 -0.2406 -0.0376
  449loPI   C1A 7175   5.821  12.276   8.946  0.1589  0.0472  0.0276
  449loPI   C2A 7176   6.092  12.454   8.651  0.0239 -0.3310 -0.0099
  449loPI   C3A 7177   6.344  12.497   8.296  0.0029 -0.3156  0.2447
  449loPI   C4A 7178   6.281  12.597   7.818  0.1999  0.0278  0.2380
  449loPI   C5A 7179   6.146  12.939   7.524 -0.0514  0.2259 -0.0080
  449loPI   C6A 7180   6.311  13.099   7.251 -0.0697 -0.2385  0.2194
  449loPI   C1B 7181   5.316  12.122   8.749  0.1085 -0.2468 -0.1474
  449loPI   C2B 7182   5.239  11.981   8.257 -0.0110  0.1398 -0.0192
  449loPI   C3B 7183   5.199  11.909   7.819  0.0316 -0.2623  0.1808
  449loPI   C4B 7184   5.176  12.082   7.402 -0.2191  0.0522 -0.1804
  450loPI    C1 7185   6.815   7.832   9.627  0.1267  0.1645  0.4642
  450loPI    C2 7186   6.712   8.061   9.938 -0.4591  0.2603  0.2115
  450loPI    C3 7187   6.461   7.778   9.806 -0.0053 -0.1157  0.1305
  450loPI   PO4 7188   6.951   7.901   9.473  0.2141 -0.0849  0.1943
  450loPI   GL1 7189   7.221   7.803   9.249  0.1081 -0.0224 -0.2415
  450loPI   GL2 7190   7.149   7.420   9.331  0.0396  0.1979 -0.0285
  450loPI   C1A 7191   7.401   7.983   8.826 -0.0134 -0.2916 -0.0310
  450loPI   C2A 7192   7.465   8.088   8.478  0.1822 -0.0662 -0.1705
  450loPI   C3A 7193   7.497   8.097   8.075  0.2195  0.0215 -0.1556
  450loPI   C4A 7194   7.321   8.169   7.698  0.2167 -0.0975  0.1976
  450loPI   C5A 7195   7.073   8.423   7.426  0.4872 -0.2179  0.2269
  450loPI   C6A 7196   6.711   8.554   7.185  0.1342 -0.1661 -0.3379
  450loPI   C1B 7197   7.331   7.362   8.952  0.1539 -0.0061  0.2349
  450loPI   C2B 7198   7.454   7.465   8.556 -0.1224  0.0326 -0.1918
  450loPI   C3B 7199   7.251   7.504   8.205 -0.1921  0.0463 -0.2433
  450loPI   C4B 7200   7.088   7.654   7.752 -0.1080 -0.3449  0.2101
  451loPI    C1 7201  11.925  10.777   9.879 -0.0273 -0.1150  0.0537
  451loPI    C2 7202  11.956  11.176   9.887  0.2590 -0.1378  0.2308
  451loPI    C3 7203  11.789  10.983  10.194 -0.1332 -0.1388  0.0243
  451loPI   PO4 7204  12.181  10.743   9.736 -0.2079  0.3457  0.4023
  451loPI   GL1 7205  12.139  10.538   9.279 -0.0363 -0.4277  0.1373
  451loPI   GL2 7206  11.870  10.505   9.160  0.1789 -0.0285  0.0130
  451loPI   C1A 7207  12.218  10.515   8.819  0.0509  0.1258  0.3199
  451loPI   C2A 7208  11.888  10.526   8.399  0.5002 -0.0479 -0.1107
  451loPI   C3A 7209  11.870  10.344   7.996  0.0608 -0.1227  0.1213
  451loPI   C4A 7210  12.074  10.403   7.530 -0.2570 -0.0742  0.1174
  451loPI   C5A 7211  12.015  10.154   7.367  0.2300  0.1103  0.3869
  451loPI   C6A 7212  11.887   9.766   7.359  0.0066  0.2415  0.1065
  451loPI   C1B 7213  11.587  10.530   8.867  0.0113 -0.1432  0.2241
  451loPI   C2B 7214  11.297  10.406   8.496  0.0357 -0.0485  0.1069
  451loPI   C3B 7215  11.058  10.588   8.133 -0.0729  0.0480 -0.0565
  451loPI   C4B 7216  10.933  10.535   7.627 -0.2372  0.2653 -0.1351
  452loPI    C1 7217   6.929  17.651  10.269  0.2197  0.0587 -0.0550
  452loPI    C2 7218   6.860  17.924  10.553 -0.1930  0.2054 -0.2881
  452loPI    C3 7219   7.221  17.755  10.521  0.0236  0.6067 -0.0416
  452loPI   PO4 7220   6.860  17.711  10.006 -0.1296  0.1739  0.0892
  452loPI   GL1 7221   7.062  17.734   9.680 -0.0558 -0.1023 -0.0334
  452loPI   GL2 7222   6.902  17.329   9.650  0.0496  0.5335  0.0171
  452loPI   C1A 7223   7.214  17.649   9.288  0.1160  0.0862 -0.0651
  452loPI   C2A 7224   7.406  17.566   8.764 -0.0243  0.2817  0.1186
  452loPI   C3A 7225   7.620  17.589   8.338  0.2328 -0.0500  0.2114
  452loPI   C4A 7226   7.816  17.424   8.015  0.0154 -0.2444  0.0569
  452loPI   C5A 7227   7.760  16.963   7.920  0.3011 -0.0362 -0.0399
  452loPI   C6A 7228   7.799  16.660   7.510  0.1896 -0.3476 -0.1382
  452loPI   C1B 7229   6.702  17.305   9.160  0.1073 -0.1070 -0.1307
  452loPI   C2B 7230   6.915  17.527   8.744 -0.3534 -0.1143 -0.3914
  452loPI   C3B 7231   7.011  17.444   8.383 -0.1263 -0.4032  0.3519
  452loPI   C4B 7232   7.266  17.308   8.039 -0.4602  0.1550 -0.0541
  453loPI    C1 7233  19.216  10.111   9.551  0.0258  0.0903  0.0623
  453loPI    C2 7234  19.057   9.899   9.850 -0.1082 -0.0367 -0.0972
  453loPI    C3 7235  19.397  10.102   9.908 -0.1027 -0.1059  0.1240
  453loPI   PO4 7236  19.156   9.950   9.335  0.3362 -0.0450  0.3584
  453loPI   GL1 7237  18.891  10.023   8.878  0.1977  0.0114 -0.0119
  453loPI   GL2 7238  19.207  10.089   8.832  0.1171 -0.2554  0.0829
  453loPI   C1A 7239  18.930   9.975   8.438  0.0849  0.0535  0.0019
  453loPI   C2A 7240  19.044   9.741   8.125 -0.0894  0.0016 -0.2032
  453loPI   C3A 7241  18.982   9.482   7.716 -0.1350 -0.0440 -0.1941
  453loPI   C4A 7242  18.887   9.649   7.319  0.0716  0.1403  0.3738
  453loPI   C5A 7243  18.601   9.745   6.936  0.3176 -0.0362  0.1258
  453loPI   C6A 7244  18.423  10.036   6.603  0.1920  0.4912 -0.1089
  453loPI   C1B 7245  19.333   9.600   8.644  0.1420 -0.5093  0.0556
  453loPI   C2B 7246  19.437   9.385   8.282 -0.1196 -0.1781 -0.0664
  453loPI   C3B 7247  19.525   9.596   7.905 -0.2520 -0.1288  0.3767
  453loPI   C4B 7248  19.691   9.852   7.559  0.2519  0.0561  0.2317
  454loPI    C1 7249   8.175  10.038   9.224 -0.0544  0.2326  0.4498
  454loPI    C2 7250   8.335   9.687   9.332  0.0787  0.1981  0.1511
  454loPI    C3 7251   8.034   9.697   9.069  0.2768  0.3234 -0.0741
  454loPI   PO4 7252   8.316  10.197   9.130 -0.3066  0.0865  0.0516
  454loPI   GL1 7253   8.436  10.454   8.806 -0.1128 -0.3303  0.2081
  454loPI   GL2 7254   8.571  10.259   8.634  0.1022  0.0436  0.0582
  454loPI   C1A 7255   8.048  10.551   8.529 -0.3292  0.0485  0.2470
  454loPI   C2A 7256   7.950  10.639   8.082 -0.0198  0.0163 -0.3004
  454loPI   C3A 7257   8.170  10.845   7.816  0.2582  0.2505  0.0975
  454loPI   C4A 7258   8.351  11.290   7.788  0.0444  0.3176 -0.2470
  454loPI   C5A 7259   8.366  11.748   7.691 -0.1347 -0.1658  0.2220
  454loPI   C6A 7260   8.543  12.144   7.660 -0.0229  0.2410  0.0083
  454loPI   C1B 7261   8.481  10.655   8.314 -0.0274 -0.2265 -0.1488
  454loPI   C2B 7262   8.464  10.988   8.152  0.1847  0.0788 -0.0535
  454loPI   C3B 7263   8.557  11.485   8.174 -0.5249  0.0364 -0.1343
  454loPI   C4B 7264   8.561  11.888   8.173 -0.0481 -0.0953 -0.1036
  455loPI    C1 7265  11.893   6.270   9.810  0.2752 -0.1089  0.0634
  455loPI    C2 7266  11.758   6.297  10.185  0.0808 -0.0576 -0.0089
  455loPI    C3 7267  11.676   5.972   9.966  0.0644 -0.0211 -0.0571
  455loPI   PO4 7268  11.845   6.401   9.535  0.0406 -0.1989 -0.0420
  455loPI   GL1 7269  11.876   6.635   9.183  0.1219 -0.0287 -0.0737
  455loPI   GL2 7270  11.715   6.909   8.993 -0.0835  0.0416 -0.2982
  455loPI   C1A 7271  11.837   6.426   8.734  0.1145  0.2066 -0.0988
  455loPI   C2A 7272  11.636   6.587   8.292  0.0556 -0.0040 -0.1150
  455loPI   C3A 7273  11.853   6.554   7.870 -0.1716 -0.0162 -0.0849
  455loPI   C4A 7274  11.840   6.798   7.414 -0.2048  0.0703  0.0372
  455loPI   C5A 7275  11.629   7.007   7.193  0.1419 -0.1265  0.0074
  455loPI   C6A 7276  11.441   7.161   6.842 -0.0816  0.1225  0.0215
  455loPI   C1B 7277  11.932   6.938   8.641  0.3705  0.3181 -0.1716
  455loPI   C2B 7278  11.953   7.014   8.202  0.1233  0.0044 -0.0404
  455loPI   C3B 7279  12.057   7.023   7.807 -0.4705  0.0645 -0.0777
  455loPI   C4B 7280  12.383   6.747   7.492  0.3034 -0.1395  0.2167
  456loPI    C1 7281  15.606   4.620  10.271  0.0681 -0.1779  0.0595
  456loPI    C2 7282  15.896   4.671  10.542 -0.1417 -0.2679  0.3056
  456loPI    C3 7283  15.806   4.304  10.412  0.0668 -0.2110 -0.0124
  456loPI   PO4 7284  15.665   4.718   9.943 -0.1956  0.0209  0.0664
  456loPI   GL1 7285  15.952   4.725   9.593 -0.0432  0.1798  0.0449
  456loPI   GL2 7286  16.090   4.983   9.496 -0.2173 -0.1016  0.0084
  456loPI   C1A 7287  15.903   4.608   9.209 -0.2506 -0.0366 -0.3030
  456loPI   C2A 7288  15.657   4.394   8.808 -0.2773  0.1125 -0.2193
  456loPI   C3A 7289  15.799   4.531   8.406 -0.0815 -0.0658  0.2257
  456loPI   C4A 7290  15.609   4.549   7.991  0.2251 -0.1019  0.0717
  456loPI   C5A 7291  15.706   4.274   7.583  0.1817 -0.0249 -0.1035
  456loPI   C6A 7292  15.881   4.103   7.231  0.0321  0.0300 -0.1598
  456loPI   C1B 7293  16.063   5.001   9.048  0.0938  0.2092  0.3607
  456loPI   C2B 7294  15.967   4.945   8.622 -0.1464 -0.1479 -0.1595
  456loPI   C3B 7295  15.942   5.194   8.349 -0.0680 -0.1069  0.0798
  456loPI   C4B 7296  15.684   5.126   8.027  0.0435  0.1903  0.0769
  457loPI    C1 7297  12.016   8.365   9.576  0.1454  0.0550 -0.1703
  457loPI    C2 7298  11.648   8.208   9.556  0.1981 -0.0878 -0.0363
  457loPI    C3 7299  11.753   8.432   9.870  0.2583 -0.1320 -0.0248
  457loPI   PO4 7300  12.201   8.185   9.553 -0.1805  0.1423 -0.2296
  457loPI   GL1 7301  12.411   7.999   9.284  0.0645 -0.1836 -0.1751
  457loPI   GL2 7302  12.405   7.605   9.322 -0.1042  0.2141 -0.2263
  457loPI   C1A 7303  12.342   7.810   8.853  0.0628 -0.0856  0.1220
  457loPI   C2A 7304  12.448   7.634   8.446 -0.0085 -0.0234 -0.2951
  457loPI   C3A 7305  12.446   7.649   7.973  0.1211  0.0773 -0.4638
  457loPI   C4A 7306  12.243   7.474   7.750 -0.2440  0.3626  0.0211
  457loPI   C5A 7307  12.238   7.242   7.398  0.3009  0.0603 -0.1026
  457loPI   C6A 7308  12.240   6.932   7.080 -0.1243 -0.0664 -0.0660
  457loPI   C1B 7309  12.302   7.262   8.989  0.0990 -0.2096  0.0294
  457loPI   C2B 7310  12.330   7.225   8.640 -0.3158 -0.0452  0.0016
  457loPI   C3B 7311  12.478   7.149   8.105 -0.1135 -0.0321 -0.2482
  457loPI   C4B 7312  12.667   7.138   7.672  0.4709 -0.0586 -0.3585
  458loPI    C1 7313  11.198   7.365   9.602 -0.0409 -0.0235 -0.0211
  458loPI    C2 7314  10.918   7.086   9.666  0.0348 -0.0627  0.1416
  458loPI    C3 7315  11.030   7.330   9.963 -0.0124  0.1248  0.0072
  458loPI   PO4 7316  11.131   7.533   9.401  0.0903 -0.0469  0.0246
  458loPI   GL1 7317  11.024   7.675   8.979  0.1516 -0.2337  0.1643
  458loPI   GL2 7318  10.801   7.817   9.214  0.0700  0.0736  0.0760
  458loPI   C1A 7319  11.180   7.695   8.563  0.1293  0.0804  0.1646
  458loPI   C2A 7320  11.494   7.721   8.199 -0.0706  0.0609  0.1627
  458loPI   C3A 7321  11.731   7.472   7.927 -0.0584  0.2031  0.5309
  458loPI   C4A 7322  11.630   7.002   7.829  0.0110 -0.3740 -0.1471
  458loPI   C5A 7323  11.298   6.650   7.838 -0.2550  0.4049  0.0145
  458loPI   C6A 7324  11.493   6.185   7.806  0.3116  0.1142 -0.0261
  458loPI   C1B 7325  10.694   7.457   8.735 -0.0129 -0.0321  0.0402
  458loPI   C2B 7326  10.420   7.648   8.436  0.1269  0.4235 -0.1104
  458loPI   C3B 7327  10.449   7.614   8.013 -0.0350 -0.1532  0.0651
  458loPI   C4B 7328  10.346   7.510   7.679 -0.2071 -0.0938  0.1980
  459loPI    C1 7329  18.830  12.558   9.547  0.1287 -0.0681  0.1007
  459loPI    C2 7330  18.513  12.424   9.344  0.1357 -0.0408  0.0715
  459loPI    C3 7331  18.664  12.207   9.644 -0.1050  0.0927  0.2932
  459loPI   PO4 7332  19.027  12.603   9.312  0.2556  0.2716 -0.2705
  459loPI   GL1 7333  19.148  12.768   8.902 -0.0600  0.1291  0.1102
  459loPI   GL2 7334  19.338  13.019   8.698  0.0470 -0.0305 -0.2311
  459loPI   C1A 7335  19.212  12.609   8.510 -0.0288  0.2152 -0.4485
  459loPI   C2A 7336  19.231  12.615   8.034  0.2562 -0.2143  0.3282
  459loPI   C3A 7337  19.271  12.641   7.503  0.1013 -0.4538 -0.2911
  459loPI   C4A 7338  19.218  12.845   7.111 -0.2627  0.1713 -0.1699
  459loPI   C5A 7339  18.858  12.585   6.915 -0.0162  0.0532  0.4212
  459loPI   C6A 7340  18.728  12.569   6.585 -0.0171  0.0702 -0.0146
  459loPI   C1B 7341  19.211  13.246   8.299 -0.2760  0.0254  0.0033
  459loPI   C2B 7342  19.294  13.191   7.845  0.0767  0.0892  0.0182
  459loPI   C3B 7343  19.203  13.173   7.435  0.0755 -0.1111  0.3959
  459loPI   C4B 7344  19.032  13.371   7.021  0.0828  0.0388 -0.1862
  460loPI    C1 7345   3.938  12.220   9.751 -0.0450 -0.0279 -0.0835
  460loPI    C2 7346   4.058  11.908   9.970 -0.1528  0.0134  0.0355
  460loPI    C3 7347   3.899  12.229  10.149  0.2072  0.2519 -0.0619
  460loPI   PO4 7348   3.755  12.143   9.595 -0.2221 -0.1226 -0.3903
  460loPI   GL1 7349   3.764  12.316   9.262  0.1660 -0.2349 -0.0006
  460loPI   GL2 7350   3.628  12.005   9.172 -0.2462  0.0435  0.1599
  460loPI   C1A 7351   3.765  12.313   8.791  0.0764 -0.2063  0.2979
  460loPI   C2A 7352   3.978  12.430   8.311  0.0391 -0.1422 -0.0777
  460loPI   C3A 7353   3.854  12.390   7.915  0.4163  0.2318 -0.0358
  460loPI   C4A 7354   3.707  12.468   7.480 -0.0526 -0.2135 -0.1628
  460loPI   C5A 7355   3.428  12.301   7.188  0.1215 -0.1524  0.3961
  460loPI   C6A 7356   3.112  12.272   7.275  0.1965  0.1095  0.0992
  460loPI   C1B 7357   3.447  11.870   8.861  0.0116  0.0804  0.2736
  460loPI   C2B 7358   3.458  12.098   8.411 -0.0607 -0.1578  0.3085
  460loPI   C3B 7359   3.444  12.056   8.013 -0.2881  0.2023 -0.2285
  460loPI   C4B 7360   3.401  12.049   7.634 -0.0046  0.0133  0.4731
  461loPI    C1 7361   9.440  14.072  10.134 -0.2107  0.0793 -0.3817
  461loPI    C2 7362   9.475  14.449  10.262  0.4649 -0.1165  0.0628
  461loPI    C3 7363   9.217  14.200  10.440 -0.0024  0.1297 -0.2493
  461loPI   PO4 7364   9.435  14.114   9.888  0.4467 -0.0510 -0.0509
  461loPI   GL1 7365   9.212  14.549   9.725 -0.0185 -0.0930  0.0978
  461loPI   GL2 7366   9.426  14.749   9.564  0.0481  0.0309  0.2111
  461loPI   C1A 7367   9.234  14.562   9.166  0.1071 -0.1644 -0.3912
  461loPI   C2A 7368   9.270  14.688   8.796  0.1254 -0.1721  0.4780
  461loPI   C3A 7369   9.445  14.851   8.425 -0.1017  0.2980 -0.0417
  461loPI   C4A 7370   9.845  14.989   8.268 -0.3032 -0.0081 -0.0515
  461loPI   C5A 7371  10.335  14.888   8.258  0.0019 -0.1234  0.2526
  461loPI   C6A 7372  10.605  15.177   8.105  0.2120  0.2594  0.1788
  461loPI   C1B 7373   9.279  15.075   9.159  0.3964  0.1319  0.0515
  461loPI   C2B 7374   9.430  15.350   8.763 -0.1713  0.0209 -0.1021
  461loPI   C3B 7375   9.570  15.398   8.416  0.0312 -0.1179  0.2329
  461loPI   C4B 7376   9.441  15.264   8.002  0.0170 -0.0828 -0.0988
  462loPI    C1 7377  17.537  15.359   9.736 -0.0884  0.2379  0.0274
  462loPI    C2 7378  17.364  15.282   9.384  0.1816 -0.0573 -0.0449
  462loPI    C3 7379  17.262  15.609   9.589  0.0474  0.1374 -0.4131
  462loPI   PO4 7380  17.800  15.329   9.691  0.4303  0.0688  0.1473
  462loPI   GL1 7381  17.935  15.457   9.313 -0.0578  0.2227  0.2010
  462loPI   GL2 7382  17.996  15.782   9.185 -0.1202  0.2309  0.1495
  462loPI   C1A 7383  18.027  15.381   8.882 -0.0289 -0.1014 -0.3136
  462loPI   C2A 7384  18.177  15.473   8.478 -0.1394  0.2566  0.0615
  462loPI   C3A 7385  18.415  15.594   8.086 -0.0565 -0.3364 -0.0579
  462loPI   C4A 7386  18.259  15.534   7.617 -0.0103 -0.3672 -0.2359
  462loPI   C5A 7387  18.333  15.289   7.277 -0.3685  0.1284  0.3660
  462loPI   C6A 7388  18.638  15.428   6.828  0.1619 -0.0144  0.2102
  462loPI   C1B 7389  17.886  15.993   8.638  0.1176  0.4966 -0.1407
  462loPI   C2B 7390  17.817  15.835   8.253 -0.1843 -0.0558 -0.0987
  462loPI   C3B 7391  17.886  15.413   8.005  0.0562 -0.4354 -0.1019
  462loPI   C4B 7392  17.852  15.206   7.588  0.1390 -0.0548  0.1103
  463loPI    C1 7393  10.355  15.727  10.311  0.1843  0.0237  0.0654
  463loPI    C2 7394  10.651  15.468  10.239  0.1520 -0.0513  0.1978
  463loPI    C3 7395  10.380  15.387  10.521 -0.0230 -0.0060  0.0444
  463loPI   PO4 7396  10.435  15.923  10.152 -0.2933 -0.0761  0.2896
  463loPI   GL1 7397  10.590  15.893   9.643 -0.1598  0.1565 -0.2736
  463loPI   GL2 7398  10.549  16.139   9.729 -0.0665  0.3864  0.1565
  463loPI   C1A 7399  10.846  15.733   9.366 -0.0147 -0.0166 -0.3669
  463loPI   C2A 7400  11.098  15.608   9.077  0.3550 -0.0833  0.1173
  463loPI   C3A 7401  11.304  15.460   8.638 -0.1653 -0.2010  0.3342
  463loPI   C4A 7402  11.674  15.242   8.586 -0.3236 -0.0393 -0.0878
  463loPI   C5A 7403  12.118  15.433   8.395  0.1389 -0.0145 -0.0403
  463loPI   C6A 7404  12.289  15.737   8.128  0.0954 -0.2016 -0.2615
  463loPI   C1B 7405  10.167  15.973   9.390 -0.1324  0.1083 -0.1941
  463loPI   C2B 7406  10.088  16.007   9.016 -0.1808 -0.0864 -0.5011
  463loPI   C3B 7407  10.215  16.179   8.685  0.2359  0.1919 -0.1786
  463loPI   C4B 7408  10.392  16.243   8.297 -0.2409  0.0711  0.1597
  464loPI    C1 7409   9.108   5.932   9.809 -0.1625 -0.0495 -0.0472
  464loPI    C2 7410   9.467   5.827   9.948 -0.0075  0.2718 -0.1943
  464loPI    C3 7411   9.181   5.944  10.202 -0.0039  0.0355 -0.0787
  464loPI   PO4 7412   9.174   5.732   9.549  0.4107  0.1483  0.1351
  464loPI   GL1 7413   9.093   5.641   9.081  0.1701  0.2854 -0.0917
  464loPI   GL2 7414   9.315   5.406   9.059 -0.4897 -0.1410 -0.0911
  464loPI   C1A 7415   9.137   5.690   8.606 -0.1060  0.1240  0.0097
  464loPI   C2A 7416   9.178   5.449   8.195 -0.1285  0.0236 -0.1444
  464loPI   C3A 7417   9.008   5.146   7.952  0.3509 -0.2776  0.1092
  464loPI   C4A 7418   8.719   4.789   7.810  0.2326 -0.0550  0.2322
  464loPI   C5A 7419   8.543   4.704   8.102  0.0832 -0.1313  0.1966
  464loPI   C6A 7420   8.330   5.100   8.193  0.0149 -0.0798 -0.0479
  464loPI   C1B 7421   9.574   5.227   8.708 -0.0426 -0.0089  0.1552
  464loPI   C2B 7422   9.802   5.196   8.255 -0.4245  0.1663  0.4754
  464loPI   C3B 7423   9.939   5.202   7.759  0.0643  0.1946  0.0934
  464loPI   C4B 7424   9.961   5.103   7.354 -0.0299  0.2033  0.0556
  465loPI    C1 7425  15.859  13.679  10.036  0.0718 -0.0220  0.0081
  465loPI    C2 7426  15.537  13.754  10.261 -0.0464 -0.0223 -0.1594
  465loPI    C3 7427  15.889  13.917  10.356 -0.1242  0.0841 -0.0510
  465loPI   PO4 7428  15.853  13.798   9.783 -0.1636  0.1803  0.0550
  465loPI   GL1 7429  15.708  13.743   9.322 -0.1414  0.1243 -0.0208
  465loPI   GL2 7430  15.943  13.642   9.294  0.0730  0.0178 -0.2545
  465loPI   C1A 7431  15.601  13.625   8.915 -0.0334 -0.1966  0.0387
  465loPI   C2A 7432  15.364  13.432   8.570 -0.0820 -0.0650  0.0965
  465loPI   C3A 7433  15.274  13.128   8.299 -0.1401 -0.3235  0.3414
  465loPI   C4A 7434  15.229  12.677   8.122 -0.1524 -0.1724  0.0370
  465loPI   C5A 7435  15.093  12.479   7.729  0.0968 -0.1315 -0.1000
  465loPI   C6A 7436  14.822  12.199   7.671  0.1066  0.0452 -0.2683
  465loPI   C1B 7437  16.017  13.365   8.985  0.1321  0.1615 -0.1188
  465loPI   C2B 7438  15.972  13.469   8.509 -0.3179 -0.1878  0.1861
  465loPI   C3B 7439  15.676  13.486   8.185 -0.1542 -0.0338 -0.0744
  465loPI   C4B 7440  15.345  13.606   7.875 -0.1607  0.0655  0.1242
  466loPI    C1 7441   4.715  15.526   9.850  0.0582 -0.0719 -0.1874
  466loPI    C2 7442   5.050  15.308   9.862  0.0438 -0.0912 -0.1345
  466loPI    C3 7443   4.891  15.451  10.201 -0.0608 -0.1738 -0.1484
  466loPI   PO4 7444   4.669  15.481   9.615  0.1499 -0.0630  0.0506
  466loPI   GL1 7445   4.844  15.373   9.306  0.0616 -0.3788  0.1344
  466loPI   GL2 7446   5.140  15.151   9.332  0.0158  0.3103  0.2932
  466loPI   C1A 7447   5.139  15.655   9.081  0.1925  0.2022  0.0695
  466loPI   C2A 7448   5.168  16.011   8.876 -0.0752  0.0604  0.3498
  466loPI   C3A 7449   4.973  16.353   8.796 -0.2261  0.1380 -0.1497
  466loPI   C4A 7450   4.770  16.616   8.343  0.2557 -0.0051 -0.0862
  466loPI   C5A 7451   4.746  16.883   8.044 -0.0202 -0.0518  0.1211
  466loPI   C6A 7452   4.618  17.203   7.890  0.1855 -0.0548  0.0035
  466loPI   C1B 7453   5.392  15.220   8.975 -0.0158  0.1790 -0.1624
  466loPI   C2B 7454   5.646  15.112   8.588  0.1188 -0.3258 -0.1624
  466loPI   C3B 7455   5.960  15.044   8.289  0.2616  0.0805 -0.1403
  466loPI   C4B 7456   6.211  15.077   7.875 -0.1382 -0.1005 -0.0741
  467loPI    C1 7457  18.203   3.498   9.716  0.0901 -0.0076  0.2888
  467loPI    C2 7458  17.922   3.780   9.673  0.2907  0.1591  0.0422
  467loPI    C3 7459  18.101   3.729  10.027 -0.0278  0.0691  0.1941
  467loPI   PO4 7460  18.302   3.413   9.419  0.3982  0.0415  0.2738
  467loPI   GL1 7461  18.016   3.027   9.137 -0.1651 -0.3699 -0.1297
  467loPI   GL2 7462  18.424   3.119   9.006 -0.1918 -0.0123  0.1159
  467loPI   C1A 7463  17.917   3.001   8.712 -0.0488  0.2029  0.3285
  467loPI   C2A 7464  17.605   3.220   8.446  0.2646  0.0201  0.0010
  467loPI   C3A 7465  17.625   3.511   8.161 -0.0115 -0.0257 -0.1149
  467loPI   C4A 7466  17.758   3.624   7.816 -0.2794 -0.3684 -0.3675
  467loPI   C5A 7467  17.928   3.944   7.442 -0.2685 -0.1393  0.1406
  467loPI   C6A 7468  17.911   4.213   7.107  0.0571  0.1309  0.1303
  467loPI   C1B 7469  18.530   2.995   8.659 -0.0698  0.2193 -0.1064
  467loPI   C2B 7470  18.712   2.871   8.270  0.0340  0.0871 -0.1188
  467loPI   C3B 7471  18.585   2.464   8.089 -0.2938  0.0056 -0.0653
  467loPI   C4B 7472  18.645   2.107   7.792  0.3694  0.2511 -0.0569
  468loPI    C1 7473  10.386  14.297  10.667 -0.0239 -0.0800  0.0615
  468loPI    C2 7474  10.464  13.945  10.840 -0.0860 -0.0277  0.1971
  468loPI    C3 7475  10.412  14.272  11.066 -0.2169  0.0316  0.0823
  468loPI   PO4 7476  10.557  14.391  10.483 -0.0351  0.4083  0.3377
  468loPI   GL1 7477  10.656  14.270  10.031 -0.2697  0.1140 -0.1430
  468loPI   GL2 7478  10.812  14.490  10.039 -0.0671 -0.3185 -0.2624
  468loPI   C1A 7479  10.607  14.012   9.641  0.0367  0.1021 -0.0300
  468loPI   C2A 7480  10.563  13.612   9.460 -0.4936 -0.0669 -0.1228
  468loPI   C3A 7481  10.448  13.346   9.114  0.1147 -0.1322 -0.1566
  468loPI   C4A 7482  10.470  13.192   8.744  0.3531  0.0291 -0.1949
  468loPI   C5A 7483  10.490  13.307   8.302 -0.0515 -0.0088  0.0422
  468loPI   C6A 7484  10.669  13.572   8.053  0.1967  0.0258  0.0492
  468loPI   C1B 7485  10.500  14.712   9.757  0.1626  0.2025 -0.0126
  468loPI   C2B 7486  10.536  14.873   9.372 -0.1074  0.0507  0.0420
  468loPI   C3B 7487  10.728  14.721   9.035 -0.1886  0.2590  0.0547
  468loPI   C4B 7488  10.721  14.800   8.632  0.1066  0.1268  0.1955
  469loPI    C1 7489   1.792  10.196   9.691  0.0336  0.1088 -0.0749
  469loPI    C2 7490   1.468  10.133   9.917  0.0230 -0.0678 -0.1376
  469loPI    C3 7491   1.751  10.389  10.039  0.1524 -0.3678  0.2128
  469loPI   PO4 7492   1.890  10.001   9.576 -0.0095 -0.2728 -0.0744
  469loPI   GL1 7493   2.005   9.877   9.129  0.3910  0.0075 -0.0124
  469loPI   GL2 7494   2.089   9.548   8.956 -0.1793 -0.1251  0.0899
  469loPI   C1A 7495   1.693   9.798   8.739  0.0215  0.0605 -0.0619
  469loPI   C2A 7496   1.745   9.845   8.262  0.1522  0.2187  0.0589
  469loPI   C3A 7497   1.605   9.695   7.795  0.2788  0.1981  0.0798
  469loPI   C4A 7498   1.366   9.813   7.323 -0.4764  0.3011  0.1539
  469loPI   C5A 7499   1.375  10.135   6.942 -0.0645  0.2068 -0.0201
  469loPI   C6A 7500   1.220  10.185   6.529  0.1685  0.0594 -0.1393
  469loPI   C1B 7501   2.179   9.662   8.696 -0.1244 -0.2341  0.1359
  469loPI   C2B 7502   2.220   9.983   8.281  0.3408 -0.1551 -0.0103
  469loPI   C3B 7503   2.148   9.769   7.820 -0.2303 -0.0233  0.1860
  469loPI   C4B 7504   2.466   9.696   7.451  0.0851  0.0406  0.1396
  470loPI    C1 7505   4.145  11.263   9.560  0.1521 -0.0503  0.0076
  470loPI    C2 7506   4.344  11.249   9.214  0.3165  0.3640  0.0802
  470loPI    C3 7507   4.502  11.082   9.541  0.1305 -0.0864 -0.0537
  470loPI   PO4 7508   3.891  11.269   9.450 -0.0410  0.0298  0.5740
  470loPI   GL1 7509   3.956  11.524   9.060  0.1886  0.0283 -0.3125
  470loPI   GL2 7510   3.982  11.854   8.895 -0.1965  0.1134  0.2694
  470loPI   C1A 7511   3.855  11.360   8.612 -0.0707  0.1899 -0.1235
  470loPI   C2A 7512   3.801  11.351   8.189 -0.1927 -0.0982 -0.1010
  470loPI   C3A 7513   3.775  11.569   7.828 -0.4061  0.1160  0.0980
  470loPI   C4A 7514   3.559  11.553   7.432  0.0511 -0.2059  0.0223
  470loPI   C5A 7515   3.330  11.784   7.210  0.0302  0.1119  0.1009
  470loPI   C6A 7516   2.895  11.802   7.227  0.1573  0.2993 -0.2410
  470loPI   C1B 7517   3.914  11.909   8.534  0.0489  0.1798 -0.0530
  470loPI   C2B 7518   3.909  11.927   8.092  0.0488  0.1107 -0.3616
  470loPI   C3B 7519   4.010  11.949   7.702 -0.1123  0.0720  0.2495
  470loPI   C4B 7520   3.793  11.940   7.338 -0.0293 -0.1732  0.2451
  471loPI    C1 7521  18.188   0.027  10.037 -0.0357 -0.1830 -0.2303
  471loPI    C2 7522  18.380  -0.052   9.695  0.0690  0.1124 -0.2429
  471loPI    C3 7523  18.579   0.105  10.005  0.0463 -0.4533  0.0711
  471loPI   PO4 7524  17.967   0.157  10.019 -0.0638  0.0116 -0.0096
  471loPI   GL1 7525  17.743   0.427   9.736 -0.2753  0.2055 -0.3256
  471loPI   GL2 7526  17.602   0.663   9.759  0.2252  0.1045  0.3727
  471loPI   C1A 7527  17.575   0.169   9.368  0.0329  0.4082  0.1056
  471loPI   C2A 7528  17.609  -0.260   9.106 -0.1423  0.0396 -0.0635
  471loPI   C3A 7529  17.598  -0.417   8.760  0.3082 -0.1060  0.1523
  471loPI   C4A 7530  17.772  -0.696   8.455  0.3539  0.3197 -0.3463
  471loPI   C5A 7531  17.674  -1.054   8.102  0.1153  0.1286 -0.1772
  471loPI   C6A 7532  17.875  -1.319   7.751 -0.1648  0.6457 -0.1526
  471loPI   C1B 7533  17.711   0.590   9.266 -0.1015  0.0860  0.0438
  471loPI   C2B 7534  17.884   0.541   8.836  0.0308  0.0734 -0.0717
  471loPI   C3B 7535  17.636   0.527   8.526  0.3298 -0.3011  0.0420
  471loPI   C4B 7536  17.423   0.452   8.102 -0.1245 -0.1364  0.0306
  472loPI    C1 7537  12.466   8.615   9.634 -0.1443 -0.1130  0.1023
  472loPI    C2 7538  12.612   8.395   9.934 -0.1973 -0.1338  0.1128
  472loPI    C3 7539  12.345   8.684  10.009  0.1425  0.1788  0.1458
  472loPI   PO4 7540  12.794   8.703   9.426 -0.1225 -0.1055  0.0963
  472loPI   GL1 7541  12.840   8.622   8.989  0.2107  0.0504 -0.2106
  472loPI   GL2 7542  12.948   8.378   9.102 -0.2735 -0.2623 -0.0745
  472loPI   C1A 7543  12.783   8.837   8.605 -0.1867  0.0502  0.0672
  472loPI   C2A 7544  12.590   8.715   8.222  0.3373  0.1555 -0.2748
  472loPI   C3A 7545  12.506   8.637   7.786  0.0141  0.1277 -0.1977
  472loPI   C4A 7546  12.884   8.744   7.614 -0.0242  0.3020  0.3285
  472loPI   C5A 7547  13.286   8.924   7.502  0.3953 -0.3153  0.0056
  472loPI   C6A 7548  13.405   9.013   7.877  0.0779 -0.0835 -0.0659
  472loPI   C1B 7549  12.794   8.019   8.789 -0.0669 -0.1193  0.1639
  472loPI   C2B 7550  12.819   7.877   8.308 -0.1553 -0.3834 -0.2686
  472loPI   C3B 7551  12.960   7.830   7.901 -0.2459  0.2454  0.0625
  472loPI   C4B 7552  12.886   7.637   7.594 -0.2896  0.1422  0.0331
  473loPI    C1 7553  16.967   6.206   9.430 -0.0127  0.0068 -0.0141
  473loPI    C2 7554  17.249   6.065   9.676  0.0032 -0.1062 -0.0963
  473loPI    C3 7555  17.167   5.874   9.335 -0.2028 -0.0981 -0.0529
  473loPI   PO4 7556  17.017   6.503   9.360  0.1362  0.0361 -0.0289
  473loPI   GL1 7557  16.824   6.743   8.997 -0.0529 -0.1185  0.2011
  473loPI   GL2 7558  16.843   7.071   8.900  0.3353  0.1137  0.0943
  473loPI   C1A 7559  17.015   6.629   8.546 -0.1588  0.3564 -0.0060
  473loPI   C2A 7560  17.231   6.745   8.145 -0.1153  0.1795  0.1038
  473loPI   C3A 7561  16.943   6.707   7.818  0.1513 -0.2945 -0.1388
  473loPI   C4A 7562  16.970   6.860   7.444 -0.0164  0.0556  0.0061
  473loPI   C5A 7563  17.055   7.074   7.020  0.0897 -0.1235 -0.0361
  473loPI   C6A 7564  17.128   7.486   6.755  0.1971  0.5733  0.0185
  473loPI   C1B 7565  16.940   7.164   8.518 -0.1169  0.2514 -0.3354
  473loPI   C2B 7566  16.851   7.189   8.034 -0.2994  0.1560 -0.2332
  473loPI   C3B 7567  16.736   7.364   7.625 -0.0442 -0.2326 -0.0339
  473loPI   C4B 7568  17.034   7.450   7.317  0.2374 -0.0120  0.1827
  474loPI    C1 7569   2.520  15.540   9.574  0.0404 -0.0401 -0.0740
  474loPI    C2 7570   2.535  15.848   9.829 -0.0747 -0.1698  0.0915
  474loPI    C3 7571   2.249  15.570   9.867  0.0429 -0.3106 -0.0411
  474loPI   PO4 7572   2.800  15.534   9.461  0.1991 -0.2242 -0.3178
  474loPI   GL1 7573   3.123  15.542   9.258  0.2136  0.1058  0.1028
  474loPI   GL2 7574   3.453  15.456   9.209 -0.0937  0.2990 -0.0998
  474loPI   C1A 7575   3.167  15.827   9.027  0.2249  0.1142 -0.2583
  474loPI   C2A 7576   3.430  15.949   8.609 -0.0284 -0.2361  0.0217
  474loPI   C3A 7577   3.544  15.989   8.160 -0.3237  0.1339  0.1862
  474loPI   C4A 7578   3.538  15.808   7.785 -0.1988 -0.1301  0.3298
  474loPI   C5A 7579   3.211  15.928   7.573  0.0681 -0.2707  0.1405
  474loPI   C6A 7580   3.156  16.293   7.386 -0.2866 -0.0587  0.0331
  474loPI   C1B 7581   3.454  15.428   8.715 -0.1362  0.0755 -0.0866
  474loPI   C2B 7582   3.634  15.501   8.264 -0.0260 -0.1349  0.2759
  474loPI   C3B 7583   3.663  15.292   7.920  0.2860  0.1804  0.0042
  474loPI   C4B 7584   3.615  14.850   7.755 -0.1096  0.0369 -0.0148
  475loPI    C1 7585  15.149  17.740   9.985  0.0855 -0.0837 -0.1660
  475loPI    C2 7586  15.391  17.722  10.303 -0.0523  0.2177 -0.0406
  475loPI    C3 7587  15.076  17.969  10.305 -0.2749 -0.0579 -0.2621
  475loPI   PO4 7588  15.349  17.834   9.784  0.1406  0.0267 -0.1124
  475loPI   GL1 7589  15.524  18.119   9.488 -0.1366 -0.0070 -0.0312
  475loPI   GL2 7590  15.411  17.924   9.269  0.0315 -0.1535  0.0210
  475loPI   C1A 7591  15.939  18.106   9.137  0.2040 -0.4003 -0.1960
  475loPI   C2A 7592  15.962  18.255   8.735 -0.1143  0.2932 -0.3943
  475loPI   C3A 7593  16.155  18.393   8.404 -0.0727  0.0863 -0.0191
  475loPI   C4A 7594  16.413  18.162   7.926 -0.0621  0.0142 -0.0105
  475loPI   C5A 7595  16.854  18.019   7.903  0.1026  0.0160  0.0006
  475loPI   C6A 7596  17.226  18.173   7.724 -0.1766 -0.2153  0.2686
  475loPI   C1B 7597  15.467  18.185   8.870  0.0759  0.2112  0.0828
  475loPI   C2B 7598  15.530  18.218   8.508 -0.1670  0.0110  0.0523
  475loPI   C3B 7599  15.803  18.249   8.116  0.2696  0.1084  0.2395
  475loPI   C4B 7600  15.978  18.430   7.727  0.0132 -0.0944 -0.2188
  476loPI    C1 7601  13.186  14.484  10.836 -0.0583  0.0577  0.1206
  476loPI    C2 7602  13.203  14.463  11.235 -0.1114  0.0450  0.1222
  476loPI    C3 7603  13.480  14.671  11.033  0.1467 -0.2755  0.1383
  476loPI   PO4 7604  13.222  14.299  10.597 -0.2701 -0.2039  0.1161
  476loPI   GL1 7605  13.276  14.503  10.188 -0.1616 -0.0066 -0.1470
  476loPI   GL2 7606  13.488  14.275  10.139 -0.3015  0.1323 -0.0397
  476loPI   C1A 7607  13.275  14.814   9.749 -0.2789  0.1461 -0.2573
  476loPI   C2A 7608  13.229  15.091   9.341  0.1737 -0.2284 -0.2715
  476loPI   C3A 7609  13.016  15.087   8.999  0.0799  0.2157  0.3331
  476loPI   C4A 7610  13.057  15.307   8.527 -0.1311  0.3498  0.1291
  476loPI   C5A 7611  13.109  15.499   8.103  0.2129  0.0307  0.3997
  476loPI   C6A 7612  13.093  15.168   7.863 -0.1461  0.2948 -0.0605
  476loPI   C1B 7613  13.182  14.310   9.788  0.0533  0.0668  0.0374
  476loPI   C2B 7614  12.922  14.456   9.468  0.0910 -0.2761 -0.0505
  476loPI   C3B 7615  12.514  14.523   9.565  0.1622  0.1629 -0.0522
  476loPI   C4B 7616  12.353  14.879   9.716  0.0699 -0.1226  0.2129
  477loPI    C1 7617   1.621   1.715   9.605 -0.1616  0.1345 -0.0691
  477loPI    C2 7618   1.580   1.386   9.828 -0.3891  0.1603 -0.0703
  477loPI    C3 7619   1.855   1.659   9.924 -0.3248  0.0582  0.0386
  477loPI   PO4 7620   1.496   1.696   9.409 -0.1002 -0.1095 -0.0436
  477loPI   GL1 7621   1.366   1.491   8.991  0.1841 -0.1887  0.0151
  477loPI   GL2 7622   1.041   1.226   8.952 -0.1628  0.0037 -0.0510
  477loPI   C1A 7623   1.513   1.596   8.615 -0.1076 -0.1198  0.0010
  477loPI   C2A 7624   1.762   1.629   8.222  0.2744 -0.0211 -0.3337
  477loPI   C3A 7625   1.725   1.427   7.827  0.0047 -0.4313  0.0511
  477loPI   C4A 7626   1.692   1.670   7.493 -0.0922  0.0121  0.0334
  477loPI   C5A 7627   1.949   1.843   7.156  0.2593 -0.0094 -0.3277
  477loPI   C6A 7628   1.989   1.534   6.791 -0.1766  0.1633 -0.2141
  477loPI   C1B 7629   0.973   1.213   8.529 -0.0452 -0.0367 -0.1236
  477loPI   C2B 7630   0.840   1.156   8.116 -0.0600  0.4156 -0.2555
  477loPI   C3B 7631   0.864   1.067   7.693  0.1703  0.3239 -0.0048
  477loPI   C4B 7632   0.802   1.238   7.251 -0.0119 -0.1771 -0.0520
  478loPI    C1 7633   4.209   0.037   9.711 -0.0531 -0.0161  0.0545
  478loPI    C2 7634   3.964  -0.270   9.638  0.0788 -0.0687 -0.1732
  478loPI    C3 7635   4.145  -0.240   9.993  0.0254 -0.2259 -0.1314
  478loPI   PO4 7636   4.041   0.233   9.609  0.0389 -0.2273  0.1034
  478loPI   GL1 7637   3.956   0.471   9.307  0.1122  0.0003 -0.0275
  478loPI   GL2 7638   3.760   0.492   9.060  0.0389  0.1084  0.3104
  478loPI   C1A 7639   4.206   0.263   8.964 -0.1241 -0.0327  0.2063
  478loPI   C2A 7640   4.410   0.326   8.552 -0.0477  0.0478  0.1878
  478loPI   C3A 7641   4.504   0.424   8.102 -0.0843 -0.1590 -0.2589
  478loPI   C4A 7642   4.776   0.319   7.691 -0.1853 -0.0822  0.0203
  478loPI   C5A 7643   4.790   0.196   7.386 -0.3695 -0.2121 -0.1088
  478loPI   C6A 7644   4.843   0.237   6.972 -0.1605 -0.1489 -0.0603
  478loPI   C1B 7645   3.922   0.575   8.659 -0.3793  0.4216 -0.2333
  478loPI   C2B 7646   4.078   0.563   8.256 -0.1537  0.0198  0.0099
  478loPI   C3B 7647   4.092   0.769   7.872  0.2431 -0.0508  0.0388
  478loPI   C4B 7648   4.113   0.844   7.426  0.1007  0.0066 -0.1469
  479loPI    C1 7649  16.029  18.654  10.334 -0.0440 -0.0795 -0.1066
  479loPI    C2 7650  15.973  18.484  10.692  0.0940  0.1587  0.0309
  479loPI    C3 7651  16.059  18.874  10.667 -0.2580  0.2229 -0.2814
  479loPI   PO4 7652  15.901  18.596  10.118  0.3112 -0.3798  0.0035
  479loPI   GL1 7653  15.722  18.858   9.778 -0.1776 -0.2845 -0.0477
  479loPI   GL2 7654  15.719  18.687   9.502  0.0144 -0.0349 -0.0103
  479loPI   C1A 7655  15.453  19.112   9.563  0.0288 -0.2158 -0.0584
  479loPI   C2A 7656  15.394  19.280   9.217 -0.1990  0.1238  0.0352
  479loPI   C3A 7657  15.084  19.114   8.883 -0.0299  0.0099  0.0696
  479loPI   C4A 7658  15.024  18.751   8.602  0.1729 -0.3388  0.0304
  479loPI   C5A 7659  15.183  18.601   8.271 -0.1555  0.0133 -0.1483
  479loPI   C6A 7660  15.344  18.217   8.008 -0.4187 -0.0732 -0.2543
  479loPI   C1B 7661  15.826  18.999   9.275  0.1896  0.1149 -0.2055
  479loPI   C2B 7662  16.142  19.154   9.021 -0.0916  0.1865  0.0934
  479loPI   C3B 7663  16.197  19.402   8.695 -0.1322 -0.2133 -0.2122
  479loPI   C4B 7664  16.393  19.726   8.537  0.0355 -0.3715  0.0334
  480loPI    C1 7665   9.654  15.011  10.467 -0.0069 -0.0372  0.1632
  480loPI    C2 7666   9.770  15.005  10.850 -0.1774 -0.5049  0.2130
  480loPI    C3 7667   9.410  15.149  10.752  0.0313  0.0095  0.1735
  480loPI   PO4 7668   9.835  15.173  10.364  0.4064 -0.0586 -0.0995
  480loPI   GL1 7669   9.722  15.262  10.014  0.0004 -0.0584 -0.0142
  480loPI   GL2 7670   9.987  15.543   9.960  0.1484 -0.0161 -0.1403
  480loPI   C1A 7671   9.626  15.237   9.556  0.1264  0.3729 -0.2109
  480loPI   C2A 7672   9.633  15.354   9.229  0.2438  0.2078  0.3797
  480loPI   C3A 7673   9.703  15.741   8.918  0.1881 -0.1461 -0.1131
  480loPI   C4A 7674   9.712  15.905   8.537  0.1774  0.2421 -0.0551
  480loPI   C5A 7675   9.933  16.127   8.244  0.1176  0.2307 -0.0442
  480loPI   C6A 7676  10.147  16.262   7.880  0.0628  0.0434  0.0316
  480loPI   C1B 7677  10.300  15.465   9.699  0.1186  0.3195 -0.1643
  480loPI   C2B 7678  10.559  15.343   9.352 -0.0473  0.0802  0.0471
  480loPI   C3B 7679  10.671  15.199   8.963 -0.2218  0.0040  0.2025
  480loPI   C4B 7680  10.432  15.264   8.595  0.0291  0.2591 -0.1388
  481loPI    C1 7681  15.993   1.419  10.779 -0.1679 -0.1294 -0.0284
  481loPI    C2 7682  15.836   1.550  11.123 -0.2889 -0.2116 -0.0515
  481loPI    C3 7683  16.217   1.633  11.032 -0.3498  0.0872 -0.0474
  481loPI   PO4 7684  15.839   1.540  10.577 -0.1272  0.1040 -0.3783
  481loPI   GL1 7685  15.921   1.640  10.070 -0.5240 -0.0376 -0.2910
  481loPI   GL2 7686  15.592   1.786  10.137  0.3485 -0.5495  0.5350
  481loPI   C1A 7687  16.110   1.593   9.664  0.0616  0.0499 -0.3629
  481loPI   C2A 7688  16.220   1.446   9.351  0.4442 -0.1859  0.5300
  481loPI   C3A 7689  16.296   1.369   8.904 -0.0717 -0.1509 -0.1525
  481loPI   C4A 7690  16.289   1.278   8.460 -0.1587  0.1553  0.1238
  481loPI   C5A 7691  16.217   1.486   8.068 -0.2625 -0.1650 -0.1068
  481loPI   C6A 7692  16.213   1.834   8.063  0.0577 -0.0169 -0.0462
  481loPI   C1B 7693  15.338   1.458   9.922  0.0534  0.2291  0.1751
  481loPI   C2B 7694  15.269   1.484   9.437  0.0976 -0.0354 -0.2298
  481loPI   C3B 7695  15.293   1.418   9.074 -0.1533  0.0278  0.1462
  481loPI   C4B 7696  15.419   1.532   8.633  0.0131 -0.1423 -0.1428
  482loPI    C1 7697   0.453   1.527   9.966 -0.1461  0.0621  0.0911
  482loPI    C2 7698   0.815   1.484  10.131 -0.1601  0.0643  0.1226
  482loPI    C3 7699   0.502   1.286  10.281 -0.1875  0.1246  0.1455
  482loPI   PO4 7700   0.519   1.434   9.686 -0.1681 -0.2521 -0.1818
  482loPI   GL1 7701   0.408   1.652   9.232  0.0966  0.3323 -0.0078
  482loPI   GL2 7702   0.494   1.319   9.196 -0.0068 -0.2178 -0.1363
  482loPI   C1A 7703   0.215   1.801   8.870 -0.1315 -0.0345 -0.3259
  482loPI   C2A 7704   0.032   1.807   8.518 -0.3290 -0.0215  0.0775
  482loPI   C3A 7705   0.120   1.817   8.093  0.1026 -0.2499 -0.2166
  482loPI   C4A 7706   0.297   1.925   7.777 -0.2029 -0.1919  0.0376
  482loPI   C5A 7707   0.100   2.058   7.429 -0.2416  0.1037  0.0052
  482loPI   C6A 7708  -0.191   2.039   7.246 -0.0296  0.0176  0.1275
  482loPI   C1B 7709   0.499   1.479   8.700 -0.1028 -0.3179  0.1687
  482loPI   C2B 7710   0.457   1.507   8.229  0.3001  0.0006 -0.0362
  482loPI   C3B 7711   0.288   1.456   7.780  0.0685 -0.0839 -0.2104
  482loPI   C4B 7712   0.337   1.435   7.336 -0.3015 -0.1882  0.0310
  483loPI    C1 7713  19.081   0.880  10.076  0.1253  0.0201  0.2031
  483loPI    C2 7714  19.453   1.023  10.039  0.0880  0.0174 -0.2266
  483loPI    C3 7715  19.220   1.149  10.338  0.3293  0.2501 -0.1326
  483loPI   PO4 7716  19.073   0.844   9.765 -0.1383 -0.0406 -0.2214
  483loPI   GL1 7717  18.845   0.894   9.375  0.1084  0.0600  0.1564
  483loPI   GL2 7718  18.930   1.147   9.397 -0.1155 -0.0552 -0.1175
  483loPI   C1A 7719  18.707   1.047   8.996  0.1517  0.2374  0.2400
  483loPI   C2A 7720  18.694   1.356   8.765  0.0054 -0.0771  0.0491
  483loPI   C3A 7721  18.653   1.693   8.540 -0.2311 -0.2263  0.0400
  483loPI   C4A 7722  18.436   1.575   8.229 -0.0066 -0.0671  0.1773
  483loPI   C5A 7723  18.188   1.771   7.863 -0.4736  0.0715  0.0288
  483loPI   C6A 7724  18.163   1.942   7.487  0.1637  0.0815  0.1094
  483loPI   C1B 7725  19.237   1.070   9.120 -0.1692 -0.0992 -0.0449
  483loPI   C2B 7726  19.364   1.306   8.852  0.0518 -0.0475 -0.0983
  483loPI   C3B 7727  19.313   1.338   8.300  0.1646  0.0698  0.1098
  483loPI   C4B 7728  19.191   1.251   7.910 -0.2703  0.1573  0.2743
  484loPI    C1 7729   7.019   1.138   9.698  0.1256  0.0090  0.2356
  484loPI    C2 7730   6.804   1.473   9.744  0.0218 -0.0108 -0.0805
  484loPI    C3 7731   7.099   1.387  10.000 -0.1430  0.1732  0.1748
  484loPI   PO4 7732   7.055   1.172   9.415  0.1249 -0.1479 -0.2004
  484loPI   GL1 7733   7.065   1.364   9.076 -0.0077 -0.1254 -0.0147
  484loPI   GL2 7734   7.124   1.004   8.892 -0.1854  0.0200 -0.1677
  484loPI   C1A 7735   7.105   1.546   8.569  0.2488  0.1315  0.2055
  484loPI   C2A 7736   7.271   1.323   8.112 -0.1662  0.1352 -0.2772
  484loPI   C3A 7737   7.623   1.277   7.799  0.0178 -0.1210 -0.2538
  484loPI   C4A 7738   7.854   1.141   7.550  0.1221  0.1117 -0.0400
  484loPI   C5A 7739   8.115   0.721   7.536  0.0527  0.1732 -0.1739
  484loPI   C6A 7740   8.576   0.586   7.608  0.0920  0.0210 -0.1353
  484loPI   C1B 7741   7.546   0.857   9.062  0.0130 -0.1595  0.0918
  484loPI   C2B 7742   7.905   0.872   8.755 -0.0137 -0.0937 -0.1541
  484loPI   C3B 7743   7.992   0.777   8.334 -0.1232  0.1909 -0.2265
  484loPI   C4B 7744   7.885   0.899   7.959  0.0820 -0.2425 -0.3515
  485loPI    C1 7745  14.627   4.747   9.809 -0.0026  0.0481 -0.0723
  485loPI    C2 7746  14.764   4.371   9.792 -0.1855 -0.0274  0.0776
  485loPI    C3 7747  14.773   4.571  10.138 -0.1954  0.0662  0.0242
  485loPI   PO4 7748  14.376   4.793   9.658 -0.0295 -0.1264 -0.0076
  485loPI   GL1 7749  14.428   4.506   9.255 -0.1554  0.1308 -0.0097
  485loPI   GL2 7750  14.702   4.287   9.233 -0.1455 -0.0126  0.0424
  485loPI   C1A 7751  14.210   4.497   8.854  0.3078 -0.1043 -0.2169
  485loPI   C2A 7752  14.153   4.284   8.424 -0.0288 -0.1929 -0.2456
  485loPI   C3A 7753  13.990   4.132   8.058 -0.0469  0.1194  0.0250
  485loPI   C4A 7754  13.704   3.825   7.971  0.3476  0.4036  0.0617
  485loPI   C5A 7755  13.657   3.442   7.783  0.1908  0.0219  0.0242
  485loPI   C6A 7756  13.235   3.376   7.473 -0.3821 -0.0650 -0.0545
  485loPI   C1B 7757  14.683   4.268   8.711  0.0089 -0.1406 -0.0691
  485loPI   C2B 7758  14.752   3.969   8.439  0.1735  0.1807 -0.0864
  485loPI   C3B 7759  14.783   3.960   7.983 -0.3195 -0.0010 -0.4502
  485loPI   C4B 7760  14.745   3.878   7.660 -0.3177 -0.0134 -0.1008
  486loPI    C1 7761   9.867   6.430   9.737 -0.0335  0.0314  0.0299
  486loPI    C2 7762  10.202   6.330   9.931  0.0088 -0.2736 -0.1944
  486loPI    C3 7763   9.892   6.078   9.926 -0.1374 -0.0953 -0.1888
  486loPI   PO4 7764   9.844   6.478   9.501  0.3968  0.0660  0.0814
  486loPI   GL1 7765   9.628   6.424   9.155  0.2311 -0.3295  0.2282
  486loPI   GL2 7766   9.411   6.125   9.001  0.1149  0.2699  0.1295
  486loPI   C1A 7767   9.665   6.552   8.752 -0.1513 -0.1131 -0.0421
  486loPI   C2A 7768   9.731   6.532   8.390 -0.0055 -0.3978  0.1109
  486loPI   C3A 7769  10.071   6.623   8.202 -0.2147  0.1746 -0.0176
  486loPI   C4A 7770  10.562   6.708   8.078 -0.1661 -0.0391 -0.4151
  486loPI   C5A 7771  11.003   6.702   8.296  0.1099 -0.0641  0.3012
  486loPI   C6A 7772  11.364   6.878   8.600 -0.3662 -0.0591  0.1997
  486loPI   C1B 7773   9.346   6.234   8.509  0.1312  0.0487 -0.2316
  486loPI   C2B 7774   9.390   6.312   8.122 -0.0186  0.2697  0.4943
  486loPI   C3B 7775   9.098   6.383   7.781  0.0422  0.1542 -0.1139
  486loPI   C4B 7776   9.012   6.782   7.589 -0.2014 -0.1149  0.0259
  487loPI    C1 7777  15.809  18.072   9.912 -0.0640  0.0172 -0.1653
  487loPI    C2 7778  15.463  18.224  10.043  0.0175  0.0223  0.0475
  487loPI    C3 7779  15.748  18.122  10.304  0.1790  0.0220 -0.1269
  487loPI   PO4 7780  15.914  18.235   9.768  0.3795  0.0881 -0.1407
  487loPI   GL1 7781  16.262  18.401   9.792 -0.0358  0.0461  0.0536
  487loPI   GL2 7782  16.406  18.077   9.694  0.2559  0.2093  0.1766
  487loPI   C1A 7783  16.336  18.479   9.353  0.0025  0.3278  0.2800
  487loPI   C2A 7784  16.137  18.618   9.003  0.2993  0.0771 -0.0399
  487loPI   C3A 7785  16.001  18.858   8.685  0.1003 -0.0495 -0.0289
  487loPI   C4A 7786  15.983  19.141   8.285  0.0718 -0.0830 -0.0886
  487loPI   C5A 7787  16.132  19.532   8.091 -0.1317  0.0220 -0.0679
  487loPI   C6A 7788  15.927  19.808   7.871 -0.0412  0.2630  0.0840
  487loPI   C1B 7789  16.384  17.973   9.262 -0.0549 -0.2072  0.0389
  487loPI   C2B 7790  16.301  17.853   8.905  0.0916 -0.1844  0.1077
  487loPI   C3B 7791  16.248  17.484   8.654  0.0762 -0.0144  0.1035
  487loPI   C4B 7792  16.099  17.320   8.267  0.2828  0.2228  0.1057
  488loPI    C1 7793   7.235   4.876   9.475  0.1137 -0.0163 -0.0173
  488loPI    C2 7794   7.230   5.273   9.525 -0.3534  0.0032 -0.1654
  488loPI    C3 7795   7.255   5.031   9.843  0.3095  0.1460 -0.0947
  488loPI   PO4 7796   6.930   4.769   9.283  0.1305  0.0034 -0.1882
  488loPI   GL1 7797   6.981   4.538   8.916  0.0391 -0.0211  0.2989
  488loPI   GL2 7798   7.125   4.328   8.956 -0.0335  0.1104 -0.0997
  488loPI   C1A 7799   7.014   4.697   8.529 -0.0508 -0.2312  0.2714
  488loPI   C2A 7800   7.073   4.565   8.082 -0.0040  0.0882  0.1830
  488loPI   C3A 7801   7.282   4.591   7.632  0.0629  0.1173  0.0590
  488loPI   C4A 7802   7.483   4.498   7.207 -0.3508  0.1169  0.0996
  488loPI   C5A 7803   7.317   4.212   6.976 -0.0263 -0.2055 -0.1044
  488loPI   C6A 7804   6.840   4.181   6.894  0.2963  0.1022  0.0625
  488loPI   C1B 7805   6.955   4.186   8.522  0.2919 -0.2373 -0.0282
  488loPI   C2B 7806   6.879   4.134   8.113 -0.1040 -0.1440 -0.0390
  488loPI   C3B 7807   6.865   4.267   7.708 -0.0250  0.1244  0.1282
  488loPI   C4B 7808   6.720   4.414   7.377  0.2557  0.3375  0.1009
  489loPI    C1 7809  13.674   1.263  10.612  0.0831 -0.0249 -0.4199
  489loPI    C2 7810  13.401   1.541  10.522  0.0446  0.0555 -0.0681
  489loPI    C3 7811  13.703   1.629  10.770  0.0359 -0.2131  0.0418
  489loPI   PO4 7812  13.729   1.137  10.333  0.0200  0.0831 -0.3550
  489loPI   GL1 7813  13.949   0.901  10.059  0.0841 -0.2814  0.1083
  489loPI   GL2 7814  13.946   0.519  10.188 -0.1033 -0.1314  0.0100
  489loPI   C1A 7815  14.198   1.128   9.816  0.0478 -0.1371 -0.3159
  489loPI   C2A 7816  14.328   1.148   9.420 -0.1241 -0.0179  0.3575
  489loPI   C3A 7817  14.332   0.951   8.930 -0.1645  0.1718  0.2617
  489loPI   C4A 7818  14.542   0.828   8.520 -0.0964  0.0698  0.0688
  489loPI   C5A 7819  14.729   1.127   8.241 -0.1748 -0.0544 -0.1953
  489loPI   C6A 7820  14.868   1.545   8.222  0.0253 -0.1815 -0.2408
  489loPI   C1B 7821  13.931   0.487   9.713 -0.1882 -0.1187 -0.1343
  489loPI   C2B 7822  14.035   0.596   9.199 -0.2774 -0.2678  0.0323
  489loPI   C3B 7823  14.101   0.547   8.743 -0.2955  0.0751  0.0454
  489loPI   C4B 7824  14.052   0.740   8.464 -0.0417  0.1124  0.0842
  490loPI    C1 7825   4.786   0.898   9.723  0.4360  0.0439  0.0990
  490loPI    C2 7826   4.937   0.955  10.089  0.0979 -0.0217  0.2528
  490loPI    C3 7827   4.542   0.964  10.032  0.1488  0.0306 -0.1212
  490loPI   PO4 7828   4.968   0.733   9.629 -0.0015 -0.0921  0.1210
  490loPI   GL1 7829   5.041   0.399   9.361  0.4540  0.0723 -0.0801
  490loPI   GL2 7830   5.359   0.360   9.124  0.0132  0.0171 -0.1714
  490loPI   C1A 7831   4.869   0.350   8.956  0.0601 -0.1763 -0.2437
  490loPI   C2A 7832   4.855   0.093   8.675  0.3829 -0.1193 -0.2460
  490loPI   C3A 7833   4.810   0.062   8.281  0.1609 -0.0394 -0.3323
  490loPI   C4A 7834   5.067  -0.055   7.920  0.2387 -0.2744  0.0681
  490loPI   C5A 7835   5.290  -0.295   7.795 -0.1248 -0.0280 -0.0419
  490loPI   C6A 7836   5.484  -0.651   7.922  0.1013 -0.1008  0.2245
  490loPI   C1B 7837   5.307   0.300   8.691 -0.2218  0.2231 -0.0710
  490loPI   C2B 7838   5.362   0.359   8.220 -0.3234 -0.0598 -0.1625
  490loPI   C3B 7839   5.513   0.218   7.812 -0.1622  0.2652  0.4228
  490loPI   C4B 7840   5.629   0.248   7.458  0.5368  0.0977  0.2553
  491loPI    C1 7841   5.965   3.517   9.647  0.0202  0.0870  0.4520
  491loPI    C2 7842   5.907   3.911   9.691  0.0278  0.1382  0.0415
  491loPI    C3 7843   6.278   3.763   9.686  0.0347  0.1580 -0.0493
  491loPI   PO4 7844   5.790   3.395   9.489 -0.0426 -0.2316  0.3495
  491loPI   GL1 7845   5.717   3.368   9.104 -0.0225  0.0376 -0.5404
  491loPI   GL2 7846   5.997   3.355   9.021  0.2995 -0.1958 -0.1066
  491loPI   C1A 7847   5.398   3.235   8.783 -0.1726 -0.1089 -0.1102
  491loPI   C2A 7848   5.189   2.983   8.455  0.0141  0.1834  0.1351
  491loPI   C3A 7849   5.100   2.890   8.069  0.2480  0.2817  0.0400
  491loPI   C4A 7850   5.054   2.965   7.677 -0.0383  0.1653 -0.0998
  491loPI   C5A 7851   5.097   2.900   7.161 -0.0948  0.0600  0.1356
  491loPI   C6A 7852   5.195   2.603   6.815  0.0831  0.1555  0.1046
  491loPI   C1B 7853   5.951   3.406   8.557  0.4628 -0.2710 -0.1173
  491loPI   C2B 7854   5.831   3.373   8.124 -0.0278 -0.2522  0.2029
  491loPI   C3B 7855   5.864   3.250   7.683 -0.0321 -0.0400  0.0931
  491loPI   C4B 7856   5.924   3.244   7.132  0.0968 -0.0665 -0.0870
  492loPI    C1 7857   7.924   1.753   9.942  0.0460  0.0491  0.1046
  492loPI    C2 7858   7.640   1.936   9.729  0.2237 -0.2071 -0.3701
  492loPI    C3 7859   7.544   1.634   9.973  0.0181  0.0890 -0.0744
  492loPI   PO4 7860   8.128   1.910   9.800 -0.2349 -0.1066 -0.3419
  492loPI   GL1 7861   8.318   1.694   9.553  0.1878 -0.2153 -0.1010
  492loPI   GL2 7862   8.485   1.517   9.598  0.3163 -0.2533  0.1446
  492loPI   C1A 7863   8.368   1.886   9.179 -0.1304 -0.1261 -0.0279
  492loPI   C2A 7864   8.620   2.183   8.953  0.1661 -0.4217 -0.0506
  492loPI   C3A 7865   8.535   2.055   8.455 -0.0378  0.0150  0.1320
  492loPI   C4A 7866   8.580   2.045   7.968  0.1699  0.2957 -0.3332
  492loPI   C5A 7867   8.706   2.007   7.639  0.0757  0.0561  0.2393
  492loPI   C6A 7868   8.493   1.881   7.221 -0.0947 -0.1620  0.1636
  492loPI   C1B 7869   8.241   1.407   9.143  0.2146 -0.2092  0.1506
  492loPI   C2B 7870   8.107   1.309   8.720 -0.3433  0.1526 -0.0962
  492loPI   C3B 7871   7.929   1.324   8.304 -0.0776  0.1641 -0.0700
  492loPI   C4B 7872   8.108   1.350   7.963 -0.1419 -0.2164  0.4065
  493loPI    C1 7873  10.283  16.841  10.429 -0.1750 -0.0899 -0.1289
  493loPI    C2 7874  10.237  16.517  10.658  0.1584 -0.0317  0.0260
  493loPI    C3 7875  10.276  16.878  10.827  0.0687  0.0544 -0.1353
  493loPI   PO4 7876  10.120  16.869  10.220  0.1028 -0.3351 -0.1603
  493loPI   GL1 7877   9.923  16.661   9.868  0.2516 -0.1575  0.3108
  493loPI   GL2 7878   9.612  16.768   9.749  0.1092 -0.2100 -0.0660
  493loPI   C1A 7879  10.082  16.499   9.618 -0.1699 -0.1747 -0.1094
  493loPI   C2A 7880  10.402  16.502   9.425 -0.1577  0.0891  0.1993
  493loPI   C3A 7881  10.628  16.246   9.034 -0.0542 -0.2742 -0.1871
  493loPI   C4A 7882  10.725  16.095   8.662 -0.4295  0.4127 -0.1505
  493loPI   C5A 7883  11.100  15.951   8.469 -0.1064  0.1656 -0.0342
  493loPI   C6A 7884  11.346  16.029   8.120  0.1541  0.1608 -0.2569
  493loPI   C1B 7885   9.726  17.086   9.439 -0.0203  0.1497  0.0446
  493loPI   C2B 7886   9.479  17.226   9.008  0.0391 -0.3700 -0.4100
  493loPI   C3B 7887   9.509  17.155   8.595 -0.2215  0.0630 -0.0065
  493loPI   C4B 7888   9.634  17.000   8.230  0.3121 -0.2193 -0.0481
  494loPI    C1 7889  12.692  18.910  10.684  0.1363 -0.1026 -0.0162
  494loPI    C2 7890  12.367  18.979  10.460  0.0434 -0.0762  0.1257
  494loPI    C3 7891  12.537  19.278  10.665  0.1334 -0.0984  0.0841
  494loPI   PO4 7892  12.816  18.683  10.507 -0.0875 -0.2532 -0.1464
  494loPI   GL1 7893  13.078  18.383  10.235  0.1304 -0.0399 -0.1451
  494loPI   GL2 7894  12.794  18.489  10.061  0.2170 -0.0495 -0.3873
  494loPI   C1A 7895  13.335  18.598   9.897 -0.2565  0.0910 -0.0324
  494loPI   C2A 7896  13.499  18.974   9.609  0.0950  0.0176 -0.0322
  494loPI   C3A 7897  13.418  19.182   9.229 -0.1512  0.3060 -0.0850
  494loPI   C4A 7898  13.300  19.228   8.815  0.1577 -0.1858 -0.1766
  494loPI   C5A 7899  13.201  18.989   8.570  0.1433 -0.2213 -0.1277
  494loPI   C6A 7900  13.217  18.618   8.320 -0.3145  0.1978  0.0192
  494loPI   C1B 7901  12.850  18.652   9.740  0.3464  0.0524  0.1050
  494loPI   C2B 7902  12.950  18.740   9.415  0.2681 -0.3861 -0.0579
  494loPI   C3B 7903  12.989  18.619   8.940  0.1595  0.0197 -0.2301
  494loPI   C4B 7904  12.788  18.715   8.607  0.4197 -0.1632  0.1794
  495loPI    C1 7905   2.480  14.594   9.817 -0.0459 -0.2075  0.2766
  495loPI    C2 7906   2.773  14.828   9.957 -0.1394 -0.0520  0.2155
  495loPI    C3 7907   2.786  14.432  10.018  0.1749 -0.0691  0.0581
  495loPI   PO4 7908   2.453  14.520   9.587  0.0766 -0.0969 -0.0770
  495loPI   GL1 7909   2.443  14.699   9.235  0.0754 -0.0970  0.0904
  495loPI   GL2 7910   2.472  14.393   9.141  0.0792  0.0774  0.1667
  495loPI   C1A 7911   2.681  14.983   8.824  0.1204 -0.4519 -0.0675
  495loPI   C2A 7912   3.027  15.091   8.560  0.0902 -0.0798 -0.1854
  495loPI   C3A 7913   3.269  15.073   8.239  0.5329 -0.1914  0.0592
  495loPI   C4A 7914   3.604  14.944   8.232 -0.0057  0.0017  0.0717
  495loPI   C5A 7915   4.055  14.765   8.089  0.0844 -0.2964  0.1100
  495loPI   C6A 7916   4.261  14.644   7.793 -0.5691 -0.2166  0.1926
  495loPI   C1B 7917   2.663  14.406   8.754 -0.3005 -0.0678  0.0681
  495loPI   C2B 7918   2.492  14.334   8.330  0.0981 -0.1798  0.0606
  495loPI   C3B 7919   2.510  14.422   7.928  0.1169  0.2099  0.2748
  495loPI   C4B 7920   2.137  14.582   7.679 -0.2136  0.3156  0.0073
  496loPI    C1 7921   7.243   5.849   9.768  0.0578 -0.1210 -0.0487
  496loPI    C2 7922   7.415   5.526   9.931  0.2397 -0.1504 -0.2933
  496loPI    C3 7923   7.017   5.571   9.947  0.2564 -0.1230  0.2053
  496loPI   PO4 7924   7.272   5.788   9.422 -0.0593 -0.0067 -0.0580
  496loPI   GL1 7925   7.638   5.648   9.155  0.1547  0.1893  0.0779
  496loPI   GL2 7926   7.763   5.670   8.789 -0.1740 -0.3223 -0.1723
  496loPI   C1A 7927   7.269   5.423   8.817 -0.0180  0.0115  0.0834
  496loPI   C2A 7928   7.130   5.187   8.519  0.1552 -0.1564  0.4252
  496loPI   C3A 7929   6.839   5.187   8.302 -0.0190  0.0459  0.0429
  496loPI   C4A 7930   6.476   5.131   7.990  0.0649 -0.0666 -0.0899
  496loPI   C5A 7931   6.629   5.303   7.656  0.1572  0.0157  0.3189
  496loPI   C6A 7932   6.675   5.192   7.115  0.1891 -0.1907  0.3234
  496loPI   C1B 7933   7.739   5.462   8.445 -0.1647 -0.0669  0.2222
  496loPI   C2B 7934   7.849   5.295   8.113 -0.1422  0.1217  0.3184
  496loPI   C3B 7935   7.760   5.490   7.727 -0.0630 -0.1183  0.3793
  496loPI   C4B 7936   7.705   5.752   7.392 -0.0138  0.0632 -0.2134
  497loPI    C1 7937  15.940  16.595  10.288  0.1685  0.1357  0.0790
  497loPI    C2 7938  15.907  16.197  10.253  0.2185  0.1328  0.0654
  497loPI    C3 7939  15.868  16.370  10.612  0.2969  0.1057  0.0872
  497loPI   PO4 7940  15.854  16.647  10.063  0.0413  0.1730  0.1745
  497loPI   GL1 7941  15.683  16.406   9.782  0.5217  0.0047  0.0488
  497loPI   GL2 7942  15.353  16.409   9.583 -0.1788  0.3511  0.1216
  497loPI   C1A 7943  15.656  15.979   9.506 -0.2628  0.2455  0.1230
  497loPI   C2A 7944  15.610  15.794   9.192  0.0735 -0.2014  0.2010
  497loPI   C3A 7945  15.892  15.799   8.844 -0.0635 -0.1576 -0.1251
  497loPI   C4A 7946  16.093  15.791   8.422 -0.1757 -0.0738  0.0229
  497loPI   C5A 7947  15.987  15.814   8.002 -0.3913  0.0968 -0.2435
  497loPI   C6A 7948  15.793  15.924   7.708 -0.1596 -0.0953 -0.2163
  497loPI   C1B 7949  15.078  16.347   9.223  0.1668  0.2564  0.0792
  497loPI   C2B 7950  15.054  16.393   8.721 -0.2452  0.1931  0.4068
  497loPI   C3B 7951  15.000  16.278   8.275 -0.0463  0.0085  0.0723
  497loPI   C4B 7952  14.930  15.878   8.140  0.0767  0.0124 -0.1756
  498loPI    C1 7953   9.778   1.081  10.367  0.1902 -0.0484 -0.2086
  498loPI    C2 7954   9.919   1.442  10.270  0.1331  0.0161 -0.0544
  498loPI    C3 7955  10.151   1.183  10.468  0.0763  0.0786  0.0955
  498loPI   PO4 7956   9.642   1.025  10.171  0.0163 -0.1342  0.0794
  498loPI   GL1 7957   9.630   0.876   9.748  0.0551 -0.0260  0.0763
  498loPI   GL2 7958   9.796   0.743   9.641  0.3429 -0.2506 -0.2068
  498loPI   C1A 7959   9.628   1.018   9.240  0.0950  0.0673 -0.0740
  498loPI   C2A 7960   9.688   1.221   8.919  0.1301 -0.0617 -0.2262
  498loPI   C3A 7961   9.935   1.353   8.447 -0.1954  0.3416  0.0305
  498loPI   C4A 7962  10.314   1.596   8.250  0.1367  0.2934 -0.2086
  498loPI   C5A 7963  10.578   1.551   7.959  0.0484  0.2271 -0.0305
  498loPI   C6A 7964  10.792   1.898   7.622  0.1069 -0.2576 -0.2490
  498loPI   C1B 7965  10.109   0.761   9.268  0.1286 -0.1369 -0.2065
  498loPI   C2B 7966  10.124   0.889   8.898 -0.0996  0.0162  0.0099
  498loPI   C3B 7967  10.233   0.984   8.395 -0.1288  0.0328 -0.0882
  498loPI   C4B 7968  10.400   0.951   7.912 -0.2095 -0.1321  0.0591
  499loPI    C1 7969   6.069  18.909  10.188 -0.0632 -0.0025 -0.0217
  499loPI    C2 7970   6.384  18.879  10.433  0.0005 -0.4368 -0.1488
  499loPI    C3 7971   6.038  19.026  10.569  0.2190 -0.0710  0.0250
  499loPI   PO4 7972   6.117  18.958   9.966 -0.0986  0.4426 -0.1002
  499loPI   GL1 7973   5.928  18.978   9.580 -0.0661 -0.4200 -0.2038
  499loPI   GL2 7974   6.114  18.630   9.447  0.4017  0.1028 -0.1829
  499loPI   C1A 7975   5.972  18.999   9.083  0.0041 -0.1423 -0.1490
  499loPI   C2A 7976   6.151  19.062   8.808  0.0564  0.2852 -0.0519
  499loPI   C3A 7977   6.418  19.109   8.420  0.1922  0.3723 -0.1911
  499loPI   C4A 7978   6.329  19.236   7.999  0.0266 -0.0162 -0.0110
  499loPI   C5A 7979   6.557  19.393   7.701 -0.0248 -0.0454  0.1092
  499loPI   C6A 7980   6.701  19.727   7.313  0.1121 -0.3875 -0.0585
  499loPI   C1B 7981   6.032  18.261   9.306 -0.2996 -0.0041 -0.3017
  499loPI   C2B 7982   5.968  18.008   8.950  0.2167 -0.4841  0.0430
  499loPI   C3B 7983   6.167  17.996   8.504  0.0233  0.0922  0.0242
  499loPI   C4B 7984   6.039  17.797   8.175  0.2012 -0.1901 -0.0468
  500loPI    C1 7985  15.224  10.052   9.934  0.0952 -0.0089  0.1558
  500loPI    C2 7986  15.470   9.749  10.024 -0.0465 -0.1715  0.0033
  500loPI    C3 7987  15.118   9.784  10.211  0.0999  0.0755  0.2395
  500loPI   PO4 7988  15.201  10.144   9.625 -0.1227 -0.1422  0.3548
  500loPI   GL1 7989  15.186  10.167   9.208  0.2517 -0.1232  0.0728
  500loPI   GL2 7990  14.825  10.421   9.104 -0.1029 -0.2290 -0.0956
  500loPI   C1A 7991  15.334  10.453   8.864  0.3623  0.3698  0.2316
  500loPI   C2A 7992  15.724  10.543   8.807  0.2131 -0.0867 -0.0812
  500loPI   C3A 7993  16.098  10.406   8.694  0.1167 -0.0269 -0.1632
  500loPI   C4A 7994  16.228  10.276   8.251 -0.0056 -0.1639 -0.2604
  500loPI   C5A 7995  16.116  10.582   7.886 -0.0431  0.3804 -0.2671
  500loPI   C6A 7996  16.105  10.518   7.440  0.2705 -0.0653  0.1183
  500loPI   C1B 7997  14.948  10.117   8.736  0.0789 -0.0421  0.3176
  500loPI   C2B 7998  14.834  10.048   8.259  0.0269 -0.3575  0.1374
  500loPI   C3B 7999  14.667  10.126   7.894 -0.0097  0.0802 -0.2818
  500loPI   C4B 8000  14.325  10.344   7.537 -0.0745 -0.0849  0.0681
  501loPI    C1 8001   7.661   9.458   9.376  0.1552  0.1198  0.0548
  501loPI    C2 8002   7.735   9.127   9.588 -0.1654  0.0402  0.0485
  501loPI    C3 8003   7.576   9.447   9.767  0.0493  0.1573  0.0332
  501loPI   PO4 8004   7.607   9.380   9.153 -0.5486 -0.2780 -0.0944
  501loPI   GL1 8005   7.860   9.349   8.762  0.2358  0.2557 -0.1738
  501loPI   GL2 8006   7.681   9.158   8.686 -0.0562 -0.0106  0.1695
  501loPI   C1A 8007   7.894   9.562   8.344  0.3756  0.1690  0.3975
  501loPI   C2A 8008   7.926   9.540   7.936 -0.0241 -0.0481 -0.1132
  501loPI   C3A 8009   7.947   9.537   7.541  0.2109  0.0090 -0.0929
  501loPI   C4A 8010   7.727   9.533   7.244  0.0100  0.3059  0.3125
  501loPI   C5A 8011   7.829   9.499   6.877  0.0388  0.0659  0.0684
  501loPI   C6A 8012   7.848   9.435   6.460  0.0811  0.0247  0.0083
  501loPI   C1B 8013   7.455   9.149   8.425 -0.1727 -0.0181 -0.0108
  501loPI   C2B 8014   7.355   9.163   8.042 -0.1887 -0.1386  0.0513
  501loPI   C3B 8015   7.479   9.323   7.608  0.0225  0.1083  0.1492
  501loPI   C4B 8016   7.244   9.382   7.184  0.2594  0.2441  0.1506
  502loPI    C1 8017   4.169   3.706   9.314 -0.2114 -0.2075  0.0765
  502loPI    C2 8018   4.319   3.824   9.666 -0.4317 -0.0727  0.1270
  502loPI    C3 8019   4.452   3.488   9.494 -0.0107  0.0883  0.1270
  502loPI   PO4 8020   4.138   3.889   9.110  0.2041  0.1070 -0.1092
  502loPI   GL1 8021   3.949   4.005   8.646  0.1204 -0.6369 -0.0784
  502loPI   GL2 8022   3.770   4.191   8.488 -0.2192  0.0854  0.1801
  502loPI   C1A 8023   3.995   3.798   8.287  0.3316 -0.0045 -0.0643
  502loPI   C2A 8024   3.971   3.712   7.859 -0.2747  0.4081  0.0465
  502loPI   C3A 8025   3.996   3.659   7.475  0.3708  0.0634 -0.2101
  502loPI   C4A 8026   4.010   3.602   7.075  0.2722 -0.0191 -0.0085
  502loPI   C5A 8027   4.251   3.379   6.740  0.1704  0.4785 -0.0834
  502loPI   C6A 8028   4.564   3.449   6.468 -0.0100 -0.0764 -0.0647
  502loPI   C1B 8029   3.599   4.284   8.201 -0.0899 -0.1667  0.2385
  502loPI   C2B 8030   3.879   4.234   7.830  0.2519 -0.0157  0.2729
  502loPI   C3B 8031   3.886   4.185   7.425 -0.5521 -0.1574  0.0475
  502loPI   C4B 8032   3.847   4.061   7.002  0.2503 -0.4053 -0.1203
  503loPI    C1 8033  14.458  18.163  10.762 -0.1861  0.1555  0.3297
  503loPI    C2 8034  14.831  18.119  10.901 -0.0775 -0.0736 -0.0221
  503loPI    C3 8035  14.549  17.850  10.993 -0.0886 -0.0456  0.0254
  503loPI   PO4 8036  14.539  18.201  10.513 -0.0741  0.0154  0.0339
  503loPI   GL1 8037  14.338  18.139  10.179 -0.1014 -0.1775  0.1165
  503loPI   GL2 8038  14.143  18.373  10.318  0.0495  0.1566  0.2206
  503loPI   C1A 8039  14.262  18.414   9.794 -0.3471  0.0465 -0.2065
  503loPI   C2A 8040  14.433  18.444   9.351  0.3043 -0.1334  0.1137
  503loPI   C3A 8041  14.572  18.676   8.988 -0.0821  0.1047  0.1261
  503loPI   C4A 8042  14.530  18.506   8.559 -0.1219 -0.1292  0.0776
  503loPI   C5A 8043  14.714  18.480   8.288 -0.0051 -0.1228  0.1942
  503loPI   C6A 8044  14.937  18.523   7.879  0.0408 -0.0456  0.0275
  503loPI   C1B 8045  13.834  18.488  10.003 -0.3681 -0.0187 -0.2211
  503loPI   C2B 8046  13.915  18.603   9.496 -0.3079 -0.1487  0.1904
  503loPI   C3B 8047  14.113  18.649   9.055 -0.0264  0.0622 -0.1057
  503loPI   C4B 8048  14.110  18.791   8.684  0.1008 -0.0120  0.2954
  504loPI    C1 8049   9.428  18.537  10.000 -0.2813 -0.0849  0.5642
  504loPI    C2 8050   9.398  18.928   9.920 -0.0975 -0.1198  0.3123
  504loPI    C3 8051   9.116  18.675   9.792 -0.0007 -0.1243  0.1048
  504loPI   PO4 8052   9.720  18.553  10.194 -0.2080 -0.1072 -0.4002
  504loPI   GL1 8053  10.030  18.693   9.888  0.0373  0.0992  0.3142
  504loPI   GL2 8054   9.873  18.997   9.751 -0.0423  0.2057  0.0164
  504loPI   C1A 8055   9.811  18.484   9.495 -0.2630 -0.1720  0.1894
  504loPI   C2A 8056   9.923  18.341   9.105  0.2599 -0.1899 -0.1032
  504loPI   C3A 8057  10.324  18.442   8.900 -0.0308  0.2161  0.0865
  504loPI   C4A 8058  10.355  18.490   8.487  0.3497  0.2153  0.0539
  504loPI   C5A 8059  10.442  18.318   8.118  0.1713 -0.0034  0.0371
  504loPI   C6A 8060  10.505  18.044   7.937  0.1369 -0.2069  0.1118
  504loPI   C1B 8061   9.839  19.179   9.331  0.1361  0.0692 -0.0146
  504loPI   C2B 8062   9.722  18.904   9.015 -0.0439 -0.1723 -0.2809
  504loPI   C3B 8063   9.919  18.710   8.720 -0.0804 -0.2349  0.1615
  504loPI   C4B 8064   9.908  18.240   8.624 -0.2410  0.3010 -0.2173
  505loPI    C1 8065  10.390   1.346  10.082 -0.0133 -0.1709 -0.1473
  505loPI    C2 8066  10.787   1.352  10.131 -0.0139 -0.1060 -0.1481
  505loPI    C3 8067  10.548   1.486  10.422 -0.0314 -0.0512 -0.1875
  505loPI   PO4 8068  10.292   1.372   9.871 -0.0268  0.0858  0.1355
  505loPI   GL1 8069  10.130   1.235   9.424 -0.1758  0.0291 -0.0728
  505loPI   GL2 8070  10.317   1.639   9.496  0.0445 -0.2198 -0.1396
  505loPI   C1A 8071  10.268   1.457   9.003 -0.2388 -0.0477  0.2305
  505loPI   C2A 8072  10.439   1.357   8.667 -0.4846  0.2958  0.1194
  505loPI   C3A 8073  10.706   1.216   8.285 -0.1578 -0.0300  0.0147
  505loPI   C4A 8074  10.891   1.192   7.824  0.0812 -0.3214 -0.0885
  505loPI   C5A 8075  10.807   1.495   7.451 -0.0744 -0.2354 -0.0035
  505loPI   C6A 8076  10.817   1.691   7.049  0.2307  0.0189  0.1051
  505loPI   C1B 8077  10.719   1.492   9.301  0.0255  0.0767  0.0334
  505loPI   C2B 8078  10.805   1.378   8.958 -0.0599 -0.0081  0.1289
  505loPI   C3B 8079  11.177   1.338   8.641 -0.1418  0.2738  0.2659
  505loPI   C4B 8080  11.347   1.433   8.220 -0.4468 -0.0158 -0.0604
  506loPI    C1 8081  17.996  13.263   9.457 -0.2071  0.2034 -0.0066
  506loPI    C2 8082  18.107  13.154   9.825  0.0506  0.0727 -0.1204
  506loPI    C3 8083  17.881  13.481   9.773  0.2008  0.2208  0.1347
  506loPI   PO4 8084  17.831  13.099   9.348 -0.2862 -0.2802 -0.1998
  506loPI   GL1 8085  17.679  12.869   9.046  0.1650  0.1315  0.1271
  506loPI   GL2 8086  17.792  12.630   8.750  0.1103 -0.3425 -0.1350
  506loPI   C1A 8087  17.357  12.885   8.743 -0.1361  0.0407  0.0424
  506loPI   C2A 8088  17.128  13.176   8.481  0.2037 -0.1357 -0.1462
  506loPI   C3A 8089  16.847  13.224   8.061  0.0360 -0.0132  0.3072
  506loPI   C4A 8090  16.719  12.945   7.795  0.1948  0.1728 -0.1804
  506loPI   C5A 8091  16.474  12.703   7.574 -0.1546  0.0333 -0.1349
  506loPI   C6A 8092  16.198  12.533   7.340 -0.0284  0.1733  0.0809
  506loPI   C1B 8093  17.620  12.748   8.323  0.1457  0.1711  0.0063
  506loPI   C2B 8094  17.713  12.725   7.862  0.0970  0.2071  0.1349
  506loPI   C3B 8095  17.962  12.443   7.694  0.1580 -0.0127 -0.1142
  506loPI   C4B 8096  17.901  12.332   7.338 -0.0576  0.3775 -0.0231
  507loPI    C1 8097  11.019   4.253   9.984 -0.0146  0.0997  0.0444
  507loPI    C2 8098  11.050   4.609  10.164  0.0940  0.0848  0.0558
  507loPI    C3 8099  11.016   4.276  10.383  0.0517  0.0827  0.0460
  507loPI   PO4 8100  11.088   4.181   9.834  0.0107  0.1823 -0.1116
  507loPI   GL1 8101  11.156   4.321   9.345  0.1058 -0.1452  0.0812
  507loPI   GL2 8102  10.857   4.433   9.256  0.2114  0.1828 -0.2990
  507loPI   C1A 8103  11.475   4.566   9.278  0.0851  0.0680 -0.1388
  507loPI   C2A 8104  11.865   4.535   9.036  0.1149 -0.0784  0.1980
  507loPI   C3A 8105  11.743   4.573   8.520 -0.2663 -0.0293  0.2557
  507loPI   C4A 8106  11.903   4.462   8.156 -0.1129 -0.1006  0.1798
  507loPI   C5A 8107  11.856   4.713   7.801  0.1506 -0.1162  0.1159
  507loPI   C6A 8108  11.614   4.858   7.361 -0.1569 -0.1631  0.2954
  507loPI   C1B 8109  11.005   4.341   8.894 -0.1079  0.3167  0.2655
  507loPI   C2B 8110  11.137   4.544   8.489 -0.2483 -0.1220  0.2981
  507loPI   C3B 8111  11.371   4.590   8.034 -0.3182 -0.0149 -0.4835
  507loPI   C4B 8112  11.340   4.504   7.599 -0.1766  0.1716 -0.1943
  508loPI    C1 8113   9.469   7.170   9.797  0.0167 -0.2677  0.0513
  508loPI    C2 8114   9.840   7.242   9.931  0.0516 -0.0710 -0.1448
  508loPI    C3 8115   9.785   7.015   9.606  0.0004 -0.0954 -0.1191
  508loPI   PO4 8116   9.360   7.266   9.704 -0.2086 -0.2140  0.1128
  508loPI   GL1 8117   9.340   7.478   9.236 -0.0446  0.2353  0.0279
  508loPI   GL2 8118   9.229   7.692   8.964  0.0681  0.0456  0.0270
  508loPI   C1A 8119   9.376   7.258   8.861  0.0462  0.1699  0.1240
  508loPI   C2A 8120   9.500   7.424   8.546 -0.0928 -0.1858  0.2292
  508loPI   C3A 8121   9.476   7.384   8.103 -0.0892  0.0256 -0.2225
  508loPI   C4A 8122   9.067   7.413   7.764  0.3537  0.5491  0.0959
  508loPI   C5A 8123   8.714   7.295   7.496  0.0443 -0.0749 -0.0712
  508loPI   C6A 8124   8.298   7.241   7.340 -0.3276 -0.1107  0.4770
  508loPI   C1B 8125   9.302   7.900   8.629 -0.4933 -0.0177 -0.0502
  508loPI   C2B 8126   9.593   7.921   8.279  0.2598 -0.2376  0.0920
  508loPI   C3B 8127   9.647   8.250   7.928  0.1981  0.1212 -0.1047
  508loPI   C4B 8128   9.873   8.383   7.532 -0.0178  0.2243  0.1751
  509loPI    C1 8129  15.414  14.213  10.139  0.1795  0.1534  0.3468
  509loPI    C2 8130  15.489  14.515   9.888  0.0999  0.1005  0.2587
  509loPI    C3 8131  15.790  14.289  10.023  0.0942 -0.1898 -0.1920
  509loPI   PO4 8132  15.190  14.139  10.038 -0.1082  0.1830  0.0513
  509loPI   GL1 8133  14.845  14.504   9.866 -0.2825  0.2562  0.1662
  509loPI   GL2 8134  14.999  14.597   9.759 -0.0742  0.1933  0.1197
  509loPI   C1A 8135  14.606  14.343   9.631  0.0045  0.0300  0.4145
  509loPI   C2A 8136  14.241  14.077   9.303 -0.5007  0.0175 -0.3132
  509loPI   C3A 8137  14.024  13.966   8.939 -0.1099 -0.2170  0.1153
  509loPI   C4A 8138  13.800  14.004   8.497 -0.1474 -0.2663  0.1709
  509loPI   C5A 8139  13.348  14.027   8.278  0.4145 -0.2309 -0.3947
  509loPI   C6A 8140  12.995  14.014   8.621 -0.0660 -0.0604 -0.0229
  509loPI   C1B 8141  15.112  14.432   9.346  0.3847 -0.0260 -0.1431
  509loPI   C2B 8142  15.292  14.144   9.106  0.0453  0.5973 -0.2280
  509loPI   C3B 8143  15.317  13.910   8.656  0.1758 -0.1022  0.0307
  509loPI   C4B 8144  15.081  13.894   8.348  0.0961 -0.1621 -0.2917
  510loPI    C1 8145   7.243  14.211  10.246  0.1100  0.1087 -0.2313
  510loPI    C2 8146   7.249  14.606  10.312 -0.1524  0.1023 -0.1577
  510loPI    C3 8147   7.229  14.352  10.620  0.0970  0.0275 -0.2010
  510loPI   PO4 8148   7.109  14.150  10.056 -0.0609 -0.3651  0.0615
  510loPI   GL1 8149   6.783  14.174   9.806 -0.3525 -0.0219  0.2275
  510loPI   GL2 8150   6.609  14.381   9.570  0.0983 -0.1038 -0.1662
  510loPI   C1A 8151   7.059  14.246   9.463 -0.0270 -0.1102 -0.3547
  510loPI   C2A 8152   7.169  14.365   9.115 -0.0953 -0.2178  0.0072
  510loPI   C3A 8153   7.462  14.424   8.637  0.0345 -0.0377  0.1467
  510loPI   C4A 8154   7.738  14.510   8.346  0.1939  0.2984 -0.2299
  510loPI   C5A 8155   7.572  14.628   7.966 -0.4113 -0.1467 -0.0681
  510loPI   C6A 8156   7.470  14.864   7.713 -0.2070  0.1578  0.1749
  510loPI   C1B 8157   6.577  14.275   9.135  0.1912  0.0816  0.1108
  510loPI   C2B 8158   6.713  14.250   8.758  0.0001 -0.0700 -0.0136
  510loPI   C3B 8159   6.611  14.233   8.304 -0.1107  0.0709 -0.0616
  510loPI   C4B 8160   6.218  14.111   8.163 -0.2161  0.2832  0.1094
  511loPI    C1 8161  13.624  13.525  10.423 -0.0912  0.0527  0.0711
  511loPI    C2 8162  13.937  13.659  10.633 -0.0272  0.0544 -0.0243
  511loPI    C3 8163  13.603  13.543  10.822  0.0168  0.0890  0.0754
  511loPI   PO4 8164  13.717  13.734  10.209 -0.2580  0.5371  0.1799
  511loPI   GL1 8165  13.595  13.913   9.764  0.1489  0.2226 -0.0841
  511loPI   GL2 8166  13.273  13.816   9.630 -0.0709  0.0687 -0.1137
  511loPI   C1A 8167  13.748  13.977   9.386 -0.3887  0.0040  0.2083
  511loPI   C2A 8168  13.568  14.192   8.934  0.0610  0.1033  0.0869
  511loPI   C3A 8169  13.401  14.430   8.644 -0.3656 -0.0217  0.3888
  511loPI   C4A 8170  13.262  14.611   8.324  0.0895 -0.0677 -0.1396
  511loPI   C5A 8171  13.039  14.330   8.083  0.1423  0.1036 -0.1847
  511loPI   C6A 8172  12.779  14.044   8.161 -0.0074  0.4806 -0.1953
  511loPI   C1B 8173  13.345  13.681   9.321  0.0715 -0.0502 -0.0052
  511loPI   C2B 8174  13.256  13.588   8.826  0.0773  0.1228  0.0715
  511loPI   C3B 8175  13.254  13.568   8.391  0.0528  0.4507 -0.2960
  511loPI   C4B 8176  13.234  13.476   8.008  0.3156 -0.3014  0.0713
  512loPI    C1 8177   7.024  16.931  10.119  0.2658  0.0559  0.0310
  512loPI    C2 8178   6.934  17.217  10.384 -0.1484  0.0343 -0.0792
  512loPI    C3 8179   6.844  16.835  10.463  0.2336 -0.0460 -0.0139
  512loPI   PO4 8180   6.960  16.925   9.906  0.2307  0.0960  0.1684
  512loPI   GL1 8181   7.022  16.718   9.502 -0.3710 -0.2475 -0.0953
  512loPI   GL2 8182   6.965  16.414   9.603  0.0777  0.0843  0.2886
  512loPI   C1A 8183   7.281  16.670   9.160  0.0109  0.3490 -0.2606
  512loPI   C2A 8184   7.099  16.618   8.697 -0.3258 -0.0718 -0.2180
  512loPI   C3A 8185   6.967  16.543   8.354 -0.2116  0.1657  0.2061
  512loPI   C4A 8186   6.996  16.387   7.940 -0.0371  0.0010  0.1186
  512loPI   C5A 8187   6.543  16.215   7.946  0.0181  0.1161 -0.0618
  512loPI   C6A 8188   6.159  16.301   7.798 -0.1887 -0.0837  0.0003
  512loPI   C1B 8189   6.932  16.356   9.142  0.0169 -0.1673  0.0599
  512loPI   C2B 8190   6.746  16.233   8.793  0.4373  0.0906  0.0816
  512loPI   C3B 8191   6.602  16.090   8.442 -0.0964  0.2345  0.0487
  512loPI   C4B 8192   6.967  15.938   8.233  0.1063  0.0779  0.1298
  513loPI    C1 8193   4.209   1.365   9.315 -0.0764 -0.3497  0.0903
  513loPI    C2 8194   4.146   1.740   9.439  0.3122 -0.2147 -0.1041
  513loPI    C3 8195   3.863   1.547   9.233 -0.0104 -0.1430  0.2610
  513loPI   PO4 8196   4.474   1.228   9.427 -0.4394 -0.0689  0.1701
  513loPI   GL1 8197   4.639   1.066   9.053 -0.2971 -0.2649  0.1355
  513loPI   GL2 8198   4.869   1.337   8.844  0.2776 -0.0251 -0.0196
  513loPI   C1A 8199   4.572   0.757   8.696 -0.0282 -0.1780 -0.0147
  513loPI   C2A 8200   4.847   0.611   8.413  0.3565  0.0222 -0.3248
  513loPI   C3A 8201   4.987   0.583   8.030 -0.0795  0.1926  0.1063
  513loPI   C4A 8202   5.175   0.716   7.653  0.2332 -0.0638 -0.2870
  513loPI   C5A 8203   5.264   0.999   7.331 -0.0222 -0.0353  0.0011
  513loPI   C6A 8204   5.215   1.008   6.895  0.0967 -0.0439 -0.1943
  513loPI   C1B 8205   4.847   1.115   8.482  0.4676  0.2062 -0.0020
  513loPI   C2B 8206   4.927   1.102   7.967 -0.0286  0.3867 -0.0420
  513loPI   C3B 8207   4.814   1.199   7.444  0.1387  0.0210  0.1167
  513loPI   C4B 8208   5.098   1.486   7.228  0.0455 -0.2186  0.1891
  514loPI    C1 8209   6.572  16.409  10.393  0.1407  0.0308  0.0657
  514loPI    C2 8210   6.198  16.327  10.277  0.1347 -0.0802  0.1620
  514loPI    C3 8211   6.347  16.158  10.608  0.3136 -0.1362  0.0546
  514loPI   PO4 8212   6.710  16.465  10.184 -0.1027 -0.1282  0.3461
  514loPI   GL1 8213   6.542  16.642   9.780 -0.1411 -0.0800 -0.2293
  514loPI   GL2 8214   6.505  17.004   9.823  0.0350 -0.0452 -0.0200
  514loPI   C1A 8215   6.583  16.855   9.319 -0.0499  0.2339 -0.2101
  514loPI   C2A 8216   6.791  16.858   8.967 -0.3159  0.1981 -0.1771
  514loPI   C3A 8217   6.757  17.017   8.584  0.3234 -0.0544 -0.2727
  514loPI   C4A 8218   6.469  17.155   8.302 -0.0504  0.0236 -0.0997
  514loPI   C5A 8219   6.542  17.327   7.810  0.2669  0.1978  0.0819
  514loPI   C6A 8220   6.901  17.311   7.672 -0.0815  0.4290 -0.1781
  514loPI   C1B 8221   6.329  17.235   9.583  0.1841  0.0384 -0.0396
  514loPI   C2B 8222   6.602  17.676   9.440  0.2064 -0.1465 -0.2039
  514loPI   C3B 8223   6.471  18.084   9.336  0.0491  0.2017 -0.0120
  514loPI   C4B 8224   6.389  18.491   9.060  0.2140  0.0231 -0.1392
  515loPI    C1 8225   4.376  12.201  10.171 -0.4012  0.3292  0.1634
  515loPI    C2 8226   4.637  12.502  10.138  0.1284 -0.1017  0.2805
  515loPI    C3 8227   4.335  12.527  10.399  0.1244  0.3500  0.2400
  515loPI   PO4 8228   4.465  12.157   9.845  0.0923  0.0214 -0.1189
  515loPI   GL1 8229   4.543  12.515   9.563  0.2793  0.2328 -0.1916
  515loPI   GL2 8230   4.249  12.539   9.460 -0.1590  0.2903  0.2932
  515loPI   C1A 8231   4.706  12.537   9.189 -0.0844  0.1762  0.1640
  515loPI   C2A 8232   4.979  12.468   8.768 -0.0978 -0.0058  0.0312
  515loPI   C3A 8233   5.161  12.489   8.274 -0.2380  0.3127  0.1074
  515loPI   C4A 8234   5.333  12.412   7.914 -0.1585  0.0350  0.2146
  515loPI   C5A 8235   5.261  12.598   7.518  0.0199  0.2185 -0.0000
  515loPI   C6A 8236   4.929  12.763   7.385  0.5879  0.1421  0.1578
  515loPI   C1B 8237   4.223  12.222   9.131 -0.1324 -0.1739 -0.1612
  515loPI   C2B 8238   4.343  12.095   8.742 -0.1955 -0.0934 -0.0218
  515loPI   C3B 8239   4.349  12.040   8.356  0.0273 -0.2369  0.1133
  515loPI   C4B 8240   4.347  12.259   7.959 -0.3125 -0.0921 -0.1186
  516loPI    C1 8241  19.199  12.054   9.452  0.1176  0.0406 -0.0155
  516loPI    C2 8242  19.018  11.928   9.786  0.1344 -0.1178 -0.0651
  516loPI    C3 8243  19.205  12.282   9.781 -0.0724 -0.0049  0.0212
  516loPI   PO4 8244  19.234  11.776   9.292  0.0944  0.1271  0.2190
  516loPI   GL1 8245  19.065  11.887   8.833 -0.2097 -0.2714  0.0075
  516loPI   GL2 8246  19.461  11.893   8.811  0.0388 -0.3229 -0.0326
  516loPI   C1A 8247  18.860  11.901   8.373  0.2653 -0.1328 -0.3240
  516loPI   C2A 8248  18.807  11.944   7.986 -0.1907  0.1174 -0.0116
  516loPI   C3A 8249  18.870  11.792   7.553  0.3490  0.0598  0.1984
  516loPI   C4A 8250  19.008  11.956   7.149  0.1451 -0.1293 -0.1476
  516loPI   C5A 8251  19.380  12.266   6.933 -0.1993 -0.1592  0.1434
  516loPI   C6A 8252  19.660  12.642   6.946 -0.1168 -0.0184  0.0590
  516loPI   C1B 8253  19.337  11.946   8.400  0.2218 -0.0667  0.0012
  516loPI   C2B 8254  19.292  12.006   7.970  0.0686  0.0153  0.0743
  516loPI   C3B 8255  19.131  12.183   7.637  0.3130 -0.4420 -0.1978
  516loPI   C4B 8256  18.838  12.465   7.428 -0.2173 -0.2729  0.1451
  517loPI    C1 8257   1.263  14.288   9.370  0.0721 -0.1625 -0.0902
  517loPI    C2 8258   1.608  14.100   9.445  0.1492 -0.0697 -0.2091
  517loPI    C3 8259   1.397  14.258   9.746  0.2892  0.0101 -0.1521
  517loPI   PO4 8260   1.155  14.129   9.207 -0.4801 -0.1445  0.0228
  517loPI   GL1 8261   1.206  14.186   8.810  0.0886  0.2126  0.0129
  517loPI   GL2 8262   0.837  14.186   8.708 -0.4560  0.0287  0.0182
  517loPI   C1A 8263   1.386  14.307   8.488 -0.1091 -0.0911 -0.4991
  517loPI   C2A 8264   1.412  14.606   8.212 -0.3939 -0.3398  0.2298
  517loPI   C3A 8265   1.380  14.872   7.862 -0.3170  0.5009 -0.0400
  517loPI   C4A 8266   1.332  14.793   7.469  0.2170 -0.0186  0.2250
  517loPI   C5A 8267   1.491  14.612   7.101  0.0664  0.4581  0.2330
  517loPI   C6A 8268   1.809  14.411   7.136  0.0537 -0.0231 -0.1245
  517loPI   C1B 8269   0.989  14.287   8.227 -0.0533 -0.0380 -0.2787
  517loPI   C2B 8270   1.044  14.470   7.708  0.0680 -0.0399 -0.2011
  517loPI   C3B 8271   0.949  14.563   7.283 -0.1680  0.3851 -0.0800
  517loPI   C4B 8272   0.975  14.224   7.007 -0.0228  0.2342  0.3552
  518loPI    C1 8273  18.154  11.084   9.255  0.1014 -0.2392 -0.0525
  518loPI    C2 8274  18.504  11.262   9.330  0.0859 -0.1944 -0.0861
  518loPI    C3 8275  18.216  11.261   9.608 -0.0484  0.1554 -0.2178
  518loPI   PO4 8276  18.053  11.247   8.945  0.0900  0.2792 -0.0601
  518loPI   GL1 8277  17.702  11.103   8.663  0.2168 -0.0874  0.0593
  518loPI   GL2 8278  17.405  10.937   8.753  0.1338 -0.0141  0.2711
  518loPI   C1A 8279  17.702  10.869   8.353  0.1279  0.1306 -0.2553
  518loPI   C2A 8280  17.589  11.010   8.017  0.2147 -0.1029 -0.2992
  518loPI   C3A 8281  17.532  11.049   7.582 -0.0875  0.1147  0.2816
  518loPI   C4A 8282  17.439  11.105   7.169 -0.1853  0.1225  0.1788
  518loPI   C5A 8283  17.584  11.505   6.977 -0.1047  0.2216 -0.2148
  518loPI   C6A 8284  17.569  11.539   6.473  0.1484 -0.2308 -0.2567
  518loPI   C1B 8285  17.147  10.923   8.339  0.1032  0.0939 -0.1724
  518loPI   C2B 8286  16.785  11.208   8.155 -0.0517  0.2315  0.1315
  518loPI   C3B 8287  16.568  11.346   7.740  0.4992 -0.1210 -0.1496
  518loPI   C4B 8288  16.469  11.700   7.597  0.0416 -0.1309 -0.1693
  519loPI    C1 8289   8.972   9.547   9.223  0.3314 -0.2165 -0.0349
  519loPI    C2 8290   9.195   9.507   9.553  0.1543  0.3103  0.1588
  519loPI    C3 8291   8.827   9.663   9.577 -0.1420 -0.2947 -0.1955
  519loPI   PO4 8292   9.134   9.273   9.105  0.2398  0.0353 -0.0353
  519loPI   GL1 8293   9.291   9.353   8.740 -0.0472  0.0004  0.1145
  519loPI   GL2 8294   9.001   9.599   8.739 -0.1173  0.1602  0.0995
  519loPI   C1A 8295   9.357   9.456   8.314 -0.1035 -0.1285  0.0625
  519loPI   C2A 8296   9.266   9.127   7.982 -0.1761 -0.0090 -0.2393
  519loPI   C3A 8297   9.177   8.945   7.573 -0.0060  0.2629  0.1726
  519loPI   C4A 8298   9.165   9.070   7.173 -0.1092 -0.0651  0.1884
  519loPI   C5A 8299   8.909   9.172   6.809 -0.2520  0.0333 -0.1159
  519loPI   C6A 8300   8.448   9.280   6.654 -0.1369  0.3186  0.3891
  519loPI   C1B 8301   8.913   9.923   8.379 -0.0320 -0.3425 -0.0677
  519loPI   C2B 8302   8.660  10.165   8.068  0.2389 -0.0120  0.1580
  519loPI   C3B 8303   8.493  10.495   7.799 -0.3004 -0.2360 -0.1749
  519loPI   C4B 8304   8.257  10.459   7.454 -0.0418  0.0797  0.1477
  520loPI    C1 8305   5.006  16.846  10.308 -0.2138 -0.0734 -0.0844
  520loPI    C2 8306   5.351  16.897  10.505 -0.1930 -0.3481 -0.0451
  520loPI    C3 8307   5.048  16.703  10.679 -0.3553 -0.1435 -0.0949
  520loPI   PO4 8308   5.100  16.818  10.052  0.0254  0.0246 -0.0832
  520loPI   GL1 8309   5.506  16.763   9.844 -0.1758 -0.0540  0.1110
  520loPI   GL2 8310   5.583  16.457   9.807 -0.2033  0.0653  0.2766
  520loPI   C1A 8311   5.421  16.743   9.413 -0.2038 -0.2054 -0.1008
  520loPI   C2A 8312   5.215  16.752   9.021 -0.0102  0.0432  0.0364
  520loPI   C3A 8313   5.313  16.542   8.488  0.2211  0.1339  0.0068
  520loPI   C4A 8314   5.288  16.726   8.115 -0.0876  0.1196  0.1181
  520loPI   C5A 8315   5.179  17.053   7.868 -0.0626 -0.2574  0.1493
  520loPI   C6A 8316   4.881  17.083   7.522  0.1134  0.1487 -0.1227
  520loPI   C1B 8317   5.807  16.414   9.392 -0.0120  0.1146  0.0790
  520loPI   C2B 8318   5.689  16.558   9.021 -0.0161 -0.1562  0.0395
  520loPI   C3B 8319   5.612  16.348   8.774  0.0908  0.1094 -0.4590
  520loPI   C4B 8320   5.624  16.002   9.048  0.1691  0.3031  0.1880
  521loPI    C1 8321   4.694   2.674   9.433  0.1115  0.2079  0.0079
  521loPI    C2 8322   4.460   2.962   9.583 -0.1639 -0.0359  0.0555
  521loPI    C3 8323   4.399   2.580   9.685  0.1996 -0.1144 -0.0042
  521loPI   PO4 8324   4.665   2.708   9.184 -0.1310  0.2250  0.2961
  521loPI   GL1 8325   4.586   2.398   8.855 -0.1226 -0.2035 -0.0056
  521loPI   GL2 8326   4.923   2.658   8.713 -0.0171 -0.3395 -0.1714
  521loPI   C1A 8327   4.467   2.344   8.497  0.2238 -0.2425 -0.0852
  521loPI   C2A 8328   4.412   2.119   8.182  0.0716  0.2042 -0.0875
  521loPI   C3A 8329   4.560   1.966   7.700 -0.1091 -0.2977 -0.3367
  521loPI   C4A 8330   4.724   1.835   7.342  0.4102  0.1308  0.0680
  521loPI   C5A 8331   4.696   1.583   6.959 -0.0054 -0.1461  0.1693
  521loPI   C6A 8332   4.755   1.288   6.706  0.3217  0.2091 -0.1812
  521loPI   C1B 8333   4.653   2.895   8.375 -0.0772 -0.1806  0.3375
  521loPI   C2B 8334   4.627   3.277   7.984  0.0824  0.1958  0.0526
  521loPI   C3B 8335   4.843   3.439   7.601 -0.1908 -0.2780  0.3311
  521loPI   C4B 8336   5.009   3.328   7.309 -0.1612 -0.0603 -0.2152
  522loPI    C1 8337  10.573   8.802   9.662 -0.0386  0.0527 -0.1976
  522loPI    C2 8338  10.260   9.050   9.682  0.0668  0.1607  0.2345
  522loPI    C3 8339  10.502   9.058   9.364 -0.1578  0.3316  0.0643
  522loPI   PO4 8340  10.522   8.562   9.626  0.0903 -0.1420 -0.2968
  522loPI   GL1 8341  10.680   8.336   9.196 -0.0037  0.2016  0.1234
  522loPI   GL2 8342  10.881   8.633   9.092 -0.0024  0.0139 -0.2482
  522loPI   C1A 8343  10.542   8.452   8.736  0.0771 -0.0975  0.2276
  522loPI   C2A 8344  10.482   8.358   8.251  0.0329 -0.0441  0.3927
  522loPI   C3A 8345  10.644   8.250   7.975 -0.0795 -0.0104  0.1568
  522loPI   C4A 8346  10.628   8.159   7.509 -0.2322  0.1074  0.0839
  522loPI   C5A 8347  10.525   7.761   7.268 -0.3398 -0.0471 -0.2820
  522loPI   C6A 8348  10.581   7.369   7.110 -0.0475 -0.1425 -0.0110
  522loPI   C1B 8349  10.973   8.668   8.653  0.2758  0.0099 -0.1263
  522loPI   C2B 8350  11.026   8.646   8.121  0.0137 -0.3333 -0.4942
  522loPI   C3B 8351  10.912   8.607   7.705 -0.0570 -0.0146  0.2001
  522loPI   C4B 8352  10.794   8.673   7.343  0.3559  0.0626  0.2593
  523loPI    C1 8353   6.626   8.772   9.444  0.1833 -0.0951 -0.2922
  523loPI    C2 8354   6.882   8.697   9.742 -0.2147 -0.0630  0.0684
  523loPI    C3 8355   6.760   8.400   9.503  0.0121 -0.1119  0.0109
  523loPI   PO4 8356   6.706   9.029   9.372 -0.3590  0.1874 -0.1502
  523loPI   GL1 8357   6.622   9.284   8.987 -0.0666  0.2390  0.0458
  523loPI   GL2 8358   6.388   9.480   8.980  0.1345  0.0801 -0.0222
  523loPI   C1A 8359   6.517   9.158   8.554 -0.0418 -0.0300 -0.1366
  523loPI   C2A 8360   6.430   8.936   8.135 -0.0217 -0.0147 -0.0622
  523loPI   C3A 8361   6.371   9.116   7.664  0.0053  0.1187  0.1004
  523loPI   C4A 8362   6.636   9.103   7.383  0.1142 -0.0433 -0.2171
  523loPI   C5A 8363   7.111   8.995   7.448 -0.0139  0.0799 -0.1641
  523loPI   C6A 8364   7.513   8.758   7.448 -0.3784  0.1854  0.0000
  523loPI   C1B 8365   6.522   9.644   8.598  0.1550 -0.0512 -0.0865
  523loPI   C2B 8366   6.792   9.692   8.223  0.1125  0.2152  0.3042
  523loPI   C3B 8367   7.160   9.602   8.021 -0.1845 -0.2970 -0.1024
  523loPI   C4B 8368   7.488   9.765   8.018 -0.0734 -0.0755 -0.0194
  524loPI    C1 8369  10.540   0.936  10.326 -0.1407  0.1491 -0.0500
  524loPI    C2 8370  10.747   0.672  10.543  0.0131 -0.0218 -0.3961
  524loPI    C3 8371  10.413   0.834  10.691  0.1084 -0.1402 -0.0399
  524loPI   PO4 8372  10.586   0.808  10.076 -0.3426  0.2925  0.3097
  524loPI   GL1 8373  10.447   0.746   9.692 -0.2042  0.1302 -0.0041
  524loPI   GL2 8374  10.577   1.068   9.613  0.1277 -0.1548  0.0127
  524loPI   C1A 8375  10.534   0.514   9.321  0.3445  0.0948 -0.0893
  524loPI   C2A 8376  10.399   0.430   8.919 -0.1809  0.1045 -0.2339
  524loPI   C3A 8377  10.197   0.420   8.490 -0.2183 -0.3288  0.1183
  524loPI   C4A 8378  10.170   0.081   8.186  0.1565 -0.2057  0.4241
  524loPI   C5A 8379  10.266  -0.053   7.792 -0.1408 -0.1989 -0.0003
  524loPI   C6A 8380  10.526  -0.280   7.510  0.2145 -0.4472 -0.3560
  524loPI   C1B 8381  10.633   0.957   9.172  0.1657  0.2582  0.0032
  524loPI   C2B 8382  10.626   0.908   8.753  0.2408 -0.2102 -0.0271
  524loPI   C3B 8383  10.596   0.689   8.275 -0.0947  0.1434  0.1044
  524loPI   C4B 8384  10.469   0.419   7.875  0.2775  0.2709 -0.0311
  525loPI    C1 8385  17.076  13.490   9.687 -0.0584  0.0977  0.1493
  525loPI    C2 8386  17.459  13.469   9.573 -0.1124  0.1410 -0.0443
  525loPI    C3 8387  17.366  13.466   9.962  0.0697 -0.0968  0.0004
  525loPI   PO4 8388  16.951  13.607   9.539  0.1620 -0.1149 -0.2110
  525loPI   GL1 8389  16.710  13.633   9.308  0.1147  0.0924 -0.0343
  525loPI   GL2 8390  16.495  13.571   9.132 -0.0548 -0.0436 -0.0221
  525loPI   C1A 8391  16.905  13.928   8.953 -0.1212 -0.0376 -0.0453
  525loPI   C2A 8392  16.998  14.052   8.520 -0.0322  0.1183  0.1409
  525loPI   C3A 8393  16.834  14.107   8.150  0.0784  0.0650 -0.0508
  525loPI   C4A 8394  16.802  14.322   7.737  0.0886  0.0051 -0.2550
  525loPI   C5A 8395  16.868  14.610   7.409  0.1650  0.1828 -0.1299
  525loPI   C6A 8396  17.022  14.618   6.995 -0.1755 -0.0521 -0.1653
  525loPI   C1B 8397  16.390  13.575   8.693 -0.0070  0.1618  0.1222
  525loPI   C2B 8398  16.325  13.919   8.331  0.2541 -0.0903 -0.0195
  525loPI   C3B 8399  16.126  14.268   8.271 -0.2785 -0.1431  0.0199
  525loPI   C4B 8400  15.919  14.342   7.884  0.0075 -0.2230 -0.1991
  526loPI    C1 8401  12.129  16.393  10.256 -0.1200  0.2622 -0.1705
  526loPI    C2 8402  12.340  16.553  10.556 -0.2368  0.1035 -0.0022
  526loPI    C3 8403  11.962  16.668  10.493 -0.2314  0.0942 -0.0520
  526loPI   PO4 8404  12.241  16.381  10.040  0.2403 -0.0293  0.3418
  526loPI   GL1 8405  12.561  16.357   9.789  0.0857 -0.1530 -0.1566
  526loPI   GL2 8406  12.659  16.447   9.395 -0.1157 -0.0412  0.2006
  526loPI   C1A 8407  12.296  16.093   9.477 -0.0982 -0.0208 -0.5299
  526loPI   C2A 8408  12.392  15.811   9.168  0.2824  0.0650 -0.0004
  526loPI   C3A 8409  12.811  15.720   9.015  0.2402  0.1711 -0.0578
  526loPI   C4A 8410  13.149  15.791   8.594  0.0244 -0.0038  0.2151
  526loPI   C5A 8411  13.252  16.066   8.275 -0.0514 -0.1803  0.1006
  526loPI   C6A 8412  13.193  16.087   7.829  0.0623 -0.0180 -0.1839
  526loPI   C1B 8413  12.861  16.588   9.142  0.1329  0.2283  0.2347
  526loPI   C2B 8414  12.781  16.690   8.678 -0.0214  0.2370  0.1135
  526loPI   C3B 8415  12.734  16.967   8.334 -0.2111 -0.0183  0.3218
  526loPI   C4B 8416  12.876  16.897   7.927 -0.1183 -0.2868  0.1376
  527loPI    C1 8417   3.243  10.273   9.578 -0.1632 -0.0659 -0.2233
  527loPI    C2 8418   3.164  10.244   9.969  0.1159  0.0823 -0.1534
  527loPI    C3 8419   2.969  10.512   9.745  0.0232  0.0625 -0.0970
  527loPI   PO4 8420   3.497  10.363   9.481  0.1451 -0.0437 -0.1014
  527loPI   GL1 8421   3.548  10.553   8.994  0.1320 -0.2014  0.1160
  527loPI   GL2 8422   3.870  10.499   9.006  0.0024  0.1666 -0.0942
  527loPI   C1A 8423   3.551  10.334   8.475  0.1821 -0.0932  0.0628
  527loPI   C2A 8424   3.533  10.263   8.089 -0.0140  0.0563 -0.2083
  527loPI   C3A 8425   3.430   9.817   7.935  0.2323  0.0002 -0.1013
  527loPI   C4A 8426   3.075   9.708   7.599  0.1566 -0.0599 -0.0603
  527loPI   C5A 8427   2.920   9.575   7.146 -0.2972 -0.3146  0.1468
  527loPI   C6A 8428   2.653   9.405   6.705 -0.2806  0.0538  0.1896
  527loPI   C1B 8429   4.015  10.443   8.605  0.0987 -0.1137  0.0948
  527loPI   C2B 8430   4.054  10.438   8.202  0.0001  0.0465 -0.0917
  527loPI   C3B 8431   3.785  10.507   7.813 -0.1924 -0.0360  0.0419
  527loPI   C4B 8432   3.654  10.700   7.398 -0.3153 -0.3726  0.1455
  528loPI    C1 8433  16.010   2.658  10.039 -0.2749  0.0012 -0.0937
  528loPI    C2 8434  15.710   2.675  10.303  0.0008  0.0948  0.2210
  528loPI    C3 8435  16.081   2.595  10.428  0.0782 -0.2222 -0.1894
  528loPI   PO4 8436  15.895   2.792   9.850  0.0453  0.2947 -0.0862
  528loPI   GL1 8437  16.020   2.730   9.413  0.0151 -0.1164 -0.1555
  528loPI   GL2 8438  16.219   2.531   9.430 -0.3007  0.2900 -0.2183
  528loPI   C1A 8439  16.040   2.583   8.974 -0.1591  0.1742 -0.0685
  528loPI   C2A 8440  16.422   2.647   8.611  0.0907 -0.2642 -0.5377
  528loPI   C3A 8441  16.695   2.708   8.218  0.0931 -0.0646  0.1074
  528loPI   C4A 8442  16.957   2.660   7.843 -0.1503  0.0662  0.2566
  528loPI   C5A 8443  16.871   2.429   7.481  0.0812  0.1698  0.2400
  528loPI   C6A 8444  16.476   2.250   7.287  0.0051 -0.0562 -0.2857
  528loPI   C1B 8445  16.521   2.438   9.048 -0.0631  0.0966  0.0081
  528loPI   C2B 8446  16.629   2.166   8.724  0.1640 -0.5401  0.0901
  528loPI   C3B 8447  16.577   1.804   8.417  0.0373  0.0627 -0.1849
  528loPI   C4B 8448  16.797   1.684   7.962 -0.1318 -0.0610 -0.0928
  529loPI    C1 8449  17.149   2.135  10.194  0.0811 -0.0034 -0.2029
  529loPI    C2 8450  17.061   2.384   9.893 -0.0172  0.2632  0.0425
  529loPI    C3 8451  16.899   2.441  10.255 -0.1335 -0.2279  0.0752
  529loPI   PO4 8452  17.462   2.067  10.047 -0.2812  0.1578  0.1180
  529loPI   GL1 8453  17.657   2.045   9.607  0.1760  0.2623  0.0776
  529loPI   GL2 8454  17.274   1.994   9.563  0.0102 -0.3635 -0.0201
  529loPI   C1A 8455  17.643   2.036   9.159 -0.0318 -0.0839 -0.2308
  529loPI   C2A 8456  17.593   1.919   8.784  0.0792 -0.2643 -0.1476
  529loPI   C3A 8457  17.618   1.579   8.516 -0.0484  0.1589 -0.4232
  529loPI   C4A 8458  17.470   1.394   8.088  0.0629 -0.1425 -0.0806
  529loPI   C5A 8459  17.581   1.629   7.665  0.4113  0.1967 -0.1377
  529loPI   C6A 8460  17.719   1.880   7.298  0.3016 -0.0270 -0.2266
  529loPI   C1B 8461  17.185   1.520   9.491 -0.0627 -0.0124  0.0917
  529loPI   C2B 8462  16.870   1.250   9.216  0.3707  0.1971  0.1561
  529loPI   C3B 8463  16.744   1.090   8.852 -0.0115 -0.6445  0.3316
  529loPI   C4B 8464  16.570   0.904   8.469 -0.2652 -0.0555 -0.3825
  530loPI    C1 8465  14.935  13.503  10.134  0.0395  0.2454  0.1170
  530loPI    C2 8466  14.986  13.359  10.503  0.1204  0.1551  0.0710
  530loPI    C3 8467  14.634  13.517  10.397 -0.0500 -0.2285  0.0488
  530loPI   PO4 8468  14.950  13.376   9.907  0.0395 -0.1123 -0.0750
  530loPI   GL1 8469  15.103  13.283   9.581 -0.1810  0.1998 -0.0130
  530loPI   GL2 8470  15.304  13.443   9.298  0.0566 -0.1142 -0.0375
  530loPI   C1A 8471  14.873  13.063   9.299  0.2407 -0.0947 -0.1657
  530loPI   C2A 8472  14.550  13.079   8.851  0.1590  0.0070 -0.0022
  530loPI   C3A 8473  14.374  13.209   8.454  0.2227  0.2407 -0.2832
  530loPI   C4A 8474  14.090  13.286   8.034 -0.1919 -0.3955 -0.2249
  530loPI   C5A 8475  14.311  13.615   7.733 -0.0633 -0.0143  0.0169
  530loPI   C6A 8476  14.297  13.845   7.355  0.2879 -0.2117 -0.0267
  530loPI   C1B 8477  15.050  13.600   9.042 -0.1796  0.1603 -0.0705
  530loPI   C2B 8478  14.782  13.555   8.629  0.3132 -0.0485 -0.0065
  530loPI   C3B 8479  14.864  13.425   8.288  0.0090  0.1061 -0.2514
  530loPI   C4B 8480  14.582  13.352   8.006 -0.0382  0.3726  0.2063
  531loPI    C1 8481   0.654  15.221   9.648  0.2481  0.3711  0.0610
  531loPI    C2 8482   0.749  14.919   9.892 -0.2426  0.2721  0.1393
  531loPI    C3 8483   0.715  15.291  10.037  0.0198  0.3098  0.1091
  531loPI   PO4 8484   0.898  15.182   9.456  0.1747 -0.1114  0.2525
  531loPI   GL1 8485   0.984  15.117   9.024 -0.1886  0.1074  0.0519
  531loPI   GL2 8486   0.897  15.442   8.948  0.0420  0.0874 -0.0502
  531loPI   C1A 8487   0.797  15.161   8.540 -0.3213 -0.1978 -0.1009
  531loPI   C2A 8488   0.491  15.156   8.284  0.2861  0.2779 -0.0718
  531loPI   C3A 8489   0.516  15.259   7.822 -0.1300  0.4483  0.0270
  531loPI   C4A 8490   0.739  15.505   7.595  0.0508  0.0402  0.2571
  531loPI   C5A 8491   0.706  15.465   7.095  0.3971 -0.2112  0.1942
  531loPI   C6A 8492   0.722  15.727   6.684 -0.2377  0.0403  0.0363
  531loPI   C1B 8493   0.980  15.609   8.545  0.1965 -0.3087  0.0025
  531loPI   C2B 8494   1.330  15.651   8.251  0.2153 -0.2906  0.0658
  531loPI   C3B 8495   1.339  15.742   7.854  0.1856  0.1739  0.3076
  531loPI   C4B 8496   1.230  15.373   7.677  0.3273  0.0809 -0.0976
  532loPI    C1 8497   9.896   5.614   9.766  0.1332  0.1485  0.2267
  532loPI    C2 8498  10.127   5.351   9.958  0.4029  0.3496  0.1840
  532loPI    C3 8499   9.917   5.621  10.166  0.0230  0.0240  0.2352
  532loPI   PO4 8500   9.914   5.536   9.510 -0.0539  0.0437 -0.2000
  532loPI   GL1 8501   9.889   5.351   9.081  0.0413  0.3373 -0.0465
  532loPI   GL2 8502  10.210   5.526   9.081  0.1527  0.1653 -0.2395
  532loPI   C1A 8503  10.149   5.054   8.902  0.0010  0.0740  0.0903
  532loPI   C2A 8504  10.235   4.972   8.470  0.0757 -0.2083 -0.4982
  532loPI   C3A 8505  10.268   4.864   8.079  0.1119 -0.0336 -0.1752
  532loPI   C4A 8506  10.276   4.888   7.666  0.0665  0.2119 -0.2070
  532loPI   C5A 8507  10.572   4.887   7.319  0.2130 -0.1317  0.0104
  532loPI   C6A 8508  10.649   4.925   6.894  0.0328 -0.3054  0.0559
  532loPI   C1B 8509  10.100   5.484   8.632  0.0005 -0.0641 -0.1389
  532loPI   C2B 8510  10.093   5.737   8.156 -0.1994  0.0818 -0.1131
  532loPI   C3B 8511  10.024   5.699   7.639 -0.0369 -0.1415 -0.0767
  532loPI   C4B 8512   9.625   5.678   7.370  0.3016  0.0432 -0.0547
  533loPI    C1 8513   8.017   3.445   9.484  0.0034  0.3650 -0.2761
  533loPI    C2 8514   7.677   3.442   9.273 -0.0925  0.4564 -0.1245
  533loPI    C3 8515   7.740   3.726   9.548 -0.0709  0.2058  0.1350
  533loPI   PO4 8516   8.157   3.240   9.353 -0.2338  0.1050 -0.0692
  533loPI   GL1 8517   8.308   3.505   9.058 -0.1515 -0.2230  0.1916
  533loPI   GL2 8518   8.054   3.626   9.040  0.0011 -0.1444  0.2409
  533loPI   C1A 8519   8.406   3.138   8.821 -0.2025  0.4264 -0.3667
  533loPI   C2A 8520   8.490   3.233   8.371 -0.1196 -0.0877 -0.2820
  533loPI   C3A 8521   8.502   3.361   7.865  0.3561  0.3603  0.1924
  533loPI   C4A 8522   8.326   3.537   7.504  0.2660  0.0063 -0.2953
  533loPI   C5A 8523   8.345   3.992   7.284 -0.2427 -0.2898  0.0915
  533loPI   C6A 8524   8.505   4.389   7.362  0.2923 -0.1271  0.4855
  533loPI   C1B 8525   8.089   3.726   8.594 -0.1440  0.1022 -0.3434
  533loPI   C2B 8526   8.045   3.536   8.258 -0.2027 -0.2041  0.2523
  533loPI   C3B 8527   7.933   3.507   7.825  0.1228 -0.0056  0.0162
  533loPI   C4B 8528   7.893   3.664   7.399 -0.3683  0.1370 -0.0504
  534loPI    C1 8529  18.351  11.911   9.334 -0.1443 -0.2045 -0.0135
  534loPI    C2 8530  18.599  11.700   9.566 -0.3327 -0.1910  0.2037
  534loPI    C3 8531  18.223  11.768   9.685 -0.3671  0.0006 -0.0082
  534loPI   PO4 8532  18.336  11.746   9.122 -0.0218 -0.2156 -0.0863
  534loPI   GL1 8533  18.482  11.475   8.811 -0.2436  0.0230  0.1010
  534loPI   GL2 8534  18.600  11.065   8.892  0.1367  0.0676  0.3043
  534loPI   C1A 8535  18.420  11.611   8.457 -0.0608 -0.1788 -0.1024
  534loPI   C2A 8536  18.274  11.605   8.056 -0.0495  0.0935 -0.2036
  534loPI   C3A 8537  18.280  11.589   7.535 -0.2075 -0.1488 -0.0724
  534loPI   C4A 8538  18.577  11.545   7.152 -0.1625 -0.4326 -0.0633
  534loPI   C5A 8539  18.828  11.636   6.799  0.1380 -0.0299 -0.1253
  534loPI   C6A 8540  19.291  11.739   6.702 -0.2441  0.0110 -0.0683
  534loPI   C1B 8541  18.731  11.149   8.438  0.1483  0.0584  0.2011
  534loPI   C2B 8542  18.738  11.306   8.023  0.1052  0.0233  0.3431
  534loPI   C3B 8543  18.782  11.293   7.609 -0.0545  0.1759  0.0565
  534loPI   C4B 8544  18.418  11.162   7.342 -0.0288 -0.0106  0.0453
  535loPI    C1 8545   8.760   1.399  10.358 -0.2207 -0.2040 -0.1325
  535loPI    C2 8546   8.843   1.604  10.692 -0.0859  0.0523 -0.3199
  535loPI    C3 8547   8.490   1.420  10.652 -0.1089  0.0334 -0.0443
  535loPI   PO4 8548   8.831   1.549  10.168  0.2572 -0.0264 -0.0678
  535loPI   GL1 8549   8.991   1.528   9.746  0.0037 -0.2179  0.1468
  535loPI   GL2 8550   9.187   1.774   9.580 -0.2396  0.3312  0.1289
  535loPI   C1A 8551   8.871   1.244   9.446 -0.4265 -0.2370 -0.1932
  535loPI   C2A 8552   8.854   1.169   9.071  0.1302  0.0953  0.0209
  535loPI   C3A 8553   8.839   0.990   8.740  0.2417 -0.0474 -0.2803
  535loPI   C4A 8554   8.770   0.628   8.528  0.0856  0.0333  0.2136
  535loPI   C5A 8555   8.605   0.412   8.263 -0.1532  0.2010 -0.1317
  535loPI   C6A 8556   8.258   0.436   7.966 -0.1857  0.1817 -0.0976
  535loPI   C1B 8557   8.835   1.661   9.231  0.2366  0.2749 -0.0227
  535loPI   C2B 8558   8.649   1.628   8.787 -0.3621  0.1615 -0.4606
  535loPI   C3B 8559   8.493   1.448   8.402  0.0663 -0.2414  0.1051
  535loPI   C4B 8560   8.537   1.500   7.866 -0.1957 -0.1786  0.0691
  536loPI    C1 8561   1.936   3.309   9.517 -0.0928  0.1700 -0.0774
  536loPI    C2 8562   1.844   3.695   9.466 -0.1032  0.1994  0.1546
  536loPI    C3 8563   1.753   3.511   9.809  0.0000  0.0191  0.0869
  536loPI   PO4 8564   1.832   3.134   9.289 -0.2245  0.2255  0.2597
  536loPI   GL1 8565   1.788   2.848   8.962  0.0237 -0.3011  0.1791
  536loPI   GL2 8566   1.669   2.534   9.083  0.0973 -0.1803 -0.0027
  536loPI   C1A 8567   1.532   2.870   8.534 -0.0786  0.4333  0.0234
  536loPI   C2A 8568   1.806   3.191   8.253 -0.0950 -0.1656 -0.1150
  536loPI   C3A 8569   2.109   3.377   7.882  0.0127  0.1616  0.0980
  536loPI   C4A 8570   2.255   3.213   7.497  0.0068  0.1353 -0.1057
  536loPI   C5A 8571   2.193   2.791   7.371  0.0166 -0.0027  0.2426
  536loPI   C6A 8572   2.466   2.467   7.327  0.0255 -0.3255  0.1006
  536loPI   C1B 8573   1.742   2.236   8.630 -0.5842  0.0304 -0.1332
  536loPI   C2B 8574   1.724   2.156   8.152  0.1081  0.1162  0.1147
  536loPI   C3B 8575   1.732   2.172   7.669  0.0657  0.1892 -0.1182
  536loPI   C4B 8576   1.957   2.322   7.308 -0.0914  0.2177 -0.1952
  537loPI    C1 8577   8.662   8.404   9.625 -0.0958 -0.0357  0.1625
  537loPI    C2 8578   8.543   8.728   9.423  0.1292  0.1023  0.2473
  537loPI    C3 8579   8.624   8.755   9.814 -0.0486 -0.1040  0.3000
  537loPI   PO4 8580   8.940   8.321   9.503  0.0927  0.2670 -0.0688
  537loPI   GL1 8581   9.069   8.158   9.063 -0.0964 -0.1851  0.1233
  537loPI   GL2 8582   9.162   8.426   9.114 -0.3315  0.0729  0.2704
  537loPI   C1A 8583   8.888   8.174   8.643  0.0730  0.2693 -0.1725
  537loPI   C2A 8584   9.142   8.086   8.240  0.0666 -0.2257 -0.0803
  537loPI   C3A 8585   9.309   7.835   7.886  0.1165  0.2410 -0.0625
  537loPI   C4A 8586   9.409   7.867   7.500  0.1404 -0.1494 -0.0255
  537loPI   C5A 8587   9.687   8.048   7.150  0.0569 -0.2274  0.1799
  537loPI   C6A 8588  10.187   8.143   7.232 -0.2575 -0.2971 -0.0790
  537loPI   C1B 8589   9.043   8.602   8.592  0.1381 -0.0336  0.0061
  537loPI   C2B 8590   9.087   8.678   8.147 -0.0048 -0.0385 -0.0404
  537loPI   C3B 8591   9.174   8.467   7.778  0.4328  0.3210  0.0793
  537loPI   C4B 8592   9.271   8.450   7.455  0.0752  0.0994  0.0652
  538loPI    C1 8593   0.886   9.089   9.593 -0.0967  0.2116 -0.1423
  538loPI    C2 8594   1.277   9.175   9.601 -0.0220 -0.1339  0.1989
  538loPI    C3 8595   1.016   9.410   9.793 -0.0025  0.1681 -0.1330
  538loPI   PO4 8596   0.865   8.990   9.336 -0.2043 -0.1149 -0.1588
  538loPI   GL1 8597   0.999   9.307   8.960 -0.0818  0.0257  0.1874
  538loPI   GL2 8598   1.265   9.163   9.081  0.2874 -0.1483 -0.1177
  538loPI   C1A 8599   0.877   9.113   8.614  0.0609 -0.2766  0.4418
  538loPI   C2A 8600   0.698   8.887   8.331  0.2634 -0.0024  0.0636
  538loPI   C3A 8601   0.729   8.641   7.959  0.1063  0.5234 -0.2825
  538loPI   C4A 8602   0.865   8.362   7.698 -0.1545 -0.3085  0.2577
  538loPI   C5A 8603   0.693   8.387   7.298 -0.0506 -0.0778 -0.3034
  538loPI   C6A 8604   0.405   8.719   7.266  0.4081  0.1914  0.0862
  538loPI   C1B 8605   1.379   9.169   8.681 -0.1214 -0.0737  0.0307
  538loPI   C2B 8606   1.622   9.380   8.428 -0.1047 -0.3704  0.1470
  538loPI   C3B 8607   1.797   9.379   8.073  0.1730 -0.1557 -0.2626
  538loPI   C4B 8608   2.076   9.264   7.668 -0.0650 -0.1195 -0.1050
  539loPI    C1 8609   2.572  18.665  10.015 -0.0391  0.2929  0.0771
  539loPI    C2 8610   2.659  18.299  10.149  0.1462  0.2289 -0.2091
  539loPI    C3 8611   2.279  18.424  10.141  0.0714  0.0066 -0.2007
  539loPI   PO4 8612   2.786  18.661   9.792 -0.1421  0.0957 -0.1000
  539loPI   GL1 8613   2.725  18.556   9.362  0.1489 -0.0961  0.0489
  539loPI   GL2 8614   2.407  18.622   9.198  0.0032  0.0644 -0.2094
  539loPI   C1A 8615   2.847  18.675   8.965 -0.2123 -0.1008 -0.0306
  539loPI   C2A 8616   2.821  18.972   8.477 -0.0537 -0.1950 -0.1450
  539loPI   C3A 8617   3.179  18.949   8.152 -0.0219 -0.2335  0.0365
  539loPI   C4A 8618   3.359  18.817   7.706 -0.0178 -0.4332  0.1846
  539loPI   C5A 8619   3.387  18.859   7.278  0.4379  0.2248 -0.0143
  539loPI   C6A 8620   3.323  18.888   6.838  0.0688  0.0147 -0.0810
  539loPI   C1B 8621   2.416  18.809   8.770  0.3614  0.2414  0.0106
  539loPI   C2B 8622   2.369  18.818   8.340  0.1672 -0.5540  0.2916
  539loPI   C3B 8623   2.557  18.943   7.965 -0.2022 -0.1526  0.1143
  539loPI   C4B 8624   2.874  19.158   7.682  0.1512 -0.1225 -0.0629
  540loPI    C1 8625   4.314   6.153   9.120 -0.1884  0.1472  0.0577
  540loPI    C2 8626   4.687   6.046   9.217 -0.1403 -0.1313 -0.4010
  540loPI    C3 8627   4.433   6.167   9.501  0.3438  0.2228 -0.1026
  540loPI   PO4 8628   4.189   5.888   8.962 -0.1970  0.0545  0.3992
  540loPI   GL1 8629   4.288   5.666   8.483 -0.1189 -0.0167 -0.2278
  540loPI   GL2 8630   4.193   5.749   8.252 -0.1670  0.4200  0.1405
  540loPI   C1A 8631   4.686   5.817   8.329  0.1603 -0.0061  0.2353
  540loPI   C2A 8632   4.766   5.796   7.838 -0.0825  0.3624 -0.1736
  540loPI   C3A 8633   4.861   5.784   7.472  0.0717  0.1631  0.2187
  540loPI   C4A 8634   4.776   5.557   7.053  0.2108 -0.1164  0.2682
  540loPI   C5A 8635   4.678   5.620   6.664 -0.1816 -0.2542 -0.1278
  540loPI   C6A 8636   4.809   5.849   6.305  0.1824 -0.0102 -0.1404
  540loPI   C1B 8637   3.846   5.753   7.884  0.2860  0.2084  0.3286
  540loPI   C2B 8638   3.416   5.914   7.700  0.0447  0.1905  0.0892
  540loPI   C3B 8639   3.086   6.092   7.457 -0.1695 -0.0502  0.2392
  540loPI   C4B 8640   2.885   6.016   7.126  0.0833  0.0669  0.0952
  541POPI    C1 8641   4.647  18.719   9.924 -0.1191 -0.0059 -0.0402
  541POPI    C2 8642   4.524  18.875  10.271  0.0022  0.0214 -0.0093
  541POPI    C3 8643   4.511  18.480  10.214  0.1213  0.0039  0.0825
  541POPI   PO4 8644   4.481  18.949   9.631  0.1532  0.1693 -0.2359
  541POPI   GL1 8645   4.234  18.966   9.252 -0.2310 -0.1363 -0.1556
  541POPI   GL2 8646   4.092  18.711   9.287 -0.3439 -0.1634 -0.0790
  541POPI   C1A 8647   4.423  18.716   8.828  0.1252  0.1450  0.1835
  541POPI   D2A 8648   4.377  18.576   8.496 -0.0129  0.0390  0.0627
  541POPI   C3A 8649   4.473  18.142   8.273  0.0533  0.0723  0.0760
  541POPI   C4A 8650   4.381  17.906   8.021  0.0864 -0.1958 -0.1260
  541POPI   C1B 8651   3.997  18.466   8.875 -0.0347  0.1729 -0.0104
  541POPI   C2B 8652   3.935  18.344   8.492 -0.1185  0.0164  0.1228
  541POPI   C3B 8653   3.962  18.174   8.250  0.2972 -0.1208  0.0361
  541POPI   C4B 8654   3.918  18.064   7.826 -0.1211  0.0704  0.3854
  542POPI    C1 8655   3.018  10.384   9.081 -0.1595  0.1351 -0.1990
  542POPI    C2 8656   2.733  10.362   9.361 -0.1050  0.0783 -0.1481
  542POPI    C3 8657   2.919  10.030   9.238  0.0583  0.1353 -0.0582
  542POPI   PO4 8658   3.112  10.662   9.248 -0.4448 -0.3121 -0.0672
  542POPI   GL1 8659   3.209  11.005   9.097  0.1523 -0.0142 -0.1486
  542POPI   GL2 8660   3.074  10.927   8.787  0.3522 -0.0114 -0.3542
  542POPI   C1A 8661   3.339  11.365   8.826 -0.1104  0.1016 -0.2300
  542POPI   D2A 8662   3.411  11.613   8.442 -0.3221  0.0262 -0.0506
  542POPI   C3A 8663   3.268  11.512   8.042  0.0567 -0.0966 -0.1253
  542POPI   C4A 8664   3.186  11.456   7.712 -0.2990 -0.0123  0.0673
  542POPI   C1B 8665   3.020  11.185   8.468 -0.2427  0.0116 -0.0474
  542POPI   C2B 8666   2.985  11.120   8.034 -0.1683 -0.2997  0.0267
  542POPI   C3B 8667   2.827  10.973   7.692  0.2377  0.2354 -0.0059
  542POPI   C4B 8668   2.867  10.990   7.271  0.0168  0.1036 -0.2060
  543POPI    C1 8669  14.006  16.789  10.841 -0.0149  0.1294  0.1984
  543POPI    C2 8670  14.220  16.452  10.861 -0.1743  0.0176  0.0587
  543POPI    C3 8671  13.824  16.440  10.914 -0.1764  0.1886  0.0861
  543POPI   PO4 8672  14.061  16.911  10.651  0.2977 -0.0242  0.1408
  543POPI   GL1 8673  14.198  16.858  10.198  0.0974  0.1462  0.1418
  543POPI   GL2 8674  14.223  17.053   9.878 -0.0114 -0.0538 -0.2149
  543POPI   C1A 8675  14.049  16.497   9.856 -0.1409  0.0368  0.2096
  543POPI   D2A 8676  13.770  16.272   9.608 -0.3079 -0.2114 -0.1131
  543POPI   C3A 8677  13.634  16.556   9.207 -0.0153  0.2266  0.4187
  543POPI   C4A 8678  13.340  16.674   8.949  0.0586 -0.4287 -0.0660
  543POPI   C1B 8679  14.034  16.816   9.494 -0.0777 -0.0855  0.0721
  543POPI   C2B 8680  13.997  16.969   9.139 -0.1484  0.1128 -0.1201
  543POPI   C3B 8681  13.723  16.958   8.745 -0.1670 -0.3360 -0.1520
  543POPI   C4B 8682  13.660  16.833   8.372 -0.0430 -0.0744  0.1361
  544POPI    C1 8683  17.673   0.910  10.202 -0.1603 -0.0568 -0.2675
  544POPI    C2 8684  17.774   0.532  10.285 -0.2972 -0.0304  0.0332
  544POPI    C3 8685  17.392   0.625  10.213 -0.2625  0.0494 -0.0491
  544POPI   PO4 8686  17.823   0.995  10.041 -0.0425  0.0856 -0.1289
  544POPI   GL1 8687  17.973   1.060   9.669  0.2926 -0.1554 -0.0296
  544POPI   GL2 8688  18.095   0.871   9.427 -0.0909 -0.1008 -0.1988
  544POPI   C1A 8689  17.859   1.416   9.351 -0.0567  0.0380  0.1547
  544POPI   D2A 8690  17.534   1.462   9.033  0.1561  0.3143  0.6102
  544POPI   C3A 8691  17.066   1.693   8.955 -0.1233 -0.0574 -0.1070
  544POPI   C4A 8692  16.691   1.689   8.868  0.0337  0.0752  0.1561
  544POPI   C1B 8693  18.272   0.844   9.037  0.1380 -0.0476 -0.0144
  544POPI   C2B 8694  18.227   0.852   8.649  0.2698 -0.2856 -0.2419
  544POPI   C3B 8695  17.972   0.791   8.266  0.1201  0.1313 -0.1461
  544POPI   C4B 8696  18.026   0.777   7.868 -0.0440 -0.1889  0.1148
  545POPI    C1 8697   2.105  10.390   9.376  0.0802 -0.2702  0.2636
  545POPI    C2 8698   1.893  10.682   9.549  0.2168  0.0471 -0.0897
  545POPI    C3 8699   1.717  10.434   9.288  0.1371 -0.0909  0.0932
  545POPI   PO4 8700   2.325  10.663   9.355  0.4249  0.2157 -0.2849
  545POPI   GL1 8701   2.478  10.697   9.037 -0.0283  0.0010  0.1887
  545POPI   GL2 8702   2.134  10.671   8.846 -0.1394  0.1035 -0.2420
  545POPI   C1A 8703   2.599  10.892   8.641  0.3840 -0.5474 -0.0090
  545POPI   D2A 8704   2.600  10.849   8.278  0.1650 -0.0443 -0.0453
  545POPI   C3A 8705   2.431  11.059   8.080  0.0927  0.2265  0.2563
  545POPI   C4A 8706   2.384  11.152   7.720  0.2275  0.0802 -0.0793
  545POPI   C1B 8707   2.194  10.612   8.410 -0.2906  0.2070  0.0075
  545POPI   C2B 8708   2.153  10.666   7.956  0.0239  0.1132 -0.0468
  545POPI   C3B 8709   2.094  10.512   7.635  0.2159 -0.2511  0.0112
  545POPI   C4B 8710   2.314  10.167   7.393  0.2092  0.3788 -0.0070
  546POPI    C1 8711  17.942   5.633   9.481  0.3458  0.0901 -0.0347
  546POPI    C2 8712  17.789   6.001   9.450  0.0982 -0.0050  0.0335
  546POPI    C3 8713  17.670   5.760   9.746  0.1903 -0.1727 -0.0647
  546POPI   PO4 8714  17.913   5.445   9.265  0.1726 -0.0639 -0.1607
  546POPI   GL1 8715  17.887   5.476   8.803  0.2041 -0.0708 -0.0308
  546POPI   GL2 8716  17.948   5.165   8.880  0.2692 -0.4640 -0.2453
  546POPI   C1A 8717  18.006   5.409   8.391  0.1346  0.2476  0.1518
  546POPI   D2A 8718  18.107   5.634   7.939  0.1182  0.3474 -0.2031
  546POPI   C3A 8719  17.905   5.368   7.651  0.0729 -0.1507 -0.3065
  546POPI   C4A 8720  17.702   5.638   7.358  0.1639 -0.0534  0.0810
  546POPI   C1B 8721  17.655   5.083   8.543 -0.0112  0.0436 -0.0478
  546POPI   C2B 8722  17.386   4.928   8.389 -0.1024  0.2403 -0.1473
  546POPI   C3B 8723  17.067   5.176   8.075 -0.1263  0.0957 -0.0636
  546POPI   C4B 8724  16.889   5.289   7.770 -0.4536  0.0411 -0.0745
  547POPI    C1 8725   2.390   8.078   9.543  0.1927 -0.1780  0.1353
  547POPI    C2 8726   2.048   7.956   9.710  0.0153  0.0960 -0.0195
  547POPI    C3 8727   2.380   7.983   9.932 -0.1454  0.1661  0.2162
  547POPI   PO4 8728   2.296   8.202   9.283  0.0312  0.0634 -0.1782
  547POPI   GL1 8729   2.166   8.472   8.922  0.1643 -0.2296 -0.0845
  547POPI   GL2 8730   2.164   8.732   9.089  0.0066 -0.0468  0.1475
  547POPI   C1A 8731   2.054   8.526   8.462  0.3198 -0.0383  0.2769
  547POPI   D2A 8732   2.107   8.815   8.076  0.0598 -0.2057 -0.1278
  547POPI   C3A 8733   1.967   8.702   7.741  0.0231 -0.1035  0.1409
  547POPI   C4A 8734   1.832   8.794   7.212 -0.2551  0.0659 -0.3644
  547POPI   C1B 8735   2.146   9.077   8.784  0.0378  0.1916  0.0539
  547POPI   C2B 8736   2.222   9.207   8.422  0.0467  0.1693 -0.3212
  547POPI   C3B 8737   2.385   9.402   8.131 -0.2032  0.1694  0.0755
  547POPI   C4B 8738   2.714   9.310   7.733  0.0420  0.1008 -0.0434
  548POPI    C1 8739  13.929  17.351  10.449  0.0776  0.0990 -0.1997
  548POPI    C2 8740  13.732  17.101  10.207  0.2897 -0.2446 -0.0258
  548POPI    C3 8741  13.552  17.248  10.532  0.1126 -0.0418 -0.2126
  548POPI   PO4 8742  14.132  17.398  10.236  0.3130 -0.2337  0.1421
  548POPI   GL1 8743  14.377  17.654  10.032  0.0132  0.0228  0.2406
  548POPI   GL2 8744  14.669  17.662   9.956  0.0833 -0.0452 -0.3759
  548POPI   C1A 8745  14.421  17.515   9.561  0.0973 -0.0072  0.2090
  548POPI   D2A 8746  14.404  17.178   9.211  0.3098 -0.1831  0.2206
  548POPI   C3A 8747  14.562  17.462   8.944  0.1402  0.1045 -0.0658
  548POPI   C4A 8748  14.633  17.879   8.721  0.1020 -0.0881 -0.1444
  548POPI   C1B 8749  14.566  18.052   9.639 -0.1355  0.0707 -0.1923
  548POPI   C2B 8750  14.604  17.939   9.193  0.0482  0.2640 -0.3349
  548POPI   C3B 8751  15.020  17.806   9.005  0.0799  0.3784 -0.1270
  548POPI   C4B 8752  15.274  17.764   8.706 -0.2297 -0.0172  0.2077
  549POPI    C1 8753   5.477  14.081   9.946  0.0697  0.0208  0.0817
  549POPI    C2 8754   5.613  13.822  10.219  0.1369  0.0104  0.0386
  549POPI    C3 8755   5.426  14.155  10.336  0.0245 -0.0713  0.0935
  549POPI   PO4 8756   5.743  14.073   9.777  0.1708  0.0733  0.1689
  549POPI   GL1 8757   5.921  14.033   9.428  0.2526  0.3972  0.0604
  549POPI   GL2 8758   5.929  14.321   9.410  0.1057 -0.1366  0.0239
  549POPI   C1A 8759   6.140  14.070   9.023 -0.0235 -0.0587  0.1726
  549POPI   D2A 8760   6.222  14.046   8.633  0.0987  0.1724 -0.0221
  549POPI   C3A 8761   6.482  13.819   8.599 -0.0035  0.2495 -0.2950
  549POPI   C4A 8762   6.442  13.552   8.201  0.0730  0.1578  0.0865
  549POPI   C1B 8763   5.805  14.556   8.999  0.0127 -0.2344 -0.0095
  549POPI   C2B 8764   5.769  14.626   8.557  0.0316  0.0851  0.1612
  549POPI   C3B 8765   5.540  14.819   8.208 -0.3031 -0.2862  0.0020
  549POPI   C4B 8766   5.454  14.879   7.833  0.1418 -0.1200  0.2988
  550POPI    C1 8767   0.343  17.338   9.675  0.0991 -0.1203  0.0288
  550POPI    C2 8768   0.216  17.712   9.739 -0.0098 -0.1857  0.2011
  550POPI    C3 8769   0.485  17.547   9.985  0.2435 -0.1271 -0.0322
  550POPI   PO4 8770   0.221  17.306   9.358 -0.0515 -0.1421  0.2457
  550POPI   GL1 8771   0.070  17.364   9.068  0.1051  0.5382  0.1423
  550POPI   GL2 8772   0.485  17.341   8.939  0.3145 -0.3386 -0.3609
  550POPI   C1A 8773   0.024  17.518   8.675 -0.0406  0.1531  0.0980
  550POPI   D2A 8774  -0.206  17.676   8.311 -0.0072 -0.0646  0.1571
  550POPI   C3A 8775  -0.524  17.602   8.104 -0.0431 -0.3188  0.1627
  550POPI   C4A 8776  -0.702  17.569   7.703 -0.0842 -0.3884  0.3087
  550POPI   C1B 8777   0.490  17.410   8.532 -0.1007  0.2233  0.0071
  550POPI   C2B 8778   0.560  17.453   8.121  0.1959 -0.3499  0.2052
  550POPI   C3B 8779   0.411  17.488   7.654 -0.0040 -0.0655  0.2842
  550POPI   C4B 8780   0.661  17.845   7.486  0.2466  0.0095  0.0618
  551POPI    C1 8781   0.754   7.334   9.257  0.0940 -0.0729  0.2932
  551POPI    C2 8782   0.488   7.449   9.533 -0.0329  0.0367  0.1269
  551POPI    C3 8783   0.871   7.396   9.634 -0.1163 -0.1199  0.3674
  551POPI   PO4 8784   0.643   7.383   9.079  0.1188 -0.0217  0.0149
  551POPI   GL1 8785   0.390   7.249   8.689  0.0598 -0.0625 -0.0749
  551POPI   GL2 8786   0.294   7.648   8.725 -0.2998 -0.1065  0.2154
  551POPI   C1A 8787   0.532   7.331   8.228  0.0329  0.0188  0.0655
  551POPI   D2A 8788   0.415   7.309   7.830  0.1087  0.0455  0.2249
  551POPI   C3A 8789   0.088   7.541   7.703  0.2338  0.1824 -0.0848
  551POPI   C4A 8790  -0.316   7.710   7.508  0.2124 -0.2732 -0.0311
  551POPI   C1B 8791   0.228   7.797   8.269  0.0853  0.1126  0.1938
  551POPI   C2B 8792  -0.018   8.002   7.927  0.1743 -0.3580  0.1603
  551POPI   C3B 8793  -0.108   8.182   7.519 -0.1323 -0.0272 -0.1256
  551POPI   C4B 8794  -0.387   8.088   7.164  0.1303  0.1823 -0.1106
  552POPI    C1 8795   3.377   8.116   9.457  0.2277  0.1237  0.1690
  552POPI    C2 8796   3.656   8.391   9.539  0.0123  0.3946  0.0121
  552POPI    C3 8797   3.284   8.435   9.681 -0.0476  0.2318 -0.0918
  552POPI   PO4 8798   3.279   8.140   9.205 -0.2225  0.0390  0.2591
  552POPI   GL1 8799   3.401   8.332   8.764  0.2115 -0.2082  0.2232
  552POPI   GL2 8800   3.615   8.125   8.480  0.0693  0.2362 -0.0439
  552POPI   C1A 8801   3.540   8.641   8.500  0.0162 -0.0591 -0.1118
  552POPI   D2A 8802   3.480   8.885   8.075 -0.0152  0.2662  0.1269
  552POPI   C3A 8803   3.582   9.075   7.708  0.1027 -0.0405 -0.2316
  552POPI   C4A 8804   3.836   9.030   7.244 -0.1515  0.0035  0.2427
  552POPI   C1B 8805   3.584   7.988   7.998  0.0033 -0.0988 -0.5340
  552POPI   C2B 8806   3.541   8.134   7.595 -0.1462  0.2305 -0.1581
  552POPI   C3B 8807   3.245   8.133   7.298  0.0508  0.1511 -0.2480
  552POPI   C4B 8808   3.229   8.086   6.880  0.0432  0.3143  0.0556
  553POPI    C1 8809   8.059   0.751  10.524  0.2008  0.0278  0.1076
  553POPI    C2 8810   8.245   0.980  10.254  0.2022  0.1896  0.2439
  553POPI    C3 8811   8.043   1.149  10.555 -0.2667  0.0204  0.0352
  553POPI   PO4 8812   8.030   0.521  10.309 -0.1304 -0.3365 -0.1606
  553POPI   GL1 8813   7.905   0.503   9.971 -0.0666 -0.0042 -0.3045
  553POPI   GL2 8814   7.765   0.687   9.760 -0.3496  0.1126  0.0945
  553POPI   C1A 8815   8.183   0.312   9.596 -0.6002  0.1604  0.2798
  553POPI   D2A 8816   8.203  -0.011   9.406  0.3409 -0.3208  0.0587
  553POPI   C3A 8817   8.087   0.018   9.024  0.1646  0.2655  0.2552
  553POPI   C4A 8818   7.968  -0.126   8.717  0.0023 -0.1612  0.1276
  553POPI   C1B 8819   7.660   0.483   9.423 -0.1964 -0.1583 -0.0622
  553POPI   C2B 8820   7.724   0.399   8.988  0.1459 -0.2176 -0.1119
  553POPI   C3B 8821   7.705   0.463   8.558  0.1595 -0.2327  0.3756
  553POPI   C4B 8822   7.577   0.438   8.222 -0.2194 -0.0508  0.0723
  554POPI    C1 8823   2.390   3.641   9.370 -0.0836  0.0832 -0.0310
  554POPI    C2 8824   2.663   3.631   9.662 -0.1131 -0.0430 -0.0076
  554POPI    C3 8825   2.273   3.605   9.751 -0.1355  0.1723 -0.0380
  554POPI   PO4 8826   2.535   3.585   9.195  0.2140 -0.0549  0.1632
  554POPI   GL1 8827   2.451   3.347   8.725 -0.1040  0.2619 -0.0901
  554POPI   GL2 8828   2.892   3.372   8.805 -0.2011  0.3718 -0.1495
  554POPI   C1A 8829   2.353   3.227   8.331  0.0582 -0.4082  0.0222
  554POPI   D2A 8830   2.238   2.948   7.999  0.1150  0.2621 -0.0993
  554POPI   C3A 8831   1.870   2.911   7.828 -0.0143  0.1260  0.0590
  554POPI   C4A 8832   1.782   3.096   7.416 -0.0642  0.0994 -0.3925
  554POPI   C1B 8833   2.874   3.253   8.411 -0.2460  0.0985 -0.0447
  554POPI   C2B 8834   2.714   3.248   7.981  0.0643 -0.0712  0.0191
  554POPI   C3B 8835   2.720   3.348   7.639 -0.3057 -0.1600  0.0761
  554POPI   C4B 8836   2.651   3.485   7.203 -0.1785 -0.3420 -0.1295
  555POPI    C1 8837  12.002   7.750   9.637 -0.0890 -0.2684  0.0087
  555POPI    C2 8838  11.887   7.965   9.954  0.1748 -0.0651 -0.0297
  555POPI    C3 8839  11.872   7.566   9.967 -0.1255 -0.0521  0.1171
  555POPI   PO4 8840  11.924   7.810   9.376  0.0438 -0.4354 -0.1640
  555POPI   GL1 8841  11.888   8.097   9.145 -0.1201  0.0523  0.5483
  555POPI   GL2 8842  11.772   7.954   8.771  0.1346  0.0158  0.2253
  555POPI   C1A 8843  11.803   8.561   9.059 -0.0327  0.1491  0.0470
  555POPI   D2A 8844  11.874   9.045   9.044  0.4497 -0.0135 -0.0537
  555POPI   C3A 8845  11.820   9.310   8.704 -0.0348  0.0739  0.1687
  555POPI   C4A 8846  11.712   9.051   8.354 -0.3783 -0.2918  0.0558
  555POPI   C1B 8847  11.747   8.155   8.412  0.1249  0.1619  0.0498
  555POPI   C2B 8848  11.698   8.175   8.021  0.1803 -0.5369 -0.1468
  555POPI   C3B 8849  11.864   8.369   7.593 -0.2615  0.3444  0.0291
  555POPI   C4B 8850  12.124   8.637   7.456  0.0350 -0.0312 -0.1029
  556POPI    C1 8851   5.594   6.817   9.388 -0.0332  0.0488  0.0888
  556POPI    C2 8852   5.590   6.443   9.529  0.2402  0.0710  0.1614
  556POPI    C3 8853   5.265   6.674   9.565  0.0796 -0.1486  0.1417
  556POPI   PO4 8854   5.687   6.764   9.190 -0.0833 -0.0175  0.0755
  556POPI   GL1 8855   5.896   7.128   8.905  0.0905  0.2127 -0.1710
  556POPI   GL2 8856   5.885   7.396   8.785  0.0046 -0.0292  0.1549
  556POPI   C1A 8857   6.107   6.869   8.695  0.2824  0.1202 -0.2120
  556POPI   D2A 8858   6.050   6.499   8.532 -0.1648  0.1454 -0.1671
  556POPI   C3A 8859   6.192   6.540   8.136  0.0737  0.1679  0.0632
  556POPI   C4A 8860   6.479   6.373   7.852 -0.0297 -0.5356 -0.2325
  556POPI   C1B 8861   5.868   7.652   8.402  0.1714 -0.1733  0.2661
  556POPI   C2B 8862   6.064   7.808   7.960  0.1677  0.2803  0.2878
  556POPI   C3B 8863   5.929   7.871   7.406  0.4127  0.0408 -0.4657
  556POPI   C4B 8864   6.083   7.553   7.047 -0.0963 -0.0800  0.1596
  557POPI    C1 8865   5.185  15.878  10.099  0.0040  0.0042 -0.0576
  557POPI    C2 8866   4.818  16.021  10.026 -0.0339 -0.0773 -0.0277
  557POPI    C3 8867   4.951  15.995  10.402 -0.0083 -0.0742 -0.0366
  557POPI   PO4 8868   5.293  16.031   9.924 -0.1974 -0.4216 -0.1063
  557POPI   GL1 8869   5.520  15.992   9.588 -0.0858 -0.1209 -0.2855
  557POPI   GL2 8870   5.757  15.902   9.591 -0.0250 -0.0883 -0.0129
  557POPI   C1A 8871   5.246  16.315   9.281  0.0137  0.0849  0.0581
  557POPI   D2A 8872   4.898  16.516   9.288  0.4504 -0.0439  0.3435
  557POPI   C3A 8873   4.699  16.114   9.097  0.4791 -0.2194 -0.1908
  557POPI   C4A 8874   4.718  15.777   8.824 -0.0463  0.1489 -0.1564
  557POPI   C1B 8875   6.088  15.980   9.388 -0.1000  0.3885  0.1445
  557POPI   C2B 8876   6.168  16.106   8.916  0.3417  0.1103 -0.0856
  557POPI   C3B 8877   6.063  16.211   8.536 -0.2912 -0.1173  0.2133
  557POPI   C4B 8878   6.150  16.001   8.214 -0.4353  0.4965  0.1563
  558POPI    C1 8879   7.962  18.501  10.374  0.2652 -0.0794 -0.1300
  558POPI    C2 8880   8.226  18.801  10.352  0.0932  0.0845 -0.0047
  558POPI    C3 8881   8.077  18.692  10.706 -0.0646  0.0436 -0.0828
  558POPI   PO4 8882   7.764  18.662  10.136 -0.0633  0.1103 -0.1404
  558POPI   GL1 8883   7.646  18.617   9.616 -0.0684 -0.0213 -0.0147
  558POPI   GL2 8884   7.725  18.382   9.397 -0.1370  0.1461 -0.1602
  558POPI   C1A 8885   7.321  18.857   9.420 -0.2881  0.5359  0.0745
  558POPI   D2A 8886   7.245  18.908   8.997 -0.2516  0.3144  0.4051
  558POPI   C3A 8887   7.528  18.933   8.598 -0.2804  0.0941 -0.0186
  558POPI   C4A 8888   7.945  18.782   8.324  0.2453 -0.1004 -0.3183
  558POPI   C1B 8889   7.508  18.453   9.011  0.1446  0.1210  0.0706
  558POPI   C2B 8890   7.284  18.044   8.775 -0.0785  0.0148  0.1178
  558POPI   C3B 8891   7.179  17.933   8.314 -0.3672 -0.0932  0.3891
  558POPI   C4B 8892   7.002  17.802   7.926 -0.1094  0.0831  0.1634
  559POPI    C1 8893  11.653  14.193  10.808  0.0915  0.1400 -0.0627
  559POPI    C2 8894  11.667  14.470  11.096 -0.1339 -0.0661  0.1505
  559POPI    C3 8895  11.831  14.110  11.157  0.3175  0.0719 -0.1917
  559POPI   PO4 8896  11.440  14.296  10.658 -0.1785 -0.2721  0.2116
  559POPI   GL1 8897  11.502  14.359  10.230 -0.0234 -0.0052  0.1408
  559POPI   GL2 8898  11.335  14.420   9.937 -0.0477 -0.0291  0.2718
  559POPI   C1A 8899  11.818  14.441  10.113 -0.0343  0.2294 -0.1742
  559POPI   D2A 8900  11.853  14.708   9.854  0.0058 -0.3503  0.2904
  559POPI   C3A 8901  11.971  14.558   9.457 -0.3694  0.2582  0.1097
  559POPI   C4A 8902  12.197  14.642   9.057  0.1698 -0.2563 -0.0200
  559POPI   C1B 8903  11.562  14.318   9.506  0.2950 -0.2921 -0.0963
  559POPI   C2B 8904  11.657  14.345   9.164  0.0139 -0.1466  0.1276
  559POPI   C3B 8905  11.555  14.371   8.819 -0.3669 -0.0486 -0.1246
  559POPI   C4B 8906  11.246  14.521   8.513  0.2820 -0.0346  0.1839
  560POPI    C1 8907   9.609  14.033  10.684 -0.0378  0.0628 -0.0080
  560POPI    C2 8908   9.594  13.874  11.051 -0.0414 -0.4077 -0.2043
  560POPI    C3 8909   9.922  14.068  10.931 -0.1443 -0.0055  0.1386
  560POPI   PO4 8910   9.581  13.823  10.532  0.0925 -0.0641 -0.0504
  560POPI   GL1 8911   9.853  13.746  10.012  0.2317 -0.2313 -0.0015
  560POPI   GL2 8912  10.150  13.742   9.746  0.1136  0.1543 -0.0810
  560POPI   C1A 8913   9.731  13.801   9.450 -0.1526 -0.1496  0.0732
  560POPI   D2A 8914   9.767  13.959   9.063 -0.3164  0.0073 -0.0268
  560POPI   C3A 8915   9.812  13.996   8.687 -0.2171 -0.0120  0.0134
  560POPI   C4A 8916   9.880  14.195   8.225  0.1398 -0.2939  0.0678
  560POPI   C1B 8917  10.212  13.958   9.328  0.3368  0.3376 -0.1438
  560POPI   C2B 8918  10.273  13.920   8.998 -0.0564 -0.0519  0.0821
  560POPI   C3B 8919  10.593  13.754   8.760  0.3527  0.4528  0.0990
  560POPI   C4B 8920  10.816  13.846   8.510 -0.1090 -0.0579  0.0346
  561POPI    C1 8921  18.301   2.270   9.998  0.0195 -0.1725  0.0165
  561POPI    C2 8922  18.560   1.984   9.889  0.1425 -0.0109 -0.1199
  561POPI    C3 8923  18.694   2.344  10.000 -0.0352  0.1863 -0.5221
  561POPI   PO4 8924  18.087   2.282   9.735 -0.2282  0.1342  0.1995
  561POPI   GL1 8925  18.307   2.453   9.420  0.0600 -0.0040  0.0628
  561POPI   GL2 8926  18.342   2.654   9.278 -0.3061  0.3040 -0.0704
  561POPI   C1A 8927  18.106   2.138   9.107 -0.0337 -0.0163  0.0883
  561POPI   D2A 8928  18.049   1.791   8.889 -0.1624  0.5533  0.0714
  561POPI   C3A 8929  18.067   1.811   8.448 -0.1733  0.0073  0.2562
  561POPI   C4A 8930  17.737   1.814   8.083  0.1716  0.1276  0.1326
  561POPI   C1B 8931  18.302   2.613   8.831 -0.2083  0.3293 -0.2819
  561POPI   C2B 8932  18.225   2.709   8.430  0.1276  0.0536 -0.0606
  561POPI   C3B 8933  18.212   2.964   8.170 -0.1614  0.0305 -0.1719
  561POPI   C4B 8934  17.886   3.110   8.012 -0.3842  0.0813  0.2732
  562POPI    C1 8935  15.403   3.667   9.968 -0.4747  0.0846 -0.3179
  562POPI    C2 8936  15.479   3.939  10.252  0.1146 -0.1586 -0.2267
  562POPI    C3 8937  15.226   3.638  10.325  0.0295 -0.0506 -0.0700
  562POPI   PO4 8938  15.678   3.613   9.903  0.1016 -0.0117 -0.0703
  562POPI   GL1 8939  15.781   3.524   9.503  0.0377 -0.0415 -0.0732
  562POPI   GL2 8940  16.096   3.702   9.685  0.2682 -0.1303 -0.4073
  562POPI   C1A 8941  15.879   3.184   9.223  0.2986 -0.0924 -0.1311
  562POPI   D2A 8942  15.592   2.809   9.161 -0.1071 -0.2118 -0.0996
  562POPI   C3A 8943  15.611   2.726   8.712 -0.2122  0.0371 -0.0731
  562POPI   C4A 8944  15.866   2.509   8.508 -0.2554  0.1966 -0.1242
  562POPI   C1B 8945  16.005   3.970   9.316  0.4043  0.2250 -0.1142
  562POPI   C2B 8946  16.267   3.956   8.930  0.4495 -0.0555 -0.3299
  562POPI   C3B 8947  16.183   4.150   8.547 -0.1779  0.1061  0.0552
  562POPI   C4B 8948  16.186   4.260   8.090  0.1517 -0.1279  0.0837
  563POPI    C1 8949  15.378  11.363   9.951 -0.0714  0.0837  0.0368
  563POPI    C2 8950  15.252  11.048  10.162 -0.0498  0.1326  0.1227
  563POPI    C3 8951  15.570  11.013   9.922  0.0412  0.1271  0.2432
  563POPI   PO4 8952  15.188  11.422   9.870 -0.1341 -0.3159  0.0612
  563POPI   GL1 8953  14.991  11.468   9.447 -0.2154 -0.1919 -0.0980
  563POPI   GL2 8954  14.736  11.678   9.392  0.1145 -0.2212  0.0975
  563POPI   C1A 8955  15.240  11.311   9.049  0.0461 -0.0816  0.4244
  563POPI   D2A 8956  15.415  11.071   8.789  0.0239  0.0762 -0.1164
  563POPI   C3A 8957  15.526  11.185   8.417 -0.0861 -0.1955 -0.0328
  563POPI   C4A 8958  15.683  11.189   8.031 -0.0949  0.1144  0.0598
  563POPI   C1B 8959  14.844  11.627   8.891  0.0413 -0.0324  0.2498
  563POPI   C2B 8960  14.844  11.532   8.522 -0.0071 -0.0590 -0.0354
  563POPI   C3B 8961  14.757  11.704   8.032 -0.3068  0.1024  0.0665
  563POPI   C4B 8962  14.942  11.732   7.680  0.2855  0.0393 -0.0603
  564POPI    C1 8963  18.907   5.984   9.143  0.0546 -0.1915 -0.2322
  564POPI    C2 8964  18.924   6.153   8.780 -0.2536  0.0701 -0.1290
  564POPI    C3 8965  18.979   6.376   9.107  0.3043 -0.2154 -0.0170
  564POPI   PO4 8966  18.729   5.827   9.070 -0.1768  0.4061  0.0261
  564POPI   GL1 8967  18.587   5.726   8.664 -0.2426  0.4414  0.2333
  564POPI   GL2 8968  18.829   5.652   8.488  0.0777 -0.2332 -0.1872
  564POPI   C1A 8969  18.559   5.547   8.126 -0.0006 -0.0083  0.0969
  564POPI   D2A 8970  18.487   5.498   7.699 -0.1305  0.0343  0.0233
  564POPI   C3A 8971  18.725   5.592   7.336  0.1198 -0.1753  0.1641
  564POPI   C4A 8972  18.726   5.343   6.919 -0.2444 -0.1223 -0.2805
  564POPI   C1B 8973  19.169   6.047   8.375 -0.1397  0.3479 -0.1406
  564POPI   C2B 8974  19.168   5.912   7.958  0.2334  0.2069 -0.1704
  564POPI   C3B 8975  19.026   5.506   7.662  0.1307 -0.2969  0.1654
  564POPI   C4B 8976  19.267   5.074   7.773  0.2650  0.3288 -0.0305
  565POPI    C1 8977   9.905  15.668  10.404 -0.1267 -0.1392 -0.3668
  565POPI    C2 8978   9.620  15.698  10.683  0.0620  0.3719 -0.2150
  565POPI    C3 8979   9.938  15.464  10.746 -0.0107  0.3019 -0.1054
  565POPI   PO4 8980   9.855  15.884  10.305  0.0685 -0.1811 -0.2845
  565POPI   GL1 8981   9.574  16.124  10.008 -0.3611  0.2559  0.0054
  565POPI   GL2 8982   9.495  15.776   9.883  0.2459 -0.1162 -0.0843
  565POPI   C1A 8983   9.673  16.180   9.510  0.0776  0.0723  0.0643
  565POPI   D2A 8984   9.636  16.203   9.051  0.3947 -0.1962 -0.3371
  565POPI   C3A 8985  10.036  16.510   9.021  0.1967  0.1422  0.0374
  565POPI   C4A 8986   9.900  16.900   8.829  0.0414  0.2098  0.1118
  565POPI   C1B 8987   9.801  15.706   9.497 -0.4025 -0.1456  0.1530
  565POPI   C2B 8988  10.151  15.517   9.207 -0.2635  0.0910  0.2676
  565POPI   C3B 8989  10.478  15.673   8.936 -0.1150 -0.1079 -0.2022
  565POPI   C4B 8990  10.804  15.613   8.667 -0.2064 -0.0389  0.3501
  566POPI    C1 8991  11.460   8.908   9.945 -0.0109  0.0712  0.1281
  566POPI    C2 8992  11.598   8.939  10.319 -0.2506  0.1293  0.2130
  566POPI    C3 8993  11.853   8.945  10.012 -0.0645  0.2321  0.3672
  566POPI   PO4 8994  11.216   8.804   9.925  0.1010  0.0085  0.0900
  566POPI   GL1 8995  11.091   8.926   9.478  0.3657 -0.0560 -0.0229
  566POPI   GL2 8996  11.265   9.166   9.481  0.1356  0.0803 -0.0269
  566POPI   C1A 8997  10.895   9.123   9.078 -0.0161 -0.0530 -0.4778
  566POPI   D2A 8998  10.578   9.002   8.902 -0.0909  0.0301 -0.0202
  566POPI   C3A 8999  10.593   8.806   8.375  0.0873  0.0037  0.0748
  566POPI   C4A 9000  10.481   8.840   7.955 -0.0262  0.0331 -0.0871
  566POPI   C1B 9001  11.385   8.979   9.117  0.2203  0.1216 -0.2044
  566POPI   C2B 9002  11.398   9.157   8.775  0.1449 -0.3130  0.1123
  566POPI   C3B 9003  11.187   9.111   8.255  0.0371 -0.2504  0.2268
  566POPI   C4B 9004  11.333   9.012   7.964  0.0984  0.1929 -0.1119
  567POPI    C1 9005   4.424  18.130   9.934 -0.1161 -0.0314 -0.0204
  567POPI    C2 9006   4.623  17.814  10.078  0.0406  0.0849  0.0203
  567POPI    C3 9007   4.824  18.123   9.922 -0.1158  0.1179 -0.1178
  567POPI   PO4 9008   4.289  18.045   9.796 -0.0546  0.0026  0.3900
  567POPI   GL1 9009   4.442  17.815   9.525 -0.1489  0.2630 -0.0331
  567POPI   GL2 9010   4.198  17.688   9.365 -0.1058  0.0668 -0.0683
  567POPI   C1A 9011   4.808  17.947   9.405 -0.0036 -0.1347  0.1956
  567POPI   D2A 9012   5.023  17.951   9.053  0.4989 -0.2717 -0.1284
  567POPI   C3A 9013   5.054  18.063   8.534  0.2144  0.1599 -0.3245
  567POPI   C4A 9014   4.832  18.397   8.503  0.2797 -0.2518  0.0499
  567POPI   C1B 9015   4.171  17.503   8.984 -0.1128  0.0740 -0.0560
  567POPI   C2B 9016   4.027  17.336   8.555 -0.1575  0.0772  0.3062
  567POPI   C3B 9017   3.701  17.231   8.175  0.0715 -0.1468  0.2679
  567POPI   C4B 9018   3.369  17.013   7.897  0.2070  0.1018 -0.3369
  568POPI    C1 9019  16.852   3.194   9.733 -0.0520  0.0405  0.1803
  568POPI    C2 9020  16.998   3.163  10.105  0.0484 -0.0534  0.1338
  568POPI    C3 9021  16.972   2.838   9.872  0.1695  0.0387 -0.0097
  568POPI   PO4 9022  16.968   3.412   9.635 -0.1645  0.2721  0.1351
  568POPI   GL1 9023  16.941   3.644   9.293 -0.0529 -0.2165  0.0318
  568POPI   GL2 9024  17.247   3.410   9.149 -0.1872 -0.3015  0.1738
  568POPI   C1A 9025  16.693   3.679   8.942 -0.1041 -0.0372  0.3024
  568POPI   D2A 9026  16.492   3.656   8.562  0.1768  0.0924  0.0351
  568POPI   C3A 9027  16.487   3.830   8.128 -0.3689  0.0622 -0.1572
  568POPI   C4A 9028  16.306   3.861   7.725  0.2139 -0.0216 -0.3148
  568POPI   C1B 9029  17.161   3.504   8.663 -0.0946  0.1363  0.0225
  568POPI   C2B 9030  17.099   3.460   8.301 -0.0996 -0.0202  0.0554
  568POPI   C3B 9031  16.824   3.395   8.123  0.2406 -0.1709 -0.1754
  568POPI   C4B 9032  16.707   3.068   7.830  0.2341 -0.1321  0.0744
  569POPI    C1 9033   2.855   2.872   9.304  0.2474  0.2782  0.0184
  569POPI    C2 9034   2.597   2.680   9.543  0.1779  0.0312 -0.2494
  569POPI    C3 9035   2.815   2.983   9.687 -0.1311  0.1282  0.0275
  569POPI   PO4 9036   2.676   2.917   8.987 -0.3215 -0.3076  0.2424
  569POPI   GL1 9037   2.576   2.832   8.596  0.3285 -0.0667 -0.0601
  569POPI   GL2 9038   2.786   2.571   8.616 -0.2566  0.0724  0.1251
  569POPI   C1A 9039   2.162   2.733   8.556 -0.0234  0.0874 -0.0876
  569POPI   D2A 9040   1.948   2.614   8.194  0.0153 -0.1931  0.0693
  569POPI   C3A 9041   2.078   2.490   7.877 -0.0907  0.0776  0.1804
  569POPI   C4A 9042   2.446   2.229   7.811  0.2176 -0.4138 -0.0989
  569POPI   C1B 9043   2.956   2.702   8.295  0.1194 -0.2120  0.3126
  569POPI   C2B 9044   3.142   2.674   7.880  0.1960 -0.3238  0.2936
  569POPI   C3B 9045   3.005   2.753   7.375  0.0949 -0.1024  0.1222
  569POPI   C4B 9046   2.760   2.893   7.151 -0.3157  0.1083 -0.0558
  570POPI    C1 9047  12.403   3.843  10.470 -0.4890 -0.1228 -0.1385
  570POPI    C2 9048  12.135   3.989  10.728 -0.0482  0.2927  0.0987
  570POPI    C3 9049  12.338   3.656  10.817 -0.1895  0.2071  0.1023
  570POPI   PO4 9050  12.296   3.889  10.178  0.3508  0.1106  0.2057
  570POPI   GL1 9051  12.436   4.268   9.854  0.3561  0.3169 -0.3476
  570POPI   GL2 9052  12.784   4.243   9.933  0.1264  0.0172 -0.0211
  570POPI   C1A 9053  12.468   4.067   9.487  0.0545 -0.1187 -0.0379
  570POPI   D2A 9054  12.688   3.666   9.533  0.2191 -0.2890  0.3193
  570POPI   C3A 9055  12.908   3.499   9.131  0.0144  0.1787 -0.1346
  570POPI   C4A 9056  12.634   3.302   8.756  0.1241  0.5528  0.1137
  570POPI   C1B 9057  12.778   4.459   9.553  0.2105 -0.1278  0.1131
  570POPI   C2B 9058  12.788   4.343   9.153  0.1242  0.1623 -0.1639
  570POPI   C3B 9059  12.654   4.309   8.733  0.0302 -0.0242  0.0744
  570POPI   C4B 9060  12.560   3.978   8.520  0.0964  0.1892  0.1814
  571POPI    C1 9061   5.453  15.426  10.227  0.1252 -0.0904 -0.1088
  571POPI    C2 9062   5.588  15.746  10.426  0.2126 -0.1571 -0.0600
  571POPI    C3 9063   5.226  15.596  10.509  0.2298 -0.1566  0.0161
  571POPI   PO4 9064   5.539  15.477   9.976  0.2342 -0.0479 -0.1178
  571POPI   GL1 9065   5.440  15.506   9.488  0.0244 -0.0526 -0.2898
  571POPI   GL2 9066   5.769  15.416   9.505 -0.2957  0.0043  0.1609
  571POPI   C1A 9067   5.693  15.552   9.040  0.0477  0.2743 -0.0635
  571POPI   D2A 9068   5.965  15.701   8.652 -0.0606 -0.2234 -0.1481
  571POPI   C3A 9069   5.873  15.554   8.230  0.0053  0.1040  0.1022
  571POPI   C4A 9070   5.755  15.290   7.881 -0.0826  0.0463 -0.1600
  571POPI   C1B 9071   5.822  15.089   9.123  0.5278  0.1710  0.1322
  571POPI   C2B 9072   6.077  15.124   8.791  0.0383 -0.1909  0.1808
  571POPI   C3B 9073   6.383  15.291   8.446 -0.0596 -0.0421 -0.0725
  571POPI   C4B 9074   6.462  15.519   8.109 -0.1054 -0.0762  0.0351
  572POPI    C1 9075   3.792  16.247  10.210  0.1703 -0.1586 -0.1547
  572POPI    C2 9076   3.741  16.342  10.595  0.2753 -0.3707 -0.0868
  572POPI    C3 9077   3.556  16.022  10.442  0.0361 -0.1457 -0.2773
  572POPI   PO4 9078   3.782  16.431   9.943  0.2094  0.0282 -0.0121
  572POPI   GL1 9079   3.951  16.418   9.582 -0.0844 -0.1124 -0.1325
  572POPI   GL2 9080   4.054  16.745   9.519 -0.0739 -0.0845  0.0033
  572POPI   C1A 9081   3.860  16.336   9.111  0.0165 -0.0234  0.0179
  572POPI   D2A 9082   3.917  16.317   8.634  0.3138 -0.2011  0.0193
  572POPI   C3A 9083   3.967  16.168   8.287  0.1264 -0.3057  0.1389
  572POPI   C4A 9084   4.007  15.692   7.974 -0.0629  0.0753 -0.2266
  572POPI   C1B 9085   4.327  16.425   9.242  0.4592  0.0314  0.1684
  572POPI   C2B 9086   4.550  16.565   8.943 -0.1711 -0.0260  0.2286
  572POPI   C3B 9087   4.778  16.843   8.793  0.1727  0.0628  0.0878
  572POPI   C4B 9088   4.922  17.036   8.481  0.0347 -0.0470  0.2126
  573POPI    C1 9089   6.266   4.264   9.508  0.0945 -0.1116  0.0890
  573POPI    C2 9090   6.080   4.505   9.768  0.0224  0.1464 -0.1963
  573POPI    C3 9091   6.447   4.596   9.638  0.1386 -0.0859 -0.0372
  573POPI   PO4 9092   6.086   4.167   9.312 -0.4154 -0.0291 -0.0849
  573POPI   GL1 9093   6.021   4.233   8.837  0.1321  0.1835  0.0282
  573POPI   GL2 9094   6.040   3.874   8.737 -0.0513  0.0474 -0.3516
  573POPI   C1A 9095   5.965   4.358   8.419  0.1096 -0.1720 -0.3004
  573POPI   D2A 9096   5.880   4.230   8.016  0.0265 -0.1595  0.0617
  573POPI   C3A 9097   5.718   4.574   7.758  0.0122  0.3319 -0.0337
  573POPI   C4A 9098   5.551   4.816   7.493  0.1457 -0.1861  0.1624
  573POPI   C1B 9099   6.042   3.792   8.296  0.0532 -0.2066  0.3868
  573POPI   C2B 9100   5.978   3.730   7.849  0.0682  0.1187 -0.1096
  573POPI   C3B 9101   6.000   3.700   7.354 -0.1000  0.2260  0.1129
  573POPI   C4B 9102   6.015   4.039   6.978  0.2148 -0.1194 -0.1306
  574DPPI    C1 9103   1.091  11.644   9.552  0.2440  0.2503 -0.0782
  574DPPI    C2 9104   1.024  11.718   9.939  0.2312  0.0066 -0.0318
  574DPPI    C3 9105   0.857  11.399   9.765  0.1961  0.1429 -0.2520
  574DPPI   PO4 9106   1.314  11.850   9.516  0.1206  0.1298 -0.0951
  574DPPI   GL1 9107   1.598  12.051   9.127 -0.2136 -0.1761  0.0750
  574DPPI   GL2 9108   1.324  11.985   9.041 -0.0923 -0.5359 -0.1167
  574DPPI   C1A 9109   1.635  11.918   8.647  0.1144 -0.1456 -0.1143
  574DPPI   C2A 9110   1.388  11.926   8.230 -0.2688 -0.1847  0.0894
  574DPPI   C3A 9111   1.289  11.854   7.768  0.0203  0.0394 -0.3220
  574DPPI   C4A 9112   1.272  11.955   7.352  0.2868  0.1062 -0.1835
  574DPPI   C1B 9113   1.009  12.074   8.596  0.2877  0.1899 -0.2413
  574DPPI   C2B 9114   0.775  11.975   8.225 -0.3184  0.2017  0.0322
  574DPPI   C3B 9115   0.820  11.657   7.770 -0.1144 -0.0625 -0.1367
  574DPPI   C4B 9116   1.089  11.559   7.449  0.0331 -0.0042  0.0557
  575DPPI    C1 9117   3.579  15.350   9.673  0.1121  0.1001 -0.0157
  575DPPI    C2 9118   3.442  15.435  10.039  0.0783 -0.0366  0.0040
  575DPPI    C3 9119   3.283  15.615   9.720 -0.2437 -0.2903  0.0153
  575DPPI   PO4 9120   3.833  15.387   9.609  0.0283  0.0923 -0.2422
  575DPPI   GL1 9121   4.005  15.326   9.276 -0.0565 -0.1651 -0.0207
  575DPPI   GL2 9122   4.282  15.498   9.274 -0.1566 -0.0129  0.1226
  575DPPI   C1A 9123   3.867  15.222   8.950 -0.2714  0.1440 -0.1524
  575DPPI   C2A 9124   3.832  15.182   8.593  0.0863  0.0946  0.0906
  575DPPI   C3A 9125   4.133  15.231   8.289  0.1531  0.0098  0.2014
  575DPPI   C4A 9126   4.337  15.307   7.820 -0.2980  0.4660  0.0788
  575DPPI   C1B 9127   4.309  15.387   8.802  0.0503  0.1941  0.0992
  575DPPI   C2B 9128   4.604  15.342   8.358  0.0648  0.1961 -0.0798
  575DPPI   C3B 9129   4.896  15.517   8.045 -0.0237 -0.3097 -0.1051
  575DPPI   C4B 9130   5.059  15.960   7.732  0.2855 -0.4164  0.2216
  576DPPI    C1 9131   2.498  12.870   9.360  0.1369  0.0851 -0.1571
  576DPPI    C2 9132   2.446  13.045   9.715 -0.1325  0.2753 -0.2875
  576DPPI    C3 9133   2.800  13.069   9.531  0.0510  0.0593  0.0267
  576DPPI   PO4 9134   2.267  12.940   9.231  0.2729 -0.0533 -0.1172
  576DPPI   GL1 9135   2.251  12.941   8.848 -0.1684 -0.3547 -0.2924
  576DPPI   GL2 9136   1.963  12.723   8.825 -0.1625  0.3392 -0.0429
  576DPPI   C1A 9137   2.265  12.901   8.375  0.1416  0.2480 -0.3467
  576DPPI   C2A 9138   2.179  12.862   7.974 -0.2545  0.4300 -0.2105
  576DPPI   C3A 9139   2.363  12.918   7.595 -0.0485  0.1376  0.3603
  576DPPI   C4A 9140   2.649  12.648   7.180 -0.3335 -0.1589  0.2322
  576DPPI   C1B 9141   2.016  12.253   8.648 -0.2622  0.0081  0.3786
  576DPPI   C2B 9142   1.941  11.985   8.235  0.1926 -0.0749  0.0920
  576DPPI   C3B 9143   1.912  12.080   7.807  0.0786 -0.0731  0.0546
  576DPPI   C4B 9144   1.899  11.973   7.286 -0.0583 -0.2039 -0.2498
  577DPPI    C1 9145   5.375   4.781   9.539 -0.1361  0.0985 -0.1803
  577DPPI    C2 9146   5.046   4.960   9.679 -0.2243 -0.1295 -0.0913
  577DPPI    C3 9147   5.354   4.887   9.924  0.0414  0.4028 -0.2508
  577DPPI   PO4 9148   5.245   4.696   9.296  0.0164  0.1131  0.3202
  577DPPI   GL1 9149   5.334   4.767   8.821  0.0501  0.3395  0.0958
  577DPPI   GL2 9150   5.596   4.617   8.768 -0.0362  0.1455  0.0547
  577DPPI   C1A 9151   5.153   4.643   8.430  0.0515 -0.1460 -0.0872
  577DPPI   C2A 9152   5.025   4.846   8.008  0.0375  0.2615 -0.1242
  577DPPI   C3A 9153   5.064   4.885   7.606  0.0905 -0.0241  0.3914
  577DPPI   C4A 9154   5.097   4.792   7.196  0.0409  0.1397 -0.1717
  577DPPI   C1B 9155   5.597   4.751   8.341 -0.6080  0.1517  0.4110
  577DPPI   C2B 9156   5.476   5.061   7.996  0.2869 -0.0566  0.1448
  577DPPI   C3B 9157   5.550   5.252   7.604 -0.1855  0.0472 -0.0681
  577DPPI   C4B 9158   5.739   5.286   7.170  0.0486  0.1470  0.3405
  578DPPI    C1 9159   6.239   8.301   9.107  0.1572 -0.0451 -0.1966
  578DPPI    C2 9160   6.229   7.973   9.336  0.1532  0.0203 -0.1026
  578DPPI    C3 9161   6.567   8.076   9.148  0.2372  0.1215  0.1014
  578DPPI   PO4 9162   5.939   8.378   9.078 -0.1225  0.0791 -0.0974
  578DPPI   GL1 9163   5.581   8.148   8.790 -0.0620 -0.0325  0.3064
  578DPPI   GL2 9164   5.318   8.174   8.637 -0.2445  0.1253  0.0614
  578DPPI   C1A 9165   5.651   8.518   8.445 -0.1837 -0.1034  0.2931
  578DPPI   C2A 9166   5.657   8.620   8.003 -0.2296  0.0561  0.1259
  578DPPI   C3A 9167   5.443   8.899   7.660 -0.4555  0.0088 -0.0357
  578DPPI   C4A 9168   5.377   8.962   7.266 -0.2122  0.0249  0.2582
  578DPPI   C1B 9169   5.133   8.410   8.211 -0.2783  0.2501  0.0713
  578DPPI   C2B 9170   5.244   8.461   7.848 -0.2272  0.1152 -0.2558
  578DPPI   C3B 9171   5.158   8.486   7.321  0.1122 -0.0535  0.0326
  578DPPI   C4B 9172   5.087   8.597   6.840  0.2799  0.1994 -0.0130
  579DPPI    C1 9173   7.247   9.740   9.431  0.0111  0.0615  0.1487
  579DPPI    C2 9174   7.048  10.037   9.611 -0.1012  0.0228  0.0895
  579DPPI    C3 9175   7.036   9.667   9.763  0.0927  0.0607  0.2006
  579DPPI   PO4 9176   7.183   9.736   9.160  0.1040 -0.0537  0.0869
  579DPPI   GL1 9177   7.126   9.373   8.996 -0.1352 -0.3574  0.2342
  579DPPI   GL2 9178   7.204   9.067   8.995  0.1914  0.0032 -0.0228
  579DPPI   C1A 9179   7.049   9.400   8.554 -0.3128 -0.0074  0.0005
  579DPPI   C2A 9180   6.906   9.177   8.209  0.3092 -0.0888 -0.2315
  579DPPI   C3A 9181   6.888   9.275   7.825  0.1384  0.4435 -0.0078
  579DPPI   C4A 9182   6.947   9.592   7.489  0.0334  0.2465  0.0666
  579DPPI   C1B 9183   6.972   8.908   8.656  0.0662  0.1066 -0.0254
  579DPPI   C2B 9184   6.649   8.679   8.554 -0.2823  0.1286 -0.0585
  579DPPI   C3B 9185   6.489   8.256   8.647 -0.0511  0.3053 -0.2111
  579DPPI   C4B 9186   6.382   7.850   8.335  0.4771  0.0188 -0.1675
  580DPPI    C1 9187   3.264  13.287   9.837 -0.0014 -0.1133 -0.1636
  580DPPI    C2 9188   3.082  13.520  10.106  0.0508 -0.1219 -0.1205
  580DPPI    C3 9189   2.904  13.185   9.978 -0.0147 -0.0698 -0.1662
  580DPPI   PO4 9190   3.485  13.271   9.783  0.2651  0.3718 -0.0985
  580DPPI   GL1 9191   3.682  13.443   9.390  0.2287 -0.4223 -0.0671
  580DPPI   GL2 9192   3.691  13.228   9.283  0.0003  0.0965 -0.0073
  580DPPI   C1A 9193   3.550  13.699   8.974 -0.0780  0.3769 -0.2060
  580DPPI   C2A 9194   3.522  13.548   8.480  0.0912 -0.0989 -0.1412
  580DPPI   C3A 9195   3.377  13.373   8.033 -0.1266  0.1816  0.2542
  580DPPI   C4A 9196   3.324  13.254   7.571 -0.0044 -0.0071  0.2334
  580DPPI   C1B 9197   3.890  13.259   8.822  0.1752  0.1117 -0.0523
  580DPPI   C2B 9198   3.980  13.382   8.496 -0.2724 -0.1130 -0.2708
  580DPPI   C3B 9199   3.980  13.421   8.051 -0.0570 -0.0889 -0.2323
  580DPPI   C4B 9200   3.726  13.503   7.642  0.3051  0.0953  0.0478
  581DPPI    C1 9201   3.118   2.928   8.773  0.2357  0.0350  0.1947
  581DPPI    C2 9202   3.362   3.078   8.493  0.0085  0.1784  0.0698
  581DPPI    C3 9203   3.334   3.255   8.851  0.1030  0.1483  0.0925
  581DPPI   PO4 9204   3.229   2.701   8.894  0.0798 -0.1046 -0.0900
  581DPPI   GL1 9205   3.485   2.557   8.675 -0.2912 -0.0677 -0.1991
  581DPPI   GL2 9206   3.765   2.520   8.640  0.0986 -0.2199  0.1052
  581DPPI   C1A 9207   3.555   2.754   8.238  0.0581 -0.0086 -0.2987
  581DPPI   C2A 9208   3.781   2.841   7.889 -0.0764  0.4117 -0.0716
  581DPPI   C3A 9209   3.536   2.714   7.475 -0.2056  0.3273  0.1049
  581DPPI   C4A 9210   3.491   2.617   7.039 -0.0480  0.0896 -0.0460
  581DPPI   C1B 9211   3.966   2.384   8.267  0.0634 -0.0372 -0.0686
  581DPPI   C2B 9212   3.913   1.992   7.967  0.0943  0.2853  0.0524
  581DPPI   C3B 9213   4.194   1.677   7.796 -0.1620 -0.0651 -0.0672
  581DPPI   C4B 9214   4.434   1.298   7.832 -0.4413  0.0541 -0.2594
  582DPPI    C1 9215   8.691  17.503  10.465  0.1320 -0.1141  0.1171
  582DPPI    C2 9216   8.501  17.839  10.569  0.1152 -0.1076  0.0650
  582DPPI    C3 9217   8.489  17.520  10.810 -0.0894 -0.1574 -0.0085
  582DPPI   PO4 9218   8.621  17.413  10.223  0.3112 -0.2199 -0.2137
  582DPPI   GL1 9219   8.565  17.531   9.806  0.0013  0.0398 -0.3032
  582DPPI   GL2 9220   8.649  17.787   9.522  0.0640 -0.2664  0.2590
  582DPPI   C1A 9221   8.449  17.242   9.505  0.0111  0.0270  0.1030
  582DPPI   C2A 9222   8.465  16.989   9.123  0.0595  0.0274 -0.1028
  582DPPI   C3A 9223   8.645  16.957   8.650  0.1549  0.1982 -0.1941
  582DPPI   C4A 9224   8.790  17.082   8.217 -0.0380 -0.3025  0.1398
  582DPPI   C1B 9225   8.730  17.898   9.113  0.0419  0.4590 -0.1170
  582DPPI   C2B 9226   8.635  17.720   8.656  0.1369  0.2890 -0.0443
  582DPPI   C3B 9227   8.397  17.981   8.315  0.1915 -0.1538 -0.1952
  582DPPI   C4B 9228   7.890  17.920   8.178  0.0801 -0.1306 -0.2264
  583DPPI    C1 9229   6.013   4.653   9.306  0.4171 -0.2753  0.5467
  583DPPI    C2 9230   6.195   4.961   9.483 -0.1162  0.1577  0.3706
  583DPPI    C3 9231   5.825   4.859   9.593 -0.0862 -0.1860  0.1662
  583DPPI   PO4 9232   6.106   4.735   8.948 -0.1707  0.0641 -0.2446
  583DPPI   GL1 9233   5.973   5.009   8.640  0.1190 -0.2778  0.0568
  583DPPI   GL2 9234   6.288   5.075   8.538 -0.3964 -0.0862 -0.1025
  583DPPI   C1A 9235   5.767   5.315   8.409 -0.0735 -0.0434 -0.1375
  583DPPI   C2A 9236   5.721   5.536   8.033  0.0738  0.1277 -0.2116
  583DPPI   C3A 9237   5.785   5.669   7.687 -0.0779  0.2396 -0.0717
  583DPPI   C4A 9238   5.877   5.821   7.268  0.2199 -0.1702 -0.3309
  583DPPI   C1B 9239   6.016   5.000   8.131 -0.1086  0.1629  0.0268
  583DPPI   C2B 9240   6.003   5.021   7.657  0.2670 -0.0890 -0.1524
  583DPPI   C3B 9241   6.238   5.288   7.353  0.1276 -0.1543  0.1615
  583DPPI   C4B 9242   6.277   5.597   7.079 -0.3828  0.2382 -0.1987
  584DPPI    C1 9243   0.028   2.780   9.645  0.1539 -0.3933 -0.0324
  584DPPI    C2 9244  -0.227   2.516   9.805 -0.0413 -0.0863  0.1752
  584DPPI    C3 9245  -0.051   2.790  10.037  0.0319  0.0719 -0.0631
  584DPPI   PO4 9246  -0.145   2.800   9.353  0.1907  0.2023  0.0375
  584DPPI   GL1 9247  -0.384   2.500   9.096 -0.2965 -0.0863 -0.0049
  584DPPI   GL2 9248  -0.547   2.764   9.040 -0.1410 -0.0466  0.1701
  584DPPI   C1A 9249  -0.527   2.426   8.623 -0.0774  0.0483 -0.0026
  584DPPI   C2A 9250  -0.402   2.128   8.340 -0.3735 -0.2610  0.5589
  584DPPI   C3A 9251  -0.394   1.646   8.192 -0.0873  0.0329  0.0680
  584DPPI   C4A 9252  -0.541   1.234   8.299  0.0076  0.0789 -0.1960
  584DPPI   C1B 9253  -0.344   2.882   8.699  0.0255 -0.1857 -0.1795
  584DPPI   C2B 9254  -0.075   2.598   8.487  0.1016  0.0120  0.1616
  584DPPI   C3B 9255   0.075   2.313   8.298  0.1565  0.0885 -0.1074
  584DPPI   C4B 9256   0.487   2.085   8.310  0.2071 -0.0745  0.1393
  585DPPI    C1 9257  13.290   8.148   9.659  0.2131  0.2911 -0.0142
  585DPPI    C2 9258  13.555   8.316   9.908 -0.0265  0.1954  0.3121
  585DPPI    C3 9259  13.279   8.064  10.050 -0.2094  0.1887 -0.0439
  585DPPI   PO4 9260  13.290   8.355   9.459 -0.1976 -0.2505  0.2026
  585DPPI   GL1 9261  13.490   8.359   9.110  0.1265 -0.2039 -0.0194
  585DPPI   GL2 9262  13.370   8.724   9.104 -0.0053 -0.2329  0.0603
  585DPPI   C1A 9263  13.320   8.234   8.751 -0.1313  0.1259  0.0559
  585DPPI   C2A 9264  12.936   8.350   8.397 -0.0448 -0.1315  0.0080
  585DPPI   C3A 9265  12.846   8.280   7.923  0.0853 -0.3283 -0.0301
  585DPPI   C4A 9266  12.758   8.163   7.553  0.0728  0.0714 -0.2794
  585DPPI   C1B 9267  13.279   8.700   8.665  0.3652 -0.1702  0.1746
  585DPPI   C2B 9268  13.373   8.617   8.179  0.0156  0.0587 -0.0422
  585DPPI   C3B 9269  13.324   8.270   7.745 -0.3217 -0.1789  0.2529
  585DPPI   C4B 9270  13.220   8.456   7.265  0.1241 -0.0961  0.2109
  586DPPI    C1 9271  17.269  16.599  10.026  0.0025  0.2282  0.2056
  586DPPI    C2 9272  17.022  16.602  10.341 -0.2484  0.6530  0.0139
  586DPPI    C3 9273  16.924  16.396  10.012  0.0802  0.0917  0.2538
  586DPPI   PO4 9274  17.313  16.856   9.997 -0.0096  0.3382 -0.3488
  586DPPI   GL1 9275  17.291  17.125   9.661  0.0353 -0.2009  0.2305
  586DPPI   GL2 9276  17.418  17.197   9.389  0.0663  0.0965  0.2293
  586DPPI   C1A 9277  16.966  16.905   9.297 -0.0221 -0.0206 -0.0815
  586DPPI   C2A 9278  17.091  16.990   8.923 -0.0442  0.2615 -0.2684
  586DPPI   C3A 9279  17.213  16.992   8.521  0.1285 -0.1806 -0.2160
  586DPPI   C4A 9280  17.128  17.131   8.118 -0.1504 -0.0672  0.1981
  586DPPI   C1B 9281  17.217  17.419   9.104 -0.3035  0.1639 -0.0296
  586DPPI   C2B 9282  16.900  17.513   8.710 -0.3797  0.0533  0.5582
  586DPPI   C3B 9283  16.904  17.545   8.223  0.0885 -0.1350 -0.1719
  586DPPI   C4B 9284  16.568  17.603   8.087 -0.1243 -0.0928 -0.0178
  587DPPI    C1 9285  12.657   6.591  10.254  0.0896 -0.0454 -0.0417
  587DPPI    C2 9286  12.534   6.333  10.534  0.1925 -0.1764 -0.1159
  587DPPI    C3 9287  12.571   6.721  10.623 -0.0329 -0.1742 -0.0240
  587DPPI   PO4 9288  12.489   6.520  10.034  0.1224  0.0141  0.0173
  587DPPI   GL1 9289  12.527   6.241   9.539  0.0487  0.0153  0.0140
  587DPPI   GL2 9290  12.220   6.199   9.394 -0.3354  0.3177 -0.1140
  587DPPI   C1A 9291  12.696   6.215   9.060 -0.0786  0.3816  0.5309
  587DPPI   C2A 9292  12.712   6.478   8.721 -0.1705  0.3842 -0.2076
  587DPPI   C3A 9293  12.749   6.374   8.356 -0.1161 -0.1974  0.2348
  587DPPI   C4A 9294  12.657   6.124   8.050 -0.1356  0.2434 -0.1653
  587DPPI   C1B 9295  12.251   6.113   8.909  0.3751  0.1269 -0.1251
  587DPPI   C2B 9296  12.343   6.102   8.488  0.0260 -0.0107  0.5359
  587DPPI   C3B 9297  12.266   5.855   8.206 -0.3406  0.6248  0.1444
  587DPPI   C4B 9298  12.509   5.747   7.810 -0.0131 -0.5982 -0.2536
  588DPPI    C1 9299  10.005  12.875  10.529 -0.2044  0.2589  0.0083
  588DPPI    C2 9300  10.350  13.047  10.636 -0.1009  0.0261  0.0565
  588DPPI    C3 9301  10.005  13.172  10.797 -0.0203  0.1383  0.1440
  588DPPI   PO4 9302  10.046  12.897  10.284  0.0369 -0.0654  0.2696
  588DPPI   GL1 9303  10.365  13.013   9.909  0.1929  0.1401 -0.0625
  588DPPI   GL2 9304  10.381  13.310   9.805 -0.0749 -0.3891  0.2770
  588DPPI   C1A 9305  10.201  12.792   9.455  0.1725  0.3349 -0.0571
  588DPPI   C2A 9306  10.185  12.773   8.941  0.0314 -0.0351  0.0498
  588DPPI   C3A 9307  10.108  12.760   8.433  0.0676 -0.4125 -0.1935
  588DPPI   C4A 9308  10.231  12.796   8.014 -0.0602  0.3301  0.1405
  588DPPI   C1B 9309  10.750  13.162   9.483  0.0214 -0.0324  0.6142
  588DPPI   C2B 9310  10.954  13.271   9.009  0.3954  0.0266 -0.0091
  588DPPI   C3B 9311  11.020  13.303   8.535 -0.1583  0.1254 -0.2690
  588DPPI   C4B 9312  11.192  13.373   8.076 -0.0201  0.2628  0.3122
  589DPPI    C1 9313   8.344  12.685  10.219  0.2249 -0.1461 -0.0347
  589DPPI    C2 9314   8.248  12.961  10.492 -0.0359 -0.1387 -0.1314
  589DPPI    C3 9315   8.276  12.576  10.598  0.0089 -0.1170 -0.0638
  589DPPI   PO4 9316   8.616  12.775  10.100  0.5390 -0.0763 -0.1725
  589DPPI   GL1 9317   8.715  12.715   9.686  0.0554 -0.0172 -0.1884
  589DPPI   GL2 9318   8.921  12.466   9.473 -0.1007  0.0350  0.2753
  589DPPI   C1A 9319   8.471  12.990   9.301  0.2099 -0.0085 -0.0038
  589DPPI   C2A 9320   8.317  13.126   8.847  0.2608 -0.2163  0.0427
  589DPPI   C3A 9321   8.268  13.133   8.479  0.4867  0.1723 -0.1932
  589DPPI   C4A 9322   8.240  13.106   7.972  0.0374  0.1162  0.0497
  589DPPI   C1B 9323   9.106  12.396   8.976  0.1272 -0.1540 -0.0669
  589DPPI   C2B 9324   8.999  12.537   8.544  0.0014 -0.1895  0.1597
  589DPPI   C3B 9325   9.164  12.795   8.227 -0.1458  0.0680  0.0975
  589DPPI   C4B 9326   9.212  12.681   7.883  0.3719 -0.0159  0.1623
  590DPPI    C1 9327   6.901   4.374   9.539 -0.2445 -0.0468 -0.0648
  590DPPI    C2 9328   7.059   4.275   9.893 -0.2245 -0.1526 -0.1028
  590DPPI    C3 9329   6.923   4.646   9.831  0.1820 -0.0036 -0.1302
  590DPPI   PO4 9330   6.707   4.090   9.401  0.1412  0.2440  0.2532
  590DPPI   GL1 9331   6.566   4.077   8.848 -0.4536 -0.3283 -0.1345
  590DPPI   GL2 9332   6.837   3.868   8.929  0.2943 -0.0944 -0.2076
  590DPPI   C1A 9333   6.494   4.054   8.409 -0.2377 -0.2100 -0.3384
  590DPPI   C2A 9334   6.425   3.987   8.021  0.2650 -0.1175  0.2939
  590DPPI   C3A 9335   6.485   3.997   7.602  0.0587 -0.1398  0.2299
  590DPPI   C4A 9336   6.445   4.013   7.171 -0.2212  0.0751 -0.0037
  590DPPI   C1B 9337   6.842   3.638   8.506 -0.1861  0.0124  0.0984
  590DPPI   C2B 9338   6.938   3.692   8.051  0.0825  0.1343 -0.2546
  590DPPI   C3B 9339   6.947   3.786   7.661 -0.0880  0.0348  0.1623
  590DPPI   C4B 9340   6.902   3.901   7.294  0.1942 -0.3525 -0.4774
  591DPPI    C1 9341   5.742   9.473   9.559  0.2006  0.0740 -0.1034
  591DPPI    C2 9342   5.869   9.163   9.778  0.0922 -0.0564 -0.2228
  591DPPI    C3 9343   5.848   9.528   9.941 -0.4495 -0.2347  0.1376
  591DPPI   PO4 9344   5.482   9.325   9.415 -0.0410 -0.3631 -0.2565
  591DPPI   GL1 9345   5.382   9.167   9.100  0.1170  0.0785  0.0233
  591DPPI   GL2 9346   5.032   9.055   8.912  0.0880 -0.0446 -0.0095
  591DPPI   C1A 9347   5.572   8.989   8.663 -0.1695 -0.0363 -0.2028
  591DPPI   C2A 9348   5.908   8.960   8.422  0.0032  0.0540 -0.1647
  591DPPI   C3A 9349   6.171   8.558   8.346 -0.0228 -0.1866 -0.2270
  591DPPI   C4A 9350   6.525   8.372   8.181 -0.3231 -0.3544 -0.1944
  591DPPI   C1B 9351   5.143   9.255   8.567  0.2138  0.6068 -0.0512
  591DPPI   C2B 9352   5.497   9.329   8.257  0.2195  0.3411  0.0195
  591DPPI   C3B 9353   5.721   9.232   7.946  0.2051 -0.0550  0.3028
  591DPPI   C4B 9354   6.022   8.949   7.911  0.0269  0.1461  0.4931
  592DPPI    C1 9355  14.298   4.443  10.044  0.2986  0.3974  0.4321
  592DPPI    C2 9356  14.473   4.087  10.091  0.1726  0.3012  0.1879
  592DPPI    C3 9357  14.297   4.266  10.402  0.1239  0.0899  0.2838
  592DPPI   PO4 9358  14.152   4.388   9.781 -0.2632  0.0920  0.2539
  592DPPI   GL1 9359  14.225   4.040   9.439 -0.1911  0.0305  0.0100
  592DPPI   GL2 9360  14.477   3.959   9.563 -0.2020  0.0975  0.0826
  592DPPI   C1A 9361  14.301   3.925   8.983 -0.2030  0.2312  0.2028
  592DPPI   C2A 9362  14.342   3.857   8.629  0.2600  0.0354 -0.4381
  592DPPI   C3A 9363  14.348   3.842   8.181  0.0420 -0.0647 -0.2029
  592DPPI   C4A 9364  14.482   3.491   7.897  0.2740 -0.0765  0.0985
  592DPPI   C1B 9365  14.545   3.625   9.311  0.0409  0.1017  0.1815
  592DPPI   C2B 9366  14.707   3.567   8.966  0.2974  0.0899 -0.3010
  592DPPI   C3B 9367  14.830   3.503   8.563 -0.0865 -0.2359 -0.0588
  592DPPI   C4B 9368  14.907   3.313   8.163 -0.1051 -0.1446  0.1448
  593DPPI    C1 9369  15.628  18.834  10.859  0.0868 -0.0925  0.0371
  593DPPI    C2 9370  15.420  18.539  11.033 -0.0521  0.1175  0.2331
  593DPPI    C3 9371  15.781  18.639  11.173  0.1101 -0.1298  0.0029
  593DPPI   PO4 9372  15.379  18.966  10.724 -0.0092 -0.3345  0.0027
  593DPPI   GL1 9373  15.234  18.903  10.206  0.2026  0.0914  0.0096
  593DPPI   GL2 9374  15.265  18.677  10.019 -0.1022 -0.0085  0.3035
  593DPPI   C1A 9375  15.027  19.108   9.894  0.0171 -0.7246  0.0210
  593DPPI   C2A 9376  15.100  19.463   9.669  0.2595  0.1573  0.2412
  593DPPI   C3A 9377  15.393  19.752   9.393 -0.0204  0.2107  0.2960
  593DPPI   C4A 9378  15.575  19.904   9.126 -0.0702  0.0317 -0.1668
  593DPPI   C1B 9379  15.276  18.588   9.660 -0.0447 -0.0674  0.0899
  593DPPI   C2B 9380  14.988  18.308   9.441 -0.1430  0.2552  0.2117
  593DPPI   C3B 9381  14.897  18.264   8.989  0.2059 -0.1022  0.0595
  593DPPI   C4B 9382  15.028  18.196   8.561  0.4313 -0.1810 -0.0657
  594PYPI    C1 9383   6.396  12.353  10.044 -0.2128  0.2173 -0.0023
  594PYPI    C2 9384   6.009  12.453  10.057 -0.3079 -0.1523  0.1540
  594PYPI    C3 9385   6.241  12.507  10.379 -0.2361  0.0333  0.0728
  594PYPI   PO4 9386   6.428  12.484   9.707  0.1326  0.1098  0.5618
  594PYPI   GL1 9387   6.550  12.520   9.327  0.1402 -0.2621 -0.0437
  594PYPI   GL2 9388   6.138  12.523   9.197  0.1272  0.2010 -0.2342
  594PYPI   C1A 9389   6.569  12.447   8.894  0.1383  0.2141  0.0535
  594PYPI   C2A 9390   6.710  12.172   8.582  0.0722 -0.2511 -0.2237
  594PYPI   D3A 9391   6.586  12.068   8.151  0.1655 -0.0719  0.3515
  594PYPI   C4A 9392   6.202  12.055   7.854  0.2682  0.0098 -0.1722
  594PYPI   C1B 9393   6.373  12.856   8.826  0.1034  0.0449 -0.1741
  594PYPI   C2B 9394   6.717  13.017   8.617 -0.1984 -0.2494  0.2356
  594PYPI   C3B 9395   6.909  13.188   8.175  0.1334 -0.2547  0.1374
  594PYPI   C4B 9396   6.964  13.248   7.715  0.3148 -0.1050 -0.2605
  595PYPI    C1 9397   0.621  11.534   9.248  0.2928  0.0769  0.1792
  595PYPI    C2 9398   0.486  11.204   9.429 -0.1649 -0.0076 -0.2918
  595PYPI    C3 9399   0.298  11.553   9.482  0.0248  0.0795 -0.1819
  595PYPI   PO4 9400   0.804  11.411   9.149  0.1143  0.0019 -0.2860
  595PYPI   GL1 9401   0.984  11.605   8.852 -0.1820  0.1210  0.0757
  595PYPI   GL2 9402   0.615  11.801   8.815 -0.0452 -0.2622  0.1401
  595PYPI   C1A 9403   0.999  11.585   8.452 -0.0563  0.1424 -0.1527
  595PYPI   C2A 9404   0.809  11.349   8.223  0.1422 -0.0814 -0.1867
  595PYPI   D3A 9405   0.855  10.987   7.993  0.2667 -0.0454  0.0321
  595PYPI   C4A 9406   0.889  11.149   7.612  0.2367 -0.0840 -0.1909
  595PYPI   C1B 9407   0.432  11.630   8.458  0.2977 -0.1539  0.1095
  595PYPI   C2B 9408   0.392  11.759   7.927  0.4538 -0.2959  0.1795
  595PYPI   C3B 9409   0.163  11.851   7.573  0.0479 -0.0653  0.0173
  595PYPI   C4B 9410   0.175  11.890   7.200  0.0180 -0.1556 -0.1034
  596PYPI    C1 9411  12.383  12.890  10.239  0.1215  0.6325 -0.0102
  596PYPI    C2 9412  12.076  12.708  10.418  0.2498  0.1312 -0.2820
  596PYPI    C3 9413  12.166  13.086  10.512 -0.0792  0.0925  0.2314
  596PYPI   PO4 9414  12.381  12.873   9.928  0.1822 -0.1861  0.0159
  596PYPI   GL1 9415  12.198  12.978   9.504 -0.0985 -0.1237  0.1504
  596PYPI   GL2 9416  12.504  13.234   9.607  0.1321 -0.0828 -0.0027
  596PYPI   C1A 9417  12.229  13.041   9.090 -0.2682  0.0426 -0.1541
  596PYPI   C2A 9418  12.394  13.280   8.713 -0.1599  0.1123 -0.2101
  596PYPI   D3A 9419  12.467  13.180   8.285 -0.2243 -0.0413 -0.0967
  596PYPI   C4A 9420  12.691  13.516   8.020  0.1241 -0.1019  0.0807
  596PYPI   C1B 9421  12.688  13.192   9.150 -0.1892  0.0916 -0.0027
  596PYPI   C2B 9422  12.933  13.166   8.713 -0.0119  0.1880  0.1459
  596PYPI   C3B 9423  12.965  13.157   8.275  0.0884  0.0034  0.0451
  596PYPI   C4B 9424  12.783  13.091   7.822  0.0549 -0.0721 -0.1928
  597PYPI    C1 9425   5.131  13.729  10.000 -0.1105  0.0402 -0.0748
  597PYPI    C2 9426   4.921  13.406   9.893 -0.0558 -0.0735  0.1546
  597PYPI    C3 9427   4.774  13.658  10.166 -0.0589  0.0487  0.0409
  597PYPI   PO4 9428   5.157  13.768   9.727 -0.2013 -0.2835 -0.1885
  597PYPI   GL1 9429   5.263  13.836   9.300  0.1396 -0.3704 -0.0179
  597PYPI   GL2 9430   5.434  14.111   9.367 -0.0632 -0.1375 -0.2693
  597PYPI   C1A 9431   5.311  13.723   8.903 -0.0530  0.4095 -0.0840
  597PYPI   C2A 9432   5.572  13.638   8.549  0.0343 -0.1544  0.1051
  597PYPI   D3A 9433   5.626  13.712   8.079  0.3308 -0.1186 -0.1370
  597PYPI   C4A 9434   6.024  13.690   7.915 -0.1124 -0.0185 -0.3285
  597PYPI   C1B 9435   5.199  14.220   9.018  0.4417  0.0669  0.1208
  597PYPI   C2B 9436   5.277  14.118   8.617 -0.2273 -0.2301 -0.2635
  597PYPI   C3B 9437   5.214  14.070   8.276 -0.2263  0.1872  0.2029
  597PYPI   C4B 9438   5.166  14.003   7.898  0.0257 -0.2402  0.1156
  598PYPI    C1 9439  12.214  11.496  10.268 -0.1219  0.1283  0.1658
  598PYPI    C2 9440  12.238  11.108  10.359  0.1641  0.0189 -0.3363
  598PYPI    C3 9441  11.936  11.328  10.501  0.2287 -0.2802  0.3026
  598PYPI   PO4 9442  12.339  11.490  10.040 -0.1293  0.1338  0.0697
  598PYPI   GL1 9443  12.297  11.509   9.639 -0.3083 -0.0978 -0.0237
  598PYPI   GL2 9444  12.151  11.603   9.420  0.2208 -0.1197  0.0724
  598PYPI   C1A 9445  12.633  11.704   9.434 -0.0148 -0.2091  0.0743
  598PYPI   C2A 9446  12.818  11.830   9.033  0.0720 -0.1029  0.1455
  598PYPI   D3A 9447  13.055  12.185   8.828 -0.0347  0.1411 -0.0341
  598PYPI   C4A 9448  13.097  12.232   8.503  0.1565 -0.1970  0.0424
  598PYPI   C1B 9449  12.431  11.474   9.053  0.0200 -0.1113  0.0353
  598PYPI   C2B 9450  12.576  11.515   8.692 -0.2439  0.3043 -0.3983
  598PYPI   C3B 9451  12.806  11.702   8.361 -0.0472 -0.3098 -0.0894
  598PYPI   C4B 9452  13.042  11.873   7.963  0.2283  0.1637  0.4084
  599PYPI    C1 9453   8.792  10.693   9.729  0.1335 -0.0234 -0.1660
  599PYPI    C2 9454   9.094  10.859   9.931 -0.1301  0.0075  0.2151
  599PYPI    C3 9455   8.860  10.590  10.110 -0.2285 -0.1407 -0.1292
  599PYPI   PO4 9456   8.902  10.627   9.520  0.1886  0.2929  0.2449
  599PYPI   GL1 9457   9.136  10.861   9.169  0.0385 -0.0231 -0.1445
  599PYPI   GL2 9458   9.162  11.160   9.102 -0.2372 -0.0856 -0.0929
  599PYPI   C1A 9459   8.964  10.608   8.817 -0.0455  0.2360  0.2816
  599PYPI   C2A 9460   9.017  10.453   8.363 -0.1422  0.4262  0.1715
  599PYPI   D3A 9461   9.171  10.238   8.030  0.4101  0.1905  0.1186
  599PYPI   C4A 9462   8.973  10.321   7.680  0.2708 -0.0198  0.1872
  599PYPI   C1B 9463   9.212  11.097   8.732  0.0648 -0.0735  0.2185
  599PYPI   C2B 9464   9.389  10.871   8.427 -0.0500 -0.2612 -0.1666
  599PYPI   C3B 9465   9.467  10.749   7.930  0.0873  0.1503  0.0814
  599PYPI   C4B 9466   9.362  10.937   7.574 -0.0892 -0.3148  0.0902
  600PYPI    C1 9467  11.668  18.663  10.213 -0.0804  0.0344 -0.0022
  600PYPI    C2 9468  11.944  18.721  10.496 -0.2698 -0.1696  0.2293
  600PYPI    C3 9469  11.838  18.350  10.394 -0.3434 -0.0944  0.0272
  600PYPI   PO4 9470  11.755  18.801   9.949 -0.0990  0.3935 -0.3364
  600PYPI   GL1 9471  11.942  19.011   9.614 -0.0074 -0.2160 -0.0827
  600PYPI   GL2 9472  11.687  19.234   9.571  0.0139  0.4087  0.1175
  600PYPI   C1A 9473  12.114  19.115   9.150  0.0505 -0.1051  0.1004
  600PYPI   C2A 9474  12.294  18.871   8.719 -0.0869 -0.0375  0.0462
  600PYPI   D3A 9475  12.325  18.857   8.354  0.1093 -0.1923  0.1348
  600PYPI   C4A 9476  12.452  18.510   8.030  0.2269 -0.2327  0.0778
  600PYPI   C1B 9477  11.511  19.122   9.165  0.2801  0.2462  0.3163
  600PYPI   C2B 9478  11.711  19.030   8.826 -0.1787  0.0160 -0.1360
  600PYPI   C3B 9479  11.738  18.941   8.343  0.0096  0.0174  0.4204
  600PYPI   C4B 9480  11.935  18.665   8.046  0.2569  0.1270 -0.2162
  601PYPI    C1 9481  11.501   0.069  10.289  0.1346  0.2365  0.3638
  601PYPI    C2 9482  11.454  -0.307  10.415  0.1877  0.1636  0.1697
  601PYPI    C3 9483  11.143  -0.055  10.418  0.0036 -0.0492 -0.2390
  601PYPI   PO4 9484  11.709   0.057  10.098 -0.0887 -0.0472  0.1089
  601PYPI   GL1 9485  11.921   0.219   9.786 -0.5041 -0.0121 -0.1698
  601PYPI   GL2 9486  12.047   0.498   9.818  0.0319  0.1776  0.1041
  601PYPI   C1A 9487  11.859   0.272   9.320  0.2670  0.1451  0.0305
  601PYPI   C2A 9488  11.829   0.165   8.919  0.0907 -0.3401  0.1547
  601PYPI   D3A 9489  11.974  -0.058   8.521  0.0748 -0.0648  0.3261
  601PYPI   C4A 9490  11.860   0.130   8.186  0.3888  0.2043 -0.0109
  601PYPI   C1B 9491  12.406   0.641   9.565 -0.3688  0.0671 -0.1034
  601PYPI   C2B 9492  12.672   0.630   9.326 -0.1120  0.0482 -0.0382
  601PYPI   C3B 9493  12.989   0.745   8.957 -0.2066 -0.0809  0.0433
  601PYPI   C4B 9494  13.187   0.861   8.555  0.1119 -0.0902 -0.1207
  602PYPI    C1 9495  15.784   2.196  10.551 -0.0980 -0.0069 -0.2112
  602PYPI    C2 9496  16.050   2.324  10.821 -0.2037 -0.1008 -0.0608
  602PYPI    C3 9497  15.856   1.980  10.880 -0.2482 -0.1082 -0.2441
  602PYPI   PO4 9498  15.905   2.153  10.237 -0.0209  0.2169  0.1939
  602PYPI   GL1 9499  15.898   2.277   9.742  0.0964 -0.0670 -0.0341
  602PYPI   GL2 9500  16.026   2.132   9.757 -0.1748  0.0296  0.1241
  602PYPI   C1A 9501  15.617   2.385   9.387 -0.0241  0.3131 -0.1198
  602PYPI   C2A 9502  15.631   2.209   8.946 -0.1336  0.3448 -0.0119
  602PYPI   D3A 9503  15.658   1.980   8.667  0.2257  0.0070  0.1323
  602PYPI   C4A 9504  15.753   2.111   8.271  0.1599  0.0008 -0.0870
  602PYPI   C1B 9505  16.224   1.983   9.449 -0.2141 -0.0069  0.3266
  602PYPI   C2B 9506  16.214   2.004   8.943 -0.0716 -0.1691 -0.0937
  602PYPI   C3B 9507  16.162   2.088   8.555  0.1316  0.1900  0.2024
  602PYPI   C4B 9508  16.291   2.328   8.224  0.0620  0.3625 -0.1115
  603PYPI    C1 9509  15.543  15.547  10.542 -0.2126 -0.2396  0.1531
  603PYPI    C2 9510  15.601  15.910  10.700 -0.0778 -0.0801 -0.2491
  603PYPI    C3 9511  15.644  15.583  10.927  0.2871  0.1323 -0.0030
  603PYPI   PO4 9512  15.304  15.603  10.299  0.1956  0.1977  0.4568
  603PYPI   GL1 9513  15.144  15.511   9.990  0.0021 -0.2660 -0.5451
  603PYPI   GL2 9514  15.077  15.250   9.740 -0.1737  0.1168  0.1070
  603PYPI   C1A 9515  15.121  15.650   9.463  0.1523 -0.1836 -0.0208
  603PYPI   C2A 9516  14.996  15.851   9.096  0.2756 -0.2140  0.2793
  603PYPI   D3A 9517  14.610  16.218   9.074 -0.0913  0.1235 -0.1047
  603PYPI   C4A 9518  14.598  16.230   8.670  0.0827  0.1105 -0.0262
  603PYPI   C1B 9519  14.939  15.113   9.398 -0.4569 -0.1307  0.2571
  603PYPI   C2B 9520  14.797  15.054   8.965  0.2371  0.0349 -0.0018
  603PYPI   C3B 9521  14.659  15.000   8.652 -0.0419  0.1132 -0.1469
  603PYPI   C4B 9522  14.401  14.699   8.454 -0.0578  0.3124  0.1498
  604PYPI    C1 9523   8.037   5.842   9.337 -0.1718 -0.0063 -0.0994
  604PYPI    C2 9524   8.178   5.547   9.107  0.1158  0.2039 -0.1996
  604PYPI    C3 9525   7.988   5.461   9.448  0.1001 -0.0978 -0.2812
  604PYPI   PO4 9526   7.921   6.124   9.171 -0.1718 -0.2857  0.0752
  604PYPI   GL1 9527   7.872   6.350   8.845 -0.3175  0.0881  0.0121
  604PYPI   GL2 9528   7.660   6.159   8.696  0.0480  0.0273 -0.2287
  604PYPI   C1A 9529   8.025   6.617   8.470 -0.4500  0.2941  0.0315
  604PYPI   C2A 9530   8.441   6.747   8.261  0.2637 -0.1236 -0.3267
  604PYPI   D3A 9531   8.702   7.041   7.941 -0.2777  0.0401  0.0656
  604PYPI   C4A 9532   9.038   7.209   8.246 -0.1533 -0.4093 -0.4915
  604PYPI   C1B 9533   7.563   6.474   8.420  0.2463  0.1137  0.0525
  604PYPI   C2B 9534   7.479   6.543   8.004  0.0793  0.2876 -0.0461
  604PYPI   C3B 9535   7.776   6.743   7.779  0.3458 -0.0070 -0.1436
  604PYPI   C4B 9536   8.299   6.877   7.732  0.4170  0.0403  0.0301
  605PYPI    C1 9537   5.273   1.151   9.696 -0.1002  0.0027 -0.0833
  605PYPI    C2 9538   5.420   1.520   9.645 -0.1724  0.0692  0.1722
  605PYPI    C3 9539   5.348   1.383  10.013 -0.3880 -0.1058  0.0676
  605PYPI   PO4 9540   5.515   1.015   9.415  0.2921 -0.1820 -0.2867
  605PYPI   GL1 9541   5.541   1.295   9.097 -0.1246  0.0711 -0.2342
  605PYPI   GL2 9542   5.312   1.559   9.001 -0.0025 -0.3593  0.3292
  605PYPI   C1A 9543   5.810   1.113   8.845 -0.2170 -0.5997  0.1497
  605PYPI   C2A 9544   6.143   0.878   8.747  0.0608  0.1111  0.1459
  605PYPI   D3A 9545   6.428   0.800   8.459  0.0924  0.4005 -0.2420
  605PYPI   C4A 9546   6.396   1.109   8.182 -0.3607 -0.4025  0.0068
  605PYPI   C1B 9547   5.236   1.508   8.529 -0.1907 -0.0780  0.4585
  605PYPI   C2B 9548   5.267   1.505   8.227  0.0027  0.0328  0.1658
  605PYPI   C3B 9549   5.559   1.645   8.089  0.1138 -0.0504  0.0080
  605PYPI   C4B 9550   5.616   1.709   7.767 -0.0021  0.0171 -0.0870
  606PYPI    C1 9551   1.487   4.040   9.163  0.0458 -0.1219 -0.1459
  606PYPI    C2 9552   1.147   4.153   9.342  0.0960  0.0159 -0.1360
  606PYPI    C3 9553   1.421   3.945   9.546  0.1565  0.1791 -0.0490
  606PYPI   PO4 9554   1.453   4.202   8.906 -0.0874  0.2924 -0.2313
  606PYPI   GL1 9555   1.480   4.135   8.494  0.0359  0.1522 -0.2903
  606PYPI   GL2 9556   1.788   4.145   8.462  0.2824 -0.3099 -0.0256
  606PYPI   C1A 9557   1.151   4.276   8.259 -0.0187  0.0434 -0.2628
  606PYPI   C2A 9558   1.275   4.249   7.753 -0.1099 -0.0392  0.0042
  606PYPI   D3A 9559   1.224   3.901   7.425 -0.3289  0.0316  0.3385
  606PYPI   C4A 9560   1.180   3.941   7.058  0.0653  0.2187  0.1127
  606PYPI   C1B 9561   1.877   3.924   8.104  0.0349 -0.1213  0.4277
  606PYPI   C2B 9562   1.617   3.950   7.807  0.0165 -0.1244  0.1344
  606PYPI   C3B 9563   1.244   3.785   7.978  0.0625  0.0587  0.0545
  606PYPI   C4B 9564   1.003   3.707   8.390  0.0029 -0.0449 -0.0409
  607ERGO   ROH 9565   8.677   9.204   7.274 -0.1957  0.0616 -0.0184
  607ERGO    R1 9566   8.614   8.976   7.119 -0.1858 -0.0681  0.1630
  607ERGO    R2 9567   8.371   8.845   7.138 -0.3630  0.2084 -0.0522
  607ERGO    R3 9568   8.364   8.887   6.869  0.1088 -0.1070 -0.1238
  607ERGO    R4 9569   8.217   8.638   6.908 -0.2574  0.1199 -0.0421
  607ERGO    R5 9570   8.385   8.669   6.774 -0.0051 -0.2511  0.1748
  607ERGO    C1 9571   8.121   8.556   6.523  0.2470 -0.2278 -0.1033
  607ERGO    C2 9572   7.943   8.361   6.187 -0.1337 -0.2398  0.1637
  608ERGO   ROH 9573  18.026  13.850   8.884 -0.0269  0.2558  0.0246
  608ERGO    R1 9574  17.931  13.899   8.622 -0.1040  0.0714  0.0160
  608ERGO    R2 9575  18.057  13.800   8.397 -0.0386  0.0998  0.0367
  608ERGO    R3 9576  17.811  13.699   8.343  0.0439 -0.1471  0.1061
  608ERGO    R4 9577  17.905  13.810   8.087 -0.2885  0.3005  0.1637
  608ERGO    R5 9578  17.716  13.855   8.188 -0.2763 -0.0642  0.3727
  608ERGO    C1 9579  17.584  13.722   7.855 -0.3568  0.1855  0.3026
  608ERGO    C2 9580  17.533  13.725   7.500 -0.1361 -0.0252 -0.1117
  609ERGO   ROH 9581   6.566   4.547   8.658  0.0869  0.3091  0.1167
  609ERGO    R1 9582   6.516   4.673   8.409  0.0603  0.0892  0.0081
  609ERGO    R2 9583   6.601   4.567   8.169  0.0110 -0.1381  0.0889
  609ERGO    R3 9584   6.339   4.591   8.102  0.0032 -0.1725  0.1081
  609ERGO    R4 9585   6.468   4.484   7.861  0.0265 -0.0301  0.0530
  609ERGO    R5 9586   6.343   4.662   7.873 -0.0186 -0.0653  0.1393
  609ERGO    C1 9587   6.144   4.458   7.619  0.0282  0.0005  0.0498
  609ERGO    C2 9588   6.002   4.199   7.447  0.1996  0.1314 -0.1174
  610ERGO   ROH 9589  15.537   5.076   9.240  0.1743 -0.0008 -0.0837
  610ERGO    R1 9590  15.593   5.036   8.966  0.0642 -0.1803 -0.0803
  610ERGO    R2 9591  15.482   4.828   8.820 -0.1454 -0.1610  0.0523
  610ERGO    R3 9592  15.403   5.029   8.655 -0.0280 -0.1777 -0.0250
  610ERGO    R4 9593  15.384   4.786   8.492 -0.3986 -0.2699  0.1386
  610ERGO    R5 9594  15.493   4.968   8.441 -0.2257 -0.4169 -0.0463
  610ERGO    C1 9595  15.253   4.950   8.145 -0.4359 -0.3489  0.1163
  610ERGO    C2 9596  15.160   4.808   7.916  0.0990 -0.1249  0.1220
  611ERGO   ROH 9597   3.190  13.241   9.362 -0.4059  0.0045  0.0862
  611ERGO    R1 9598   3.176  13.307   9.087 -0.0029  0.0164  0.0628
  611ERGO    R2 9599   3.358  13.213   8.903  0.0566 -0.2815  0.2670
  611ERGO    R3 9600   3.134  13.127   8.774  0.0523  0.0638  0.0280
  611ERGO    R4 9601   3.350  13.096   8.577  0.2468 -0.3795  0.2955
  611ERGO    R5 9602   3.162  13.204   8.549  0.4599 -0.0570  0.0292
  611ERGO    C1 9603   3.136  12.948   8.267  0.3536 -0.1122  0.0877
  611ERGO    C2 9604   3.152  12.924   7.917  0.1676  0.2767  0.2665
  612ERGO   ROH 9605   9.867   2.854   9.367  0.0815 -0.0046 -0.1343
  612ERGO    R1 9606   9.823   2.821   9.089 -0.0028  0.2669 -0.1556
  612ERGO    R2 9607   9.782   3.034   8.919  0.2413  0.4549  0.0194
  612ERGO    R3 9608   9.989   2.924   8.782  0.0821  0.2985 -0.1010
  612ERGO    R4 9609   9.809   3.026   8.575 -0.1843  0.0398 -0.0145
  612ERGO    R5 9610   9.887   2.823   8.591 -0.1555  0.0569  0.1400
  612ERGO    C1 9611  10.020   2.917   8.246 -0.5817 -0.3488 -0.1473
  612ERGO    C2 9612  10.108   2.817   7.848 -0.0245  0.0423 -0.2746
  613ERGO   ROH 9613   5.994  10.397   9.013 -0.0707  0.2126  0.0119
  613ERGO    R1 9614   5.964  10.367   8.733 -0.0085  0.0028  0.0263
  613ERGO    R2 9615   5.946  10.582   8.561 -0.1634 -0.1239 -0.1185
  613ERGO    R3 9616   6.153  10.458   8.435 -0.0433 -0.0379 -0.0085
  613ERGO    R4 9617   6.051  10.652   8.239 -0.1505 -0.2166 -0.1346
  613ERGO    R5 9618   6.080  10.438   8.208  0.0170 -0.2146 -0.0141
  613ERGO    C1 9619   6.307  10.576   7.934 -0.0302 -0.1897 -0.0408
  613ERGO    C2 9620   6.340  10.543   7.646  0.2546  0.0519 -0.1222
  614ERGO   ROH 9621  11.499   9.104   7.155 -0.2244  0.0941  0.2442
  614ERGO    R1 9622  11.772   9.124   7.084 -0.2801  0.0319  0.0030
  614ERGO    R2 9623  11.935   9.328   7.176 -0.1710  0.0312 -0.1962
  614ERGO    R3 9624  12.091   9.122   7.260 -0.1246  0.0346 -0.2712
  614ERGO    R4 9625  12.242   9.363   7.330 -0.0854  0.0494 -0.3680
  614ERGO    R5 9626  12.315   9.194   7.213 -0.1482  0.0385 -0.4023
  614ERGO    C1 9627  12.568   9.191   7.498  0.0081  0.0631 -0.5384
  614ERGO    C2 9628  12.615   9.128   7.859  0.1676 -0.4229  0.2021
  615ERGO   ROH 9629  13.031  17.839  10.072 -0.1430 -0.0971 -0.0609
  615ERGO    R1 9630  12.956  17.923   9.812 -0.0323 -0.2502 -0.1433
  615ERGO    R2 9631  13.050  18.156   9.698 -0.2215 -0.1600 -0.1165
  615ERGO    R3 9632  13.125  17.989   9.497  0.1502 -0.1192 -0.0205
  615ERGO    R4 9633  13.070  18.244   9.364 -0.1344 -0.2330 -0.1315
  615ERGO    R5 9634  12.984  18.050   9.313  0.1752 -0.3763 -0.1308
  615ERGO    C1 9635  13.151  18.139   8.981  0.2653 -0.2372 -0.0501
  615ERGO    C2 9636  13.060  18.199   8.649 -0.2221  0.1952  0.0412
  616ERGO   ROH 9637   2.423  11.928   8.798 -0.0614 -0.2281  0.0136
  616ERGO    R1 9638   2.541  12.009   8.554 -0.0918 -0.2059  0.0063
  616ERGO    R2 9639   2.434  11.943   8.308 -0.1608 -0.1249  0.0140
  616ERGO    R3 9640   2.443  12.212   8.268 -0.0997 -0.1186  0.0704
  616ERGO    R4 9641   2.396  12.099   8.002 -0.4287 -0.0358  0.0901
  616ERGO    R5 9642   2.555  12.237   8.057 -0.3138 -0.1112 -0.0449
  616ERGO    C1 9643   2.382  12.442   7.786 -0.5274  0.0221  0.1874
  616ERGO    C2 9644   2.198  12.412   7.499 -0.1438 -0.3345 -0.1218
  617ERGO   ROH 9645   7.963   7.483   8.807  0.0281 -0.2821 -0.0892
  617ERGO    R1 9646   7.977   7.630   8.565  0.0379 -0.1929 -0.0355
  617ERGO    R2 9647   7.995   7.508   8.318  0.0977 -0.1018 -0.0780
  617ERGO    R3 9648   7.777   7.661   8.263  0.0778 -0.1225 -0.0547
  617ERGO    R4 9649   7.845   7.534   8.007  0.2063  0.0704 -0.1168
  617ERGO    R5 9650   7.819   7.747   8.043  0.1362  0.0388  0.0195
  617ERGO    C1 9651   7.554   7.692   7.775  0.2508  0.1511 -0.1177
  617ERGO    C2 9652   7.427   7.720   7.412 -0.1746  0.3002  0.2080
  618ERGO   ROH 9653  10.374   4.687   9.155 -0.1070  0.0128  0.0367
  618ERGO    R1 9654  10.401   4.498   8.946 -0.1040  0.0677 -0.0144
  618ERGO    R2 9655  10.375   4.566   8.679  0.0088  0.1611 -0.0070
  618ERGO    R3 9656  10.620   4.450   8.660 -0.0244  0.0838  0.0452
  618ERGO    R4 9657  10.513   4.441   8.388 -0.0002  0.0310  0.0446
  618ERGO    R5 9658  10.591   4.273   8.502 -0.0592  0.0461  0.0988
  618ERGO    C1 9659  10.824   4.260   8.200 -0.0367 -0.1174  0.1237
  618ERGO    C2 9660  11.060   4.175   8.003 -0.0209  0.1506 -0.1963
  619ERGO   ROH 9661   6.143   5.531   8.219 -0.1640  0.1736 -0.0844
  619ERGO    R1 9662   6.334   5.579   8.016 -0.0352  0.1231  0.0230
  619ERGO    R2 9663   6.263   5.619   7.751  0.1416 -0.0579 -0.0543
  619ERGO    R3 9664   6.408   5.846   7.780  0.0349  0.0100 -0.0829
  619ERGO    R4 9665   6.332   5.843   7.497  0.2263 -0.1698 -0.1311
  619ERGO    R5 9666   6.534   5.863   7.577  0.1626 -0.0522 -0.0084
  619ERGO    C1 9667   6.508   6.187   7.377  0.1755 -0.1712 -0.2026
  619ERGO    C2 9668   6.262   6.170   7.121 -0.0541  0.1744  0.1467
  620ERGO   ROH 9669   5.128  11.690   8.668  0.0009 -0.3995  0.0435
  620ERGO    R1 9670   5.029  11.591   8.422 -0.0645 -0.2428  0.0053
  620ERGO    R2 9671   4.763  11.614   8.349 -0.0653 -0.0978  0.0397
  620ERGO    R3 9672   4.867  11.731   8.127 -0.0356 -0.0348  0.0872
  620ERGO    R4 9673   4.585  11.686   8.061 -0.0271  0.0075  0.0425
  620ERGO    R5 9674   4.757  11.621   7.944 -0.0224  0.0337  0.0407
  620ERGO    C1 9675   4.579  11.838   7.686  0.0231  0.1280  0.0887
  620ERGO    C2 9676   4.446  12.135   7.468  0.0659 -0.2720 -0.0077
  621ERGO   ROH 9677  19.195   7.686   8.741 -0.1134  0.0909 -0.0949
  621ERGO    R1 9678  19.112   7.695   8.471 -0.1806  0.0574 -0.0751
  621ERGO    R2 9679  19.204   7.515   8.281 -0.0624  0.1673 -0.1197
  621ERGO    R3 9680  18.938   7.473   8.241 -0.0353 -0.0633 -0.0707
  621ERGO    R4 9681  19.055   7.470   7.972 -0.0891  0.1290 -0.1018
  621ERGO    R5 9682  18.888   7.593   8.040 -0.1892 -0.0425 -0.0234
  621ERGO    C1 9683  18.719   7.404   7.755 -0.0789 -0.1100 -0.0453
  621ERGO    C2 9684  18.600   7.474   7.458  0.1645  0.6226  0.1230
  622ERGO   ROH 9685  10.450  17.397   9.774  0.0863  0.1544 -0.0249
  622ERGO    R1 9686  10.621  17.440   9.552  0.2238  0.3360  0.1124
  622ERGO    R2 9687  10.533  17.422   9.291  0.5371 -0.1838  0.0240
  622ERGO    R3 9688  10.638  17.672   9.273 -0.0735  0.0788 -0.1260
  622ERGO    R4 9689  10.621  17.579   8.996  0.6831 -0.3825 -0.0391
  622ERGO    R5 9690  10.798  17.657   9.096  0.3089  0.2267  0.1951
  622ERGO    C1 9691  10.771  17.904   8.807  0.1949 -0.2516 -0.2166
  622ERGO    C2 9692  10.540  18.059   8.643  0.0880 -0.0863  0.2685
  623ERGO   ROH 9693  18.422   6.213   8.724  0.1323  0.0174  0.1811
  623ERGO    R1 9694  18.439   6.227   8.442  0.0129  0.0141  0.1755
  623ERGO    R2 9695  18.560   6.032   8.291  0.0727  0.0879  0.1446
  623ERGO    R3 9696  18.322   6.030   8.160  0.0258 -0.0697  0.2253
  623ERGO    R4 9697  18.522   5.970   7.953  0.0056  0.0143  0.1635
  623ERGO    R5 9698  18.371   6.128   7.946 -0.0946 -0.0674  0.1906
  623ERGO    C1 9699  18.276   5.932   7.633 -0.0776 -0.1766  0.2501
  623ERGO    C2 9700  18.217   5.788   7.345 -0.0935  0.0646 -0.0512
  624ERGO   ROH 9701  17.621   6.780   8.712 -0.2534 -0.1460  0.0002
  624ERGO    R1 9702  17.639   6.906   8.459  0.0216 -0.0201  0.0774
  624ERGO    R2 9703  17.868   6.899   8.304  0.0869 -0.2269  0.1773
  624ERGO    R3 9704  17.699   6.801   8.115  0.0401  0.0969  0.0450
  624ERGO    R4 9705  17.912   6.931   7.963  0.3242 -0.1687  0.2113
  624ERGO    R5 9706  17.698   6.968   7.944  0.3867  0.1623  0.1021
  624ERGO    C1 9707  17.778   6.859   7.587  0.4183  0.1692  0.1071
  624ERGO    C2 9708  17.977   6.726   7.297 -0.1160 -0.1799  0.1471
  625ERGO   ROH 9709   9.852  14.720  10.087  0.2692 -0.0620  0.2023
  625ERGO    R1 9710   9.844  14.825   9.825  0.1741  0.0352  0.2439
  625ERGO    R2 9711  10.028  15.009   9.732  0.2594 -0.0852  0.1847
  625ERGO    R3 9712  10.063  14.826   9.534 -0.0237 -0.0423  0.0907
  625ERGO    R4 9713  10.108  15.086   9.405  0.3479 -0.0271  0.2195
  625ERGO    R5 9714   9.969  14.931   9.340  0.1087  0.2016  0.1497
  625ERGO    C1 9715  10.187  14.960   9.028  0.1336  0.0471  0.1513
  625ERGO    C2 9716  10.268  14.822   8.733  0.3179 -0.4317 -0.2328
  626ERGO   ROH 9717  11.989  11.072   9.382  0.1998 -0.3399 -0.1239
  626ERGO    R1 9718  12.097  11.052   9.121  0.3265  0.1059 -0.1127
  626ERGO    R2 9719  11.945  10.976   8.903  0.5892 -0.2404 -0.1821
  626ERGO    R3 9720  12.037  11.210   8.798 -0.0679  0.1039 -0.0463
  626ERGO    R4 9721  12.017  11.027   8.569  0.6263  0.0975 -0.1260
  626ERGO    R5 9722  12.193  11.141   8.629  0.2561  0.6372  0.0127
  626ERGO    C1 9723  12.145  11.276   8.276  0.0310  0.6175  0.0342
  626ERGO    C2 9724  12.200  11.307   7.900  0.2644 -0.0820  0.1558
  627ERGO   ROH 9725   4.085  12.830   9.086 -0.1864  0.1146 -0.2026
  627ERGO    R1 9726   4.312  12.762   8.932 -0.0199  0.3278 -0.0576
  627ERGO    R2 9727   4.300  12.587   8.718  0.3531 -0.0183  0.1876
  627ERGO    R3 9728   4.416  12.794   8.584 -0.0239  0.0245 -0.0894
  627ERGO    R4 9729   4.475  12.557   8.421  0.2509 -0.0638  0.1318
  627ERGO    R5 9730   4.620  12.702   8.498  0.0755  0.2399 -0.0910
  627ERGO    C1 9731   4.686  12.733   8.124 -0.1627 -0.0502 -0.1610
  627ERGO    C2 9732   4.697  12.767   7.870 -0.0441 -0.0615 -0.0342
  628ERGO   ROH 9733   9.768  17.968   9.430  0.0513 -0.1617 -0.0205
  628ERGO    R1 9734   9.635  17.862   9.203  0.0737 -0.0340 -0.0941
  628ERGO    R2 9735   9.630  17.992   8.959  0.3045 -0.0105 -0.0879
  628ERGO    R3 9736   9.729  17.756   8.868  0.1517 -0.0885 -0.0557
  628ERGO    R4 9737   9.601  17.878   8.634  0.2189 -0.0401 -0.0701
  628ERGO    R5 9738   9.564  17.679   8.713  0.0945 -0.0068 -0.0378
  628ERGO    C1 9739   9.676  17.590   8.359  0.0255 -0.1306 -0.0296
  628ERGO    C2 9740   9.889  17.634   8.128 -0.2231  0.1261 -0.0548
  629ERGO   ROH 9741   7.124   3.392   8.966  0.1213 -0.3953  0.1094
  629ERGO    R1 9742   7.169   3.202   8.762  0.1708 -0.2581 -0.0107
  629ERGO    R2 9743   6.971   3.120   8.588  0.1579 -0.2888  0.0096
  629ERGO    R3 9744   7.151   3.195   8.399  0.0499 -0.0682 -0.0082
  629ERGO    R4 9745   6.922   3.095   8.247  0.2377 -0.5354  0.0157
  629ERGO    R5 9746   7.129   3.030   8.227  0.3515 -0.1894  0.0679
  629ERGO    C1 9747   7.063   3.149   7.870  0.1827 -0.4720  0.0027
  629ERGO    C2 9748   6.884   3.236   7.686 -0.2198 -0.2144 -0.1426
  630ERGO   ROH 9749   1.629   7.648   8.855 -0.0451  0.1870 -0.0073
  630ERGO    R1 9750   1.829   7.575   8.669  0.1880  0.3196  0.1844
  630ERGO    R2 9751   1.775   7.536   8.401  0.3574 -0.2386  0.2209
  630ERGO    R3 9752   1.975   7.717   8.367 -0.0239  0.1609  0.0028
  630ERGO    R4 9753   1.985   7.548   8.127  0.5804 -0.3981  0.3799
  630ERGO    R5 9754   2.150   7.592   8.262  0.3711  0.3023  0.4545
  630ERGO    C1 9755   2.294   7.726   7.935  0.3522 -0.1159  0.2679
  630ERGO    C2 9756   2.343   7.823   7.548 -0.0617 -0.1892 -0.3242
  631ERGO   ROH 9757   0.726  19.249   9.044  0.0886 -0.0577 -0.1287
  631ERGO    R1 9758   0.779  19.097   8.812  0.0808  0.0467 -0.1999
  631ERGO    R2 9759   0.605  18.904   8.717  0.1457 -0.0134 -0.1964
  631ERGO    R3 9760   0.624  19.047   8.487 -0.0172  0.0724 -0.1576
  631ERGO    R4 9761   0.587  18.769   8.400  0.1171  0.0765 -0.2333
  631ERGO    R5 9762   0.746  18.904   8.338  0.0173  0.1914 -0.2454
  631ERGO    C1 9763   0.592  18.824   7.998 -0.0524  0.2096 -0.2184
  631ERGO    C2 9764   0.441  18.798   7.689 -0.0820  0.1031  0.1300
  632ERGO   ROH 9765   8.105  17.109   9.850 -0.1619 -0.1352  0.2002
  632ERGO    R1 9766   7.935  17.111   9.624 -0.0657 -0.0937  0.1276
  632ERGO    R2 9767   7.888  17.339   9.476 -0.0444 -0.0531  0.1822
  632ERGO    R3 9768   7.967  17.181   9.268  0.0743  0.0287  0.1640
  632ERGO    R4 9769   7.768  17.364   9.152 -0.2866 -0.3042  0.2481
  632ERGO    R5 9770   7.767  17.145   9.141  0.0479 -0.3114  0.2938
  632ERGO    C1 9771   7.773  17.230   8.770 -0.3163 -0.3734  0.2694
  632ERGO    C2 9772   7.841  17.181   8.515  0.0601  0.0404 -0.0938
  633ERGO   ROH 9773  11.356  11.982   9.553 -0.1985 -0.0618  0.0069
  633ERGO    R1 9774  11.463  11.923   9.297 -0.0285 -0.1097  0.0855
  633ERGO    R2 9775  11.322  11.781   9.107  0.0885 -0.1425  0.0057
  633ERGO    R3 9776  11.378  11.997   8.952  0.1988 -0.1623  0.0206
  633ERGO    R4 9777  11.376  11.771   8.765  0.0612 -0.1180  0.0022
  633ERGO    R5 9778  11.536  11.916   8.791  0.1349 -0.2196  0.0013
  633ERGO    C1 9779  11.459  11.968   8.421  0.1489 -0.1224  0.0140
  633ERGO    C2 9780  11.687  11.989   8.083  0.4691 -0.0517 -0.1290
  634ERGO   ROH 9781   2.297  13.496   8.900 -0.0550 -0.1139  0.0622
  634ERGO    R1 9782   2.240  13.402   8.639 -0.0060 -0.0557  0.0298
  634ERGO    R2 9783   2.003  13.460   8.509 -0.0973 -0.2473  0.1029
  634ERGO    R3 9784   2.170  13.551   8.314 -0.2288  0.0229  0.1125
  634ERGO    R4 9785   2.008  13.344   8.183 -0.0000 -0.1231  0.0598
  634ERGO    R5 9786   2.226  13.355   8.188 -0.0111  0.1344  0.0335
  634ERGO    C1 9787   2.168  13.362   7.811 -0.0668  0.2031  0.0437
  634ERGO    C2 9788   1.998  13.288   7.517 -0.0545 -0.3569  0.0771
  635ERGO   ROH 9789  16.442  12.586   8.857 -0.0566  0.1882  0.1368
  635ERGO    R1 9790  16.451  12.690   8.594 -0.0418  0.1136  0.1080
  635ERGO    R2 9791  16.394  12.537   8.372 -0.0988  0.0700  0.1554
  635ERGO    R3 9792  16.217  12.737   8.320 -0.0440  0.1074  0.1077
  635ERGO    R4 9793  16.316  12.654   8.056 -0.0535  0.0221  0.1259
  635ERGO    R5 9794  16.315  12.857   8.137 -0.0019  0.0422  0.0844
  635ERGO    C1 9795  16.105  12.909   7.823  0.0242  0.0292  0.0639
  635ERGO    C2 9796  15.835  12.734   7.601  0.0011 -0.1605  0.1165
  636ERGO   ROH 9797   1.311   6.788   8.916  0.3879  0.1376  0.0774
  636ERGO    R1 9798   1.295   6.664   8.662 -0.0349  0.0103  0.1578
  636ERGO    R2 9799   1.059   6.652   8.517 -0.1383  0.5553  0.2501
  636ERGO    R3 9800   1.211   6.768   8.323  0.1236  0.0329  0.1264
  636ERGO    R4 9801   1.016   6.605   8.177 -0.2864  0.3737  0.2930
  636ERGO    R5 9802   1.232   6.598   8.155 -0.2987 -0.1648  0.2642
  636ERGO    C1 9803   1.133   6.686   7.798 -0.1267 -0.2224  0.2019
  636ERGO    C2 9804   1.230   6.800   7.504  0.1422 -0.1884 -0.0588
  637ERGO   ROH 9805   7.662  13.502   9.764  0.2096 -0.1556 -0.0114
  637ERGO    R1 9806   7.770  13.625   9.533  0.0099 -0.0993 -0.0778
  637ERGO    R2 9807   7.997  13.530   9.406  0.1584  0.1863 -0.0393
  637ERGO    R3 9808   7.835  13.529   9.188  0.1433 -0.1758 -0.0316
  637ERGO    R4 9809   8.104  13.568   9.080  0.0712  0.2813 -0.0571
  637ERGO    R5 9810   7.930  13.693   9.042 -0.1624 -0.0439 -0.0874
  637ERGO    C1 9811   8.014  13.588   8.685  0.0062 -0.0032 -0.0602
  637ERGO    C2 9812   7.940  13.661   8.438 -0.0068 -0.1285 -0.0507
  638ERGO   ROH 9813  18.874  14.304   8.840  0.1718 -0.0873  0.1677
  638ERGO    R1 9814  18.861  14.321   8.558  0.0452  0.0664  0.1797
  638ERGO    R2 9815  19.051  14.207   8.393  0.0327  0.2425  0.0295
  638ERGO    R3 9816  18.835  14.087   8.280  0.0362  0.2077  0.0627
  638ERGO    R4 9817  19.025  14.120   8.059  0.0141  0.1697  0.0506
  638ERGO    R5 9818  18.818  14.187   8.063  0.0165  0.1565  0.0454
  638ERGO    C1 9819  18.808  13.958   7.759  0.0065  0.0947  0.0940
  638ERGO    C2 9820  18.674  13.960   7.468 -0.1083 -0.0042 -0.1633
  639ERGO   ROH 9821  16.388  12.190   9.093 -0.0834 -0.0437 -0.0336
  639ERGO    R1 9822  16.427  12.138   8.817 -0.0981  0.0477 -0.0527
  639ERGO    R2 9823  16.262  11.969   8.673  0.0613 -0.1257 -0.0325
  639ERGO    R3 9824  16.237  12.186   8.511 -0.2427 -0.1268  0.0071
  639ERGO    R4 9825  16.167  11.958   8.340  0.1623 -0.2112 -0.0594
  639ERGO    R5 9826  16.316  12.111   8.298 -0.0649  0.0398  0.0106
  639ERGO    C1 9827  16.088  12.155   7.995 -0.0637 -0.2621 -0.0380
  639ERGO    C2 9828  16.064  12.141   7.715 -0.1471 -0.2333 -0.0084
  640ERGO   ROH 9829   5.870   9.434   9.008  0.1685 -0.0241  0.0229
  640ERGO    R1 9830   5.908   9.345   8.741 -0.0041  0.0711 -0.0362
  640ERGO    R2 9831   5.883   9.513   8.523  0.1214  0.2182  0.0535
  640ERGO    R3 9832   6.133   9.423   8.466  0.0088 -0.0320 -0.0533
  640ERGO    R4 9833   6.040   9.541   8.216  0.0881  0.2069  0.0367
  640ERGO    R5 9834   6.118   9.340   8.243 -0.1310  0.1067 -0.0928
  640ERGO    C1 9835   6.366   9.471   7.985 -0.0371 -0.0345 -0.0734
  640ERGO    C2 9836   6.561   9.612   7.752 -0.2144 -0.4164 -0.1241
  641ERGO   ROH 9837  18.092  11.195   8.347 -0.0496 -0.2490  0.0401
  641ERGO    R1 9838  18.166  11.094   8.093 -0.0249 -0.0288 -0.0427
  641ERGO    R2 9839  18.065  10.857   7.992  0.1347 -0.0423 -0.1736
  641ERGO    R3 9840  17.996  11.014   7.781 -0.0303  0.0439 -0.0588
  641ERGO    R4 9841  17.961  10.739   7.685 -0.0568  0.0803 -0.1576
  641ERGO    R5 9842  18.080  10.896   7.590 -0.1417  0.1397 -0.1691
  641ERGO    C1 9843  17.836  10.818   7.307 -0.3232  0.2327 -0.0406
  641ERGO    C2 9844  17.653  10.649   7.084  0.3168  0.2200 -0.0762
  642ERGO   ROH 9845   2.075  18.774   7.341  0.1236  0.2569 -0.0671
  642ERGO    R1 9846   1.975  18.637   7.568 -0.0292  0.3763 -0.0624
  642ERGO    R2 9847   2.115  18.436   7.694 -0.3507  0.0614 -0.1988
  642ERGO    R3 9848   2.075  18.591   7.914  0.0561  0.0711 -0.1245
  642ERGO    R4 9849   2.140  18.325   8.021 -0.4677 -0.1258 -0.2511
  642ERGO    R5 9850   1.965  18.446   8.070 -0.2039  0.2369 -0.1439
  642ERGO    C1 9851   2.118  18.406   8.417 -0.1538 -0.2254 -0.2115
  642ERGO    C2 9852   2.059  18.382   8.765 -0.0874  0.1407 -0.2287
  643ERGO   ROH 9853   4.503   4.820   8.240  0.0937  0.2025  0.0578
  643ERGO    R1 9854   4.477   4.759   7.964  0.0740  0.1424  0.0725
  643ERGO    R2 9855   4.355   4.931   7.785  0.2238  0.1880  0.0095
  643ERGO    R3 9856   4.589   4.905   7.650  0.2199 -0.0344  0.0422
  643ERGO    R4 9857   4.401   5.013   7.453  0.3065 -0.0515 -0.0404
  643ERGO    R5 9858   4.524   4.834   7.431  0.2021 -0.1350  0.0822
  643ERGO    C1 9859   4.649   5.036   7.133  0.3510 -0.3998 -0.0387
  643ERGO    C2 9860   4.833   5.059   6.851 -0.2053 -0.1055 -0.1642
  644ERGO   ROH 9861  12.304   8.564   9.161 -0.1561 -0.2686  0.0946
  644ERGO    R1 9862  12.408   8.397   8.958 -0.0987 -0.1803  0.0502
  644ERGO    R2 9863  12.246   8.250   8.789 -0.0500 -0.1737 -0.0043
  644ERGO    R3 9864  12.389   8.377   8.595 -0.0717 -0.0760  0.0433
  644ERGO    R4 9865  12.247   8.161   8.455 -0.0060 -0.0660 -0.0334
  644ERGO    R5 9866  12.462   8.200   8.450 -0.0174 -0.0094 -0.0093
  644ERGO    C1 9867  12.380   8.228   8.079 -0.0008  0.0885 -0.0057
  644ERGO    C2 9868  12.315   8.162   7.841  0.3606 -0.1500  0.2288
  645ERGO   ROH 9869  11.306  16.893   9.821  0.1782 -0.0033  0.0197
  645ERGO    R1 9870  11.333  16.873   9.540  0.0810 -0.1274  0.0187
  645ERGO    R2 9871  11.333  16.630   9.408 -0.0154 -0.1822  0.1214
  645ERGO    R3 9872  11.134  16.746   9.263 -0.0379 -0.2011  0.1363
  645ERGO    R4 9873  11.221  16.519   9.100  0.0724 -0.1092  0.0619
  645ERGO    R5 9874  11.205  16.726   9.036  0.0047 -0.0884  0.1384
  645ERGO    C1 9875  10.968  16.563   8.786  0.1024 -0.0841  0.0414
  645ERGO    C2 9876  10.821  16.648   8.378 -0.0266 -0.0999 -0.1995
  646ERGO   ROH 9877  10.271  12.234   9.451  0.1867 -0.1213  0.0831
  646ERGO    R1 9878  10.445  12.293   9.235  0.0376 -0.0736 -0.0259
  646ERGO    R2 9879  10.478  12.124   9.020 -0.0624 -0.0567 -0.0555
  646ERGO    R3 9880  10.413  12.346   8.877 -0.2026 -0.0640 -0.0047
  646ERGO    R4 9881  10.436  12.132   8.677 -0.0824 -0.0074 -0.0519
  646ERGO    R5 9882  10.539  12.324   8.674 -0.1982  0.0559 -0.0152
  646ERGO    C1 9883  10.351  12.345   8.343 -0.2257  0.0147 -0.0021
  646ERGO    C2 9884  10.458  12.335   8.028 -0.0563 -0.3225  0.2164
  647ERGO   ROH 9885   6.839   7.651   8.968 -0.0559 -0.1186  0.0215
  647ERGO    R1 9886   6.968   7.710   8.723 -0.1224 -0.1144 -0.0131
  647ERGO    R2 9887   6.858   7.645   8.477 -0.3276  0.1458  0.0031
  647ERGO    R3 9888   6.894   7.910   8.427 -0.0696  0.1398  0.1428
  647ERGO    R4 9889   6.866   7.788   8.163 -0.1322  0.2992  0.0759
  647ERGO    R5 9890   7.029   7.916   8.230 -0.0250  0.1140  0.1731
  647ERGO    C1 9891   6.904   8.120   7.932  0.2238  0.3830  0.2493
  647ERGO    C2 9892   6.653   8.082   7.640 -0.0076  0.5031  0.0608
  648ERGO   ROH 9893  19.040  11.378   8.828  0.2640 -0.0573  0.1208
  648ERGO    R1 9894  19.079  11.493   8.572  0.0183  0.0481  0.1267
  648ERGO    R2 9895  19.321  11.479   8.438 -0.0747  0.1988 -0.0652
  648ERGO    R3 9896  19.168  11.374   8.240 -0.1826  0.1994  0.0172
  648ERGO    R4 9897  19.397  11.494   8.101 -0.1088 -0.0562 -0.0864
  648ERGO    R5 9898  19.186  11.532   8.061 -0.0856  0.0816 -0.0782
  648ERGO    C1 9899  19.297  11.405   7.719 -0.2300 -0.2042 -0.0212
  648ERGO    C2 9900  19.360  11.415   7.401 -0.1415  0.1493  0.1888
  649ERGO   ROH 9901  14.956  13.967   9.664 -0.0588 -0.0367  0.0770
  649ERGO    R1 9902  14.922  13.916   9.387  0.0070  0.0338  0.0546
  649ERGO    R2 9903  14.676  13.932   9.262  0.0186 -0.0160  0.0146
  649ERGO    R3 9904  14.807  14.103   9.096 -0.0095  0.0827  0.0943
  649ERGO    R4 9905  14.608  13.972   8.926 -0.0148  0.1772  0.0439
  649ERGO    R5 9906  14.822  13.984   8.889 -0.0258  0.2074  0.0261
  649ERGO    C1 9907  14.691  14.156   8.574 -0.0606  0.3825  0.1358
  649ERGO    C2 9908  14.776  14.362   8.288 -0.0578 -0.1405  0.2362
  650ERGO   ROH 9909   0.370   0.715   9.144 -0.1751  0.0507 -0.0457
  650ERGO    R1 9910   0.272   0.832   8.905 -0.0511  0.1521 -0.0483
  650ERGO    R2 9911   0.429   0.988   8.740  0.0947  0.0481 -0.0097
  650ERGO    R3 9912   0.349   0.811   8.550 -0.0155  0.1290 -0.0392
  650ERGO    R4 9913   0.446   1.043   8.399  0.1071  0.1038 -0.0001
  650ERGO    R5 9914   0.251   0.947   8.379  0.0517  0.2170 -0.0080
  650ERGO    C1 9915   0.381   0.909   8.022  0.0108  0.2121 -0.0222
  650ERGO    C2 9916   0.353   0.961   7.683  0.2324 -0.3071 -0.0963
  651ERGO   ROH 9917   4.585  18.428   9.496  0.2797  0.2039 -0.2381
  651ERGO    R1 9918   4.479  18.376   9.239  0.0259  0.1369 -0.1242
  651ERGO    R2 9919   4.632  18.268   9.035 -0.1224  0.2506 -0.3026
  651ERGO    R3 9920   4.432  18.084   9.027 -0.0027  0.1084 -0.0765
  651ERGO    R4 9921   4.554  18.072   8.761 -0.1269 -0.0050 -0.1215
  651ERGO    R5 9922   4.343  18.101   8.805 -0.1222 -0.1163 -0.0456
  651ERGO    C1 9923   4.322  17.785   8.594 -0.0172 -0.2870  0.1962
  651ERGO    C2 9924   4.429  17.575   8.353 -0.3187 -0.0959 -0.1282
  652ERGO   ROH 9925  14.512   1.019  10.344 -0.1096 -0.2398 -0.0376
  652ERGO    R1 9926  14.616   1.148  10.115 -0.3001 -0.1554 -0.0806
  652ERGO    R2 9927  14.876   1.110  10.027 -0.1348  0.4169  0.0942
  652ERGO    R3 9928  14.754   1.046   9.794  0.1361 -0.0831  0.0784
  652ERGO    R4 9929  14.987   1.203   9.713 -0.3139  0.6153  0.0890
  652ERGO    R5 9930  14.781   1.240   9.656 -0.4233 -0.0543 -0.0033
  652ERGO    C1 9931  14.936   1.196   9.311 -0.1636  0.2614  0.0712
  652ERGO    C2 9932  14.846   1.247   8.974 -0.0681 -0.2796  0.0752
  653ERGO   ROH 9933  11.092   2.241   9.810 -0.0893 -0.0427 -0.0044
  653ERGO    R1 9934  11.260   2.372   9.624 -0.0156 -0.1538 -0.0178
  653ERGO    R2 9935  11.373   2.241   9.408 -0.2522 -0.1933 -0.1244
  653ERGO    R3 9936  11.256   2.442   9.267 -0.0876  0.0034  0.0140
  653ERGO    R4 9937  11.389   2.276   9.064 -0.3466 -0.0466 -0.1142
  653ERGO    R5 9938  11.413   2.491   9.092 -0.1009 -0.0854 -0.0207
  653ERGO    C1 9939  11.288   2.485   8.732 -0.2471  0.2235  0.0217
  653ERGO    C2 9940  11.326   2.479   8.474  0.2066 -0.1027  0.3847
  654ERGO   ROH 9941  10.196   8.393   9.231 -0.1388  0.0895  0.0100
  654ERGO    R1 9942  10.132   8.211   9.023 -0.0945  0.0524  0.0269
  654ERGO    R2 9943   9.950   8.271   8.824 -0.0935 -0.0015  0.0009
  654ERGO    R3 9944  10.157   8.206   8.660 -0.0663  0.0154  0.0311
  654ERGO    R4 9945   9.920   8.194   8.489 -0.0268  0.0178 -0.0083
  654ERGO    R5 9946  10.068   8.036   8.516 -0.0306  0.0251  0.0050
  654ERGO    C1 9947  10.097   8.088   8.139  0.0376  0.0448  0.0145
  654ERGO    C2 9948  10.171   8.008   7.720 -0.0392 -0.0042 -0.0335
  655ERGO   ROH 9949  16.776   9.059   9.162 -0.0443  0.0015 -0.0403
  655ERGO    R1 9950  16.739   9.025   8.884 -0.1631 -0.0168 -0.0232
  655ERGO    R2 9951  16.539   9.154   8.743 -0.0846  0.1500  0.0128
  655ERGO    R3 9952  16.747   9.236   8.587 -0.0497 -0.0789 -0.0644
  655ERGO    R4 9953  16.508   9.291   8.427 -0.0401  0.0634 -0.0289
  655ERGO    R5 9954  16.682   9.176   8.365 -0.1500 -0.1049 -0.0279
  655ERGO    C1 9955  16.685   9.448   8.097  0.0186 -0.2020 -0.1259
  655ERGO    C2 9956  16.952   9.655   7.892 -0.2238  0.1099 -0.1384
  656ERGO   ROH 9957   5.170   0.818   9.170 -0.0177  0.3276  0.0950
  656ERGO    R1 9958   5.127   0.874   8.896  0.0854  0.2792  0.0706
  656ERGO    R2 9959   5.309   1.013   8.742  0.2759 -0.0090  0.0445
  656ERGO    R3 9960   5.291   0.795   8.580  0.0231 -0.0447  0.1132
  656ERGO    R4 9961   5.444   0.991   8.425  0.0027 -0.1516 -0.0675
  656ERGO    R5 9962   5.264   0.887   8.360 -0.1158 -0.0775  0.1088
  656ERGO    C1 9963   5.506   0.774   8.088 -0.3936 -0.2680 -0.0684
  656ERGO    C2 9964   5.656   0.796   7.711  0.1234 -0.2155  0.0748
  657ERGO   ROH 9965   4.995  10.617   8.641  0.0949  0.1139 -0.0235
  657ERGO    R1 9966   4.955  10.726   8.382 -0.1044 -0.0046 -0.0439
  657ERGO    R2 9967   5.143  10.706   8.182 -0.0846  0.2541 -0.0520
  657ERGO    R3 9968   4.936  10.600   8.042  0.0687 -0.1132 -0.0146
  657ERGO    R4 9969   5.097  10.742   7.841 -0.1871  0.1239 -0.0539
  657ERGO    R5 9970   4.883  10.768   7.879 -0.2295 -0.2223 -0.0360
  657ERGO    C1 9971   4.875  10.664   7.511 -0.1028 -0.2968 -0.0201
  657ERGO    C2 9972   4.951  10.724   7.145 -0.4131  0.1473  0.2115
  658ERGO   ROH 9973   7.909   1.990   9.327  0.0700  0.0305  0.0991
  658ERGO    R1 9974   7.877   1.917   9.055  0.1301 -0.1477  0.1391
  658ERGO    R2 9975   7.937   2.088   8.847  0.0942 -0.2543  0.0428
  658ERGO    R3 9976   8.092   1.881   8.764  0.1787 -0.2504  0.1862
  658ERGO    R4 9977   7.983   1.996   8.517  0.3177 -0.3145  0.0884
  658ERGO    R5 9978   7.972   1.787   8.579  0.3076 -0.3054  0.1264
  658ERGO    C1 9979   8.155   1.748   8.247  0.5273 -0.3459  0.2496
  658ERGO    C2 9980   8.128   1.857   7.924  0.2318  0.0836 -0.1186
  659ERGO   ROH 9981   4.443   3.878   8.453 -0.2254  0.0846  0.1901
  659ERGO    R1 9982   4.545   3.905   8.190 -0.0329 -0.1708  0.2342
  659ERGO    R2 9983   4.481   3.730   7.986 -0.2586 -0.1073  0.2475
  659ERGO    R3 9984   4.407   3.957   7.857  0.2327  0.0073  0.1486
  659ERGO    R4 9985   4.449   3.761   7.644 -0.2417 -0.2053  0.2369
  659ERGO    R5 9986   4.540   3.958   7.658  0.2123 -0.3929  0.1243
  659ERGO    C1 9987   4.362   3.992   7.323  0.2295 -0.1547  0.1378
  659ERGO    C2 9988   4.334   4.055   7.021  0.1596  0.2981  0.1571
  660ERGO   ROH 9989  14.882   6.105   8.882 -0.1163 -0.1712  0.2271
  660ERGO    R1 9990  14.663   6.215   8.741 -0.1102 -0.1308  0.2449
  660ERGO    R2 9991  14.689   6.336   8.493 -0.0716  0.0717  0.3326
  660ERGO    R3 9992  14.497   6.157   8.422  0.0102  0.0539  0.1501
  660ERGO    R4 9993  14.516   6.339   8.194 -0.0014  0.2130  0.2942
  660ERGO    R5 9994  14.335   6.287   8.303 -0.0055  0.0703  0.2038
  660ERGO    C1 9995  14.235   6.173   7.953  0.1164  0.2786  0.1006
  660ERGO    C2 9996  14.052   6.067   7.743 -0.4751  0.3485  0.2487
  661ERGO   ROH 9997  16.584   8.004   8.701 -0.0465 -0.1681 -0.1473
  661ERGO    R1 9998  16.409   8.060   8.486 -0.0237 -0.2324 -0.1804
  661ERGO    R2 9999  16.449   8.272   8.313 -0.1712 -0.1064 -0.0494
  661ERGO    R310000  16.433   8.079   8.123  0.0876 -0.0201 -0.1662
  661ERGO    R410001  16.361   8.327   7.983 -0.0864  0.0068 -0.0551
  661ERGO    R510002  16.245   8.143   7.989  0.0763 -0.1132 -0.2058
  661ERGO    C110003  16.296   8.178   7.612  0.2057  0.1539 -0.1682
  661ERGO    C210004  16.406   8.194   7.197 -0.1945  0.0194  0.3118
  662ERGO   ROH10005  17.987  14.396   8.740  0.0997  0.0477 -0.1204
  662ERGO    R110006  17.883  14.365   8.479  0.0124 -0.0689 -0.0722
  662ERGO    R210007  17.999  14.483   8.257 -0.1619 -0.0226 -0.1394
  662ERGO    R310008  17.998  14.228   8.162 -0.0220 -0.0394 -0.0978
  662ERGO    R410009  17.980  14.396   7.923 -0.2950 -0.0898 -0.1155
  662ERGO    R510010  17.846  14.233   7.977 -0.1379 -0.1860 -0.0087
  662ERGO    C110011  17.968  14.106   7.639 -0.2408 -0.1445 -0.0624
  662ERGO    C210012  18.012  13.911   7.348  0.0633 -0.2473  0.0091
  663ERGO   ROH10013  13.392  11.493   9.131 -0.0684 -0.1700  0.0124
  663ERGO    R110014  13.317  11.471   8.859  0.0218 -0.1695 -0.0151
  663ERGO    R210015  13.263  11.692   8.701 -0.1577 -0.1689  0.0272
  663ERGO    R310016  13.449  11.579   8.538  0.0026  0.0557  0.0547
  663ERGO    R410017  13.282  11.740   8.360 -0.1458 -0.1495  0.0320
  663ERGO    R510018  13.330  11.529   8.337  0.1074 -0.0843  0.0354
  663ERGO    C110019  13.468  11.664   8.008  0.0117  0.0726  0.0607
  663ERGO    C210020  13.700  11.675   7.833 -0.3570 -0.0340  0.0556
  664ERGO   ROH10021   7.931   8.014   8.948  0.1648 -0.0295  0.0199
  664ERGO    R110022   8.059   8.080   8.704  0.0159 -0.0910 -0.0764
  664ERGO    R210023   7.921   8.103   8.465 -0.1529 -0.0218  0.0244
  664ERGO    R310024   8.038   8.348   8.459 -0.0363 -0.0789 -0.0586
  664ERGO    R410025   7.992   8.280   8.178 -0.1340 -0.1218 -0.0325
  664ERGO    R510026   8.181   8.341   8.267 -0.0839 -0.1915 -0.0904
  664ERGO    C110027   8.143   8.614   8.004 -0.0136 -0.2334 -0.1436
  664ERGO    C210028   8.337   8.683   7.727  0.0524 -0.0425 -0.0407
  665ERGO   ROH10029   7.411  11.032   8.860 -0.0996 -0.0575  0.0996
  665ERGO    R110030   7.390  11.185   8.623 -0.0118 -0.1343  0.0429
  665ERGO    R210031   7.380  11.461   8.625  0.0710 -0.1339 -0.0548
  665ERGO    R310032   7.590  11.438   8.453  0.0935 -0.2530 -0.0136
  665ERGO    R410033   7.453  11.684   8.371  0.3056 -0.1152  0.0257
  665ERGO    R510034   7.504  11.515   8.243  0.1992 -0.1220 -0.0130
  665ERGO    C110035   7.693  11.792   8.062  0.4635 -0.2161  0.1113
  665ERGO    C210036   7.870  11.926   7.839  0.0283  0.2121 -0.0959
  666ERGO   ROH10037   1.398  16.321   9.064  0.0166  0.1606 -0.0926
  666ERGO    R110038   1.483  16.512   8.873  0.0081  0.0921 -0.1627
  666ERGO    R210039   1.731  16.501   8.752  0.0160  0.0801 -0.1227
  666ERGO    R310040   1.585  16.510   8.523  0.0520 -0.0331 -0.1529
  666ERGO    R410041   1.838  16.641   8.454 -0.1184  0.4313 -0.0130
  666ERGO    R510042   1.638  16.723   8.427 -0.2621  0.1250 -0.0133
  666ERGO    C110043   1.763  16.730   8.066 -0.1628  0.5296  0.0227
  666ERGO    C210044   1.967  16.710   7.900 -0.1075  0.1497 -0.0850
  667ERGO   ROH10045   5.943   2.142   8.549  0.2004  0.1328  0.0995
  667ERGO    R110046   6.063   2.064   8.304  0.2949  0.1479  0.1390
  667ERGO    R210047   5.917   2.032   8.071  0.3017 -0.2811  0.1786
  667ERGO    R310048   6.101   2.207   7.972 -0.0097 -0.0334  0.0247
  667ERGO    R410049   6.017   2.047   7.741  0.0682 -0.1826  0.1116
  667ERGO    R510050   6.221   2.079   7.809  0.0661  0.1193 -0.0329
  667ERGO    C110051   6.247   2.219   7.454 -0.3603  0.1074 -0.0720
  667ERGO    C210052   6.374   2.273   7.111  0.0992  0.3894  0.0873
  668ERGO   ROH10053   0.750   7.768   8.787 -0.0062  0.0001  0.0164
  668ERGO    R110054   0.678   7.738   8.516 -0.0900  0.1922  0.0169
  668ERGO    R210055   0.667   7.951   8.340  0.4336  0.2372  0.0321
  668ERGO    R310056   0.834   7.796   8.192  0.0543 -0.1766  0.0146
  668ERGO    R410057   0.711   7.978   7.998  0.5747  0.2522  0.0500
  668ERGO    R510058   0.716   7.760   7.987 -0.0158  0.2199 -0.0267
  668ERGO    C110059   0.893   7.847   7.660  0.3009 -0.1274  0.0438
  668ERGO    C210060   1.069   8.018   7.416  0.0894 -0.3161  0.2709
  669ERGO   ROH10061   8.486  15.498   8.881 -0.0029 -0.3198  0.0945
  669ERGO    R110062   8.449  15.295   8.688  0.0617 -0.2542  0.0130
  669ERGO    R210063   8.286  15.328   8.467  0.0538 -0.2163  0.0265
  669ERGO    R310064   8.510  15.256   8.331  0.0767 -0.0938 -0.0035
  669ERGO    R410065   8.294  15.232   8.135  0.0920 -0.0081 -0.0352
  669ERGO    R510066   8.438  15.077   8.188  0.1153 -0.0186 -0.1204
  669ERGO    C110067   8.509  15.107   7.815  0.1357  0.2280 -0.0993
  669ERGO    C210068   8.526  14.984   7.451 -0.1117 -0.1915 -0.2028
  670ERGO   ROH10069  17.304  11.795   8.857 -0.2007  0.0274  0.0707
  670ERGO    R110070  17.353  11.759   8.581  0.0874  0.0022  0.1222
  670ERGO    R210071  17.185  11.861   8.385  0.1278 -0.2695 -0.0533
  670ERGO    R310072  17.415  11.974   8.293  0.0694 -0.0078  0.1091
  670ERGO    R410073  17.252  11.932   8.054  0.3012 -0.2629 -0.0183
  670ERGO    R510074  17.457  11.864   8.085  0.3682 -0.0097  0.1616
  670ERGO    C110075  17.507  12.079   7.775  0.3473 -0.0133  0.1546
  670ERGO    C210076  17.475  12.418   7.562 -0.1679  0.0981 -0.0638
  671ERGO   ROH10077  11.606  18.732   9.433 -0.1917  0.0511  0.0637
  671ERGO    R110078  11.685  18.668   9.169 -0.1103  0.0699  0.0834
  671ERGO    R210079  11.934  18.563   9.110 -0.0925  0.0724  0.1526
  671ERGO    R310080  11.787  18.369   8.989 -0.0568  0.0825  0.0928
  671ERGO    R410081  11.999  18.432   8.797 -0.0398  0.1463  0.1323
  671ERGO    R510082  11.784  18.431   8.758 -0.0350  0.1315  0.1057
  671ERGO    C110083  11.899  18.173   8.501  0.0244  0.1985  0.0644
  671ERGO    C210084  12.117  18.107   8.332  0.1530  0.1539 -0.0045
  672ERGO   ROH10085   0.476   3.334   8.557  0.2251 -0.0817  0.1418
  672ERGO    R110086   0.686   3.302   8.369  0.0501 -0.0025 -0.0710
  672ERGO    R210087   0.648   3.187   8.121 -0.1870  0.1215 -0.0889
  672ERGO    R310088   0.759   3.418   8.032 -0.2540  0.1553 -0.0883
  672ERGO    R410089   0.814   3.224   7.820 -0.0266  0.1066 -0.0040
  672ERGO    R510090   0.960   3.350   7.922 -0.1475  0.2170  0.0522
  672ERGO    C110091   1.015   3.463   7.562  0.0039  0.1297  0.0460
  672ERGO    C210092   1.008   3.495   7.185  0.2843 -0.0157  0.1437
  673ERGO   ROH10093   8.157   9.937   8.654 -0.1558  0.1024  0.1709
  673ERGO    R110094   8.044  10.050   8.421  0.1078  0.1450  0.0602
  673ERGO    R210095   8.197  10.158   8.217  0.3595 -0.2605  0.0276
  673ERGO    R310096   8.055   9.985   8.063  0.0991 -0.1219  0.1060
  673ERGO    R410097   8.144  10.193   7.878  0.3592 -0.3001  0.0229
  673ERGO    R510098   7.939  10.126   7.907  0.2658 -0.0127  0.0767
  673ERGO    C110099   7.979  10.052   7.535  0.1145 -0.1930  0.0938
  673ERGO    C210100   7.925   9.993   7.154  0.0828  0.0449  0.1418
  674PSPI    C110101   0.891  14.137   4.950 -0.0424 -0.0567 -0.0037
  674PSPI    C210102   0.885  14.235   4.562 -0.1379 -0.1235 -0.0194
  674PSPI    C310103   1.157  14.400   4.806  0.0151 -0.1901 -0.1435
  674PSPI   PO410104   0.673  14.204   5.026 -0.2288  0.0319  0.3477
  674PSPI   GL110105   0.411  14.479   5.356  0.0041  0.1865  0.4583
  674PSPI   GL210106   0.229  14.303   5.388 -0.0039  0.0017 -0.1235
  674PSPI   C1A10107   0.261  14.614   5.782 -0.0966  0.0333  0.1959
  674PSPI   C2A10108   0.385  14.500   6.177  0.1005 -0.2851 -0.0166
  674PSPI   C3A10109   0.222  14.253   6.553  0.1995  0.0267 -0.1179
  674PSPI   C4A10110   0.576  14.030   6.808 -0.2669 -0.1326 -0.2166
  674PSPI   C1B10111   0.449  14.100   5.717 -0.0379  0.0300  0.3045
  674PSPI   C2B10112   0.379  14.041   6.090 -0.0114 -0.0721 -0.3948
  674PSPI   C3B10113   0.202  13.774   6.412  0.3739 -0.0552  0.1782
  674PSPI   C4B10114   0.273  13.441   6.604 -0.1282 -0.0202  0.0516
  675PSPI    C110115  10.076   4.368   4.955 -0.1469  0.1942  0.0579
  675PSPI    C210116  10.055   4.015   4.768  0.0998  0.1704  0.0719
  675PSPI    C310117   9.908   4.343   4.592 -0.2361  0.0436  0.1087
  675PSPI   PO410118   9.977   4.265   5.219  0.0086 -0.1278 -0.1252
  675PSPI   GL110119  10.058   4.418   5.516  0.5997 -0.3059  0.3842
  675PSPI   GL210120  10.318   4.455   5.766 -0.1085 -0.5544 -0.2012
  675PSPI   C1A10121   9.918   4.648   5.929 -0.2190 -0.1246  0.1586
  675PSPI   C2A10122   9.753   4.714   6.359 -0.1674  0.0972  0.5701
  675PSPI   C3A10123   9.913   4.589   6.722 -0.4231 -0.0918  0.1616
  675PSPI   C4A10124  10.213   4.662   7.026 -0.0566  0.2512 -0.1387
  675PSPI   C1B10125  10.563   4.238   6.099 -0.2655 -0.1082  0.2905
  675PSPI   C2B10126  10.395   3.888   6.424 -0.1637  0.0007  0.3294
  675PSPI   C3B10127  10.599   3.820   6.828 -0.2787  0.0836  0.3565
  675PSPI   C4B10128  10.620   3.868   7.251 -0.0285  0.0338 -0.2323
  676PSPI    C110129   3.252  11.173   4.900 -0.0102 -0.0091  0.3265
  676PSPI    C210130   3.622  11.101   4.765 -0.0528 -0.0580  0.2349
  676PSPI    C310131   3.535  11.454   4.932 -0.0538  0.0841 -0.0598
  676PSPI   PO410132   3.265  10.983   5.123 -0.0961  0.2029  0.2808
  676PSPI   GL110133   3.267  11.008   5.627  0.1686  0.0198 -0.0564
  676PSPI   GL210134   2.938  10.993   5.466  0.1270 -0.3067  0.2253
  676PSPI   C1A10135   3.059  11.383   5.803 -0.1884 -0.1333  0.1913
  676PSPI   C2A10136   3.154  11.660   6.209  0.2376 -0.4574  0.2953
  676PSPI   C3A10137   2.983  11.517   6.536 -0.0497  0.0744 -0.1275
  676PSPI   C4A10138   3.174  11.395   6.917  0.1072 -0.0493 -0.2346
  676PSPI   C1B10139   2.785  10.950   5.831  0.1292  0.1092 -0.0097
  676PSPI   C2B10140   2.529  10.859   6.229  0.0095  0.3089  0.1145
  676PSPI   C3B10141   2.791  10.762   6.640  0.0052 -0.1208  0.1079
  676PSPI   C4B10142   2.842  10.509   6.991 -0.0861  0.2321  0.1382
  677PSPI    C110143  11.337  14.784   5.724 -0.3093 -0.1262  0.1217
  677PSPI    C210144  11.091  15.080   5.615 -0.2701 -0.1183  0.0545
  677PSPI    C310145  10.998  14.700   5.528 -0.2762 -0.1183  0.0610
  677PSPI   PO410146  11.383  14.837   6.009  0.3242 -0.0545 -0.3094
  677PSPI   GL110147  11.328  14.934   6.472  0.1633  0.2555  0.0395
  677PSPI   GL210148  11.609  14.878   6.536 -0.0219 -0.2653 -0.2359
  677PSPI   C1A10149  11.050  14.717   6.819  0.3711  0.0637 -0.1053
  677PSPI   C2A10150  10.868  14.508   7.145 -0.2312  0.0584 -0.2282
  677PSPI   C3A10151  10.966  14.257   7.482  0.1109  0.4021 -0.0402
  677PSPI   C4A10152  10.999  14.283   7.910 -0.0956  0.1740 -0.1467
  677PSPI   C1B10153  11.443  15.016   6.900  0.1258  0.0311  0.2623
  677PSPI   C2B10154  11.635  15.274   7.181  0.2165 -0.1064 -0.1248
  677PSPI   C3B10155  11.871  15.512   7.447  0.2657  0.1427 -0.2645
  677PSPI   C4B10156  12.017  15.521   7.842  0.2002 -0.2404 -0.4492
  678PSPI    C110157   9.772   8.205   5.087 -0.1278  0.2909 -0.1444
  678PSPI    C210158   9.595   8.461   4.836  0.0115  0.1807 -0.3577
  678PSPI    C310159   9.670   8.086   4.720  0.0419  0.1169 -0.1367
  678PSPI   PO410160  10.031   8.290   5.175  0.1783 -0.1329  0.0779
  678PSPI   GL110161  10.072   8.484   5.537  0.0885 -0.1038  0.0136
  678PSPI   GL210162  10.340   8.716   5.674 -0.3894 -0.0290  0.2928
  678PSPI   C1A10163   9.952   8.477   5.886 -0.1644  0.3485  0.1131
  678PSPI   C2A10164   9.886   8.769   6.189  0.3489  0.2605  0.1026
  678PSPI   C3A10165   9.840   8.905   6.588 -0.2957  0.4061 -0.0617
  678PSPI   C4A10166   9.522   9.139   6.828 -0.2608 -0.2507 -0.1118
  678PSPI   C1B10167  10.465   8.715   6.062 -0.1150  0.0983  0.1869
  678PSPI   C2B10168  10.278   8.653   6.443  0.0132  0.2012  0.2821
  678PSPI   C3B10169  10.047   8.531   6.861  0.0237 -0.1081 -0.2668
  678PSPI   C4B10170  10.086   8.814   7.227 -0.1046 -0.3035  0.2745
  679PSPI    C110171   6.256   8.909   4.841  0.0666  0.0839  0.1864
  679PSPI    C210172   6.544   8.638   4.901  0.2977  0.2516 -0.1401
  679PSPI    C310173   6.631   8.988   4.727 -0.1424  0.2158 -0.4495
  679PSPI   PO410174   6.075   8.980   5.051 -0.0910  0.3531 -0.0341
  679PSPI   GL110175   6.208   8.757   5.474 -0.1999 -0.0436 -0.0796
  679PSPI   GL210176   5.848   8.750   5.448  0.1050 -0.1148  0.0740
  679PSPI   C1A10177   6.261   8.480   5.872  0.0102  0.1944 -0.2987
  679PSPI   C2A10178   6.347   8.360   6.300  0.0938  0.1569 -0.3646
  679PSPI   C3A10179   6.637   8.093   6.291 -0.0746 -0.0312 -0.2514
  679PSPI   C4A10180   7.028   7.924   6.193 -0.0589 -0.0610 -0.2154
  679PSPI   C1B10181   5.614   8.658   5.802  0.0074  0.1724  0.1738
  679PSPI   C2B10182   5.736   8.627   6.117 -0.2663  0.3802 -0.2646
  679PSPI   C3B10183   5.870   8.580   6.513 -0.2467  0.0971  0.0964
  679PSPI   C4B10184   5.742   8.695   6.909 -0.0048 -0.0462  0.0867
  680PSPI    C110185   4.598   5.598   4.567  0.1556  0.2246 -0.0063
  680PSPI    C210186   4.764   5.738   4.231  0.1779  0.0795 -0.0562
  680PSPI    C310187   4.667   5.351   4.260  0.1098  0.1062  0.0781
  680PSPI   PO410188   4.814   5.767   4.762 -0.3604 -0.0886 -0.0593
  680PSPI   GL110189   5.038   5.670   5.113 -0.1135  0.0845  0.1527
  680PSPI   GL210190   5.003   5.297   5.028  0.0866 -0.2021 -0.1701
  680PSPI   C1A10191   5.191   5.681   5.541  0.0863 -0.0654 -0.0131
  680PSPI   C2A10192   5.019   5.551   5.878  0.5487 -0.3997  0.1946
  680PSPI   C3A10193   5.154   5.475   6.254  0.4204 -0.1259 -0.0432
  680PSPI   C4A10194   5.109   5.414   6.630  0.1238 -0.2135 -0.1603
  680PSPI   C1B10195   4.831   5.327   5.453  0.1588 -0.0539 -0.0916
  680PSPI   C2B10196   4.468   5.243   5.620  0.1980  0.1863 -0.0387
  680PSPI   C3B10197   4.307   5.006   6.026  0.0990 -0.2430  0.0944
  680PSPI   C4B10198   4.056   5.141   6.327  0.1970  0.0412 -0.1499
  681PSPI    C110199   9.017   0.280   5.467  0.2718 -0.0668 -0.0519
  681PSPI    C210200   8.720   0.545   5.507  0.2276 -0.1503  0.1893
  681PSPI    C310201   8.766   0.346   5.163  0.0921 -0.0325  0.1021
  681PSPI   PO410202   9.049   0.152   5.690  0.0436  0.1716  0.4132
  681PSPI   GL110203   8.742   0.143   6.029  0.0236 -0.1737  0.1731
  681PSPI   GL210204   8.565   0.473   5.960  0.0520 -0.2123 -0.0070
  681PSPI   C1A10205   8.762   0.177   6.456  0.0526 -0.0091 -0.0980
  681PSPI   C2A10206   8.808   0.348   6.755 -0.1977 -0.0920  0.0885
  681PSPI   C3A10207   8.394   0.389   7.040 -0.1783  0.0925  0.3334
  681PSPI   C4A10208   8.192   0.250   7.432  0.2910  0.1756 -0.1828
  681PSPI   C1B10209   8.480   0.590   6.428 -0.0340 -0.3824  0.2207
  681PSPI   C2B10210   8.290   0.831   6.733  0.0398 -0.1257 -0.0420
  681PSPI   C3B10211   8.523   0.868   7.158 -0.1025  0.1161 -0.0311
  681PSPI   C4B10212   8.441   1.139   7.489  0.0466 -0.0758 -0.1057
  682PSPI    C110213   9.633  12.723   5.598  0.0708 -0.0573 -0.0398
  682PSPI    C210214   9.829  13.062   5.519 -0.1211  0.1046  0.1669
  682PSPI    C310215   9.478  12.987   5.340  0.1422 -0.2058 -0.2380
  682PSPI   PO410216   9.694  12.643   5.828 -0.0515 -0.1578  0.2290
  682PSPI   GL110217   9.502  12.601   6.253  0.0536  0.1717 -0.1003
  682PSPI   GL210218   9.788  12.422   6.263 -0.0833 -0.0680 -0.1549
  682PSPI   C1A10219   9.527  12.793   6.654 -0.0501 -0.0900 -0.0286
  682PSPI   C2A10220   9.476  12.723   7.164  0.3285 -0.3536  0.1470
  682PSPI   C3A10221   9.498  12.936   7.519 -0.0542 -0.1148  0.0832
  682PSPI   C4A10222   9.521  13.281   7.783 -0.0848 -0.2416 -0.1223
  682PSPI   C1B10223   9.750  12.293   6.655  0.0785 -0.1819 -0.0152
  682PSPI   C2B10224   9.847  12.387   7.073  0.1282  0.1225 -0.1967
  682PSPI   C3B10225   9.558  12.282   7.440 -0.2480  0.0437 -0.0352
  682PSPI   C4B10226   9.698  12.133   7.802 -0.0221 -0.1233  0.0943
  683PSPI    C110227  16.949  14.012   4.904  0.2411 -0.1265 -0.0707
  683PSPI    C210228  17.111  14.073   4.543 -0.1254 -0.1244 -0.2394
  683PSPI    C310229  16.906  13.738   4.616 -0.2032 -0.0451 -0.0882
  683PSPI   PO410230  17.180  14.069   5.138 -0.0490  0.3988 -0.4876
  683PSPI   GL110231  17.190  13.875   5.479 -0.3789 -0.3284 -0.0898
  683PSPI   GL210232  17.000  13.693   5.652  0.0810 -0.2492  0.3401
  683PSPI   C1A10233  17.466  13.996   5.799  0.5781  0.0998  0.1252
  683PSPI   C2A10234  17.489  13.693   6.151 -0.0248 -0.1226  0.0243
  683PSPI   C3A10235  17.369  13.734   6.546 -0.5496  0.2496  0.0527
  683PSPI   C4A10236  17.437  13.751   6.974  0.1628  0.0186 -0.3242
  683PSPI   C1B10237  17.195  13.347   5.689  0.0115  0.2411 -0.1073
  683PSPI   C2B10238  17.311  13.218   6.034  0.0007 -0.1669 -0.1966
  683PSPI   C3B10239  17.289  13.227   6.448 -0.3400  0.1421 -0.3971
  683PSPI   C4B10240  17.076  12.995   6.780 -0.0740  0.1664  0.2048
  684PSPI    C110241  12.711   1.592   5.852  0.1180 -0.1365 -0.0422
  684PSPI    C210242  12.330   1.645   5.961  0.1428  0.4123 -0.1907
  684PSPI    C310243  12.429   1.645   5.573  0.2323 -0.2416 -0.1793
  684PSPI   PO410244  12.782   1.382   6.043  0.1914  0.0152  0.0356
  684PSPI   GL110245  12.562   1.546   6.448  0.0350 -0.1240  0.3127
  684PSPI   GL210246  12.735   1.306   6.529 -0.0817  0.3090  0.0091
  684PSPI   C1A10247  12.621   1.687   6.890 -0.0565  0.1513 -0.1405
  684PSPI   C2A10248  12.744   2.033   7.166 -0.1116  0.1647 -0.1419
  684PSPI   C3A10249  12.744   1.887   7.665 -0.2504 -0.0145  0.1156
  684PSPI   C4A10250  13.039   1.779   8.041 -0.1637  0.1733  0.2886
  684PSPI   C1B10251  12.283   1.312   6.775 -0.0621 -0.1334  0.2753
  684PSPI   C2B10252  12.058   1.416   7.173 -0.2424  0.1197 -0.0004
  684PSPI   C3B10253  12.229   1.261   7.536  0.2439 -0.1575  0.2025
  684PSPI   C4B10254  12.078   1.044   7.901  0.0310  0.1041  0.1925
  685PSPI    C110255  15.982   8.782   5.146 -0.0646  0.0375 -0.0031
  685PSPI    C210256  15.984   8.404   5.014  0.1979  0.0245  0.0338
  685PSPI    C310257  15.637   8.588   5.089  0.0720 -0.2698  0.1892
  685PSPI   PO410258  16.149   8.792   5.410 -0.3165 -0.1473  0.0093
  685PSPI   GL110259  15.991   8.856   5.814 -0.0916 -0.3378 -0.4964
  685PSPI   GL210260  15.872   8.679   5.957  0.1599  0.0299 -0.2989
  685PSPI   C1A10261  16.175   8.982   6.140 -0.3539 -0.0471  0.2450
  685PSPI   C2A10262  16.355   8.938   6.543  0.0625  0.1861  0.1094
  685PSPI   C3A10263  16.359   9.130   6.955  0.1435 -0.0774  0.2838
  685PSPI   C4A10264  16.229   9.489   7.147  0.2059 -0.2749 -0.3427
  685PSPI   C1B10265  16.023   8.480   6.326 -0.2606  0.1273  0.3189
  685PSPI   C2B10266  16.152   8.015   6.474  0.0218  0.1839  0.1806
  685PSPI   C3B10267  16.333   7.658   6.637  0.2396 -0.0175 -0.1154
  685PSPI   C4B10268  16.654   7.274   6.628 -0.0931  0.0067 -0.1003
  686PSPI    C110269  15.434   4.365   4.986 -0.1343 -0.0762 -0.2186
  686PSPI    C210270  15.439   4.573   4.645 -0.0234  0.3230  0.0191
  686PSPI    C310271  15.101   4.397   4.768 -0.0354  0.0779 -0.3492
  686PSPI   PO410272  15.578   4.533   5.192  0.1572 -0.0130  0.1324
  686PSPI   GL110273  15.722   4.543   5.561 -0.1149 -0.0916  0.1334
  686PSPI   GL210274  15.834   4.909   5.702 -0.1837  0.0343  0.4349
  686PSPI   C1A10275  15.485   4.578   5.952  0.3230 -0.1811  0.5017
  686PSPI   C2A10276  15.573   4.344   6.272  0.2281 -0.0213  0.1749
  686PSPI   C3A10277  15.919   4.284   6.549 -0.3303 -0.1042 -0.1237
  686PSPI   C4A10278  16.265   4.179   6.708 -0.1948  0.1007 -0.1449
  686PSPI   C1B10279  15.512   5.112   6.052  0.1334  0.0178  0.2710
  686PSPI   C2B10280  15.249   5.371   6.166 -0.2945  0.0489 -0.2614
  686PSPI   C3B10281  15.300   5.403   6.572  0.1926 -0.1971 -0.0905
  686PSPI   C4B10282  15.529   5.626   6.894 -0.0012  0.1795  0.0037
  687PSPI    C110283  15.827   3.379   5.361 -0.4518 -0.0582  0.4340
  687PSPI    C210284  15.741   3.769   5.335  0.0414  0.0349  0.0543
  687PSPI    C310285  15.664   3.526   5.026  0.0665 -0.0992  0.1527
  687PSPI   PO410286  15.722   3.367   5.610  0.0068 -0.1451 -0.0774
  687PSPI   GL110287  15.841   3.640   5.915  0.1123  0.0320 -0.4083
  687PSPI   GL210288  15.648   3.421   6.152 -0.2518 -0.2748  0.0515
  687PSPI   C1A10289  15.962   3.759   6.372  0.0661 -0.2418  0.0451
  687PSPI   C2A10290  16.066   3.734   6.776  0.2494 -0.1551 -0.0021
  687PSPI   C3A10291  16.340   3.820   7.112  0.1811 -0.1127  0.2473
  687PSPI   C4A10292  16.581   3.741   7.359  0.0010  0.2418 -0.0450
  687PSPI   C1B10293  15.727   3.412   6.588  0.2501 -0.0214 -0.2367
  687PSPI   C2B10294  15.755   3.459   7.030 -0.0096  0.0497 -0.0886
  687PSPI   C3B10295  16.032   3.492   7.356 -0.2838 -0.0659 -0.1374
  687PSPI   C4B10296  16.036   3.452   7.818  0.0274 -0.1565 -0.0432
  688PSPI    C110297  15.430  11.415   5.309 -0.0315  0.2764  0.2599
  688PSPI    C210298  15.201  11.470   4.986  0.0642 -0.1988  0.1024
  688PSPI    C310299  15.553  11.657   5.016 -0.0330  0.0001  0.0269
  688PSPI   PO410300  15.355  11.468   5.547 -0.0617 -0.0649 -0.0167
  688PSPI   GL110301  15.182  11.105   5.924 -0.1170  0.0980 -0.0367
  688PSPI   GL210302  14.799  11.363   5.844  0.1280  0.3775  0.0874
  688PSPI   C1A10303  15.376  11.079   6.280  0.2366  0.1827  0.1009
  688PSPI   C2A10304  15.510  11.051   6.647 -0.2670 -0.1500 -0.2075
  688PSPI   C3A10305  15.733  10.874   7.037  0.1368  0.1999 -0.1504
  688PSPI   C4A10306  15.805  10.381   7.076 -0.0480  0.2313  0.2238
  688PSPI   C1B10307  14.866  11.419   6.240  0.3612  0.0719 -0.2732
  688PSPI   C2B10308  14.862  11.299   6.625 -0.2066  0.1647  0.0583
  688PSPI   C3B10309  14.742  11.061   6.860  0.3326  0.1132  0.0254
  688PSPI   C4B10310  14.492  11.041   7.151 -0.0251  0.0612  0.3018
  689PSPI    C110311   1.286  13.245   4.743  0.1414 -0.0868  0.0159
  689PSPI    C210312   1.112  12.927   4.573 -0.0707  0.1008 -0.1237
  689PSPI    C310313   1.252  13.225   4.345  0.1327  0.1061  0.0058
  689PSPI   PO410314   1.109  13.339   4.916 -0.1433 -0.1542 -0.1488
  689PSPI   GL110315   0.695  13.121   5.068  0.2331  0.3223  0.2227
  689PSPI   GL210316   0.522  12.731   5.143  0.1272  0.2087 -0.3502
  689PSPI   C1A10317   0.777  13.007   5.442  0.0246 -0.1652  0.1379
  689PSPI   C2A10318   0.744  12.930   5.929  0.3295 -0.0867 -0.2133
  689PSPI   C3A10319   0.970  12.920   6.314  0.2777  0.1768 -0.2136
  689PSPI   C4A10320   0.964  13.143   6.708  0.0741  0.0607  0.3334
  689PSPI   C1B10321   0.354  12.666   5.515  0.3240 -0.1750  0.0965
  689PSPI   C2B10322   0.359  12.505   5.946  0.1674 -0.1947  0.1795
  689PSPI   C3B10323   0.184  12.560   6.310 -0.0375  0.1951  0.0007
  689PSPI   C4B10324  -0.141  12.593   6.535 -0.2954 -0.1801  0.0424
  690PSPI    C110325  18.069  17.749   5.273  0.1262  0.2097  0.1524
  690PSPI    C210326  17.712  17.896   5.170 -0.0233 -0.1933  0.0784
  690PSPI    C310327  18.032  17.971   4.942 -0.0243  0.2968  0.2270
  690PSPI   PO410328  18.081  17.717   5.598  0.0185 -0.0223  0.1553
  690PSPI   GL110329  18.210  17.477   5.882  0.4199  0.0634  0.1347
  690PSPI   GL210330  18.396  17.219   6.014 -0.3445 -0.3644 -0.1947
  690PSPI   C1A10331  18.171  17.676   6.288 -0.0409  0.0306 -0.1530
  690PSPI   C2A10332  18.299  17.935   6.593  0.0743 -0.0628 -0.0329
  690PSPI   C3A10333  18.073  18.345   6.643 -0.0470  0.0205  0.1869
  690PSPI   C4A10334  17.752  18.406   6.899  0.1816 -0.0294 -0.4508
  690PSPI   C1B10335  18.328  17.245   6.412  0.1705  0.1465 -0.1437
  690PSPI   C2B10336  18.395  17.209   6.731 -0.3180 -0.2019 -0.0241
  690PSPI   C3B10337  18.322  16.925   7.014  0.2633 -0.0107 -0.1132
  690PSPI   C4B10338  18.464  16.640   7.354 -0.3352  0.1339  0.2355
  691PSPI    C110339  10.080  19.251   5.614 -0.0756  0.1344 -0.0253
  691PSPI    C210340   9.850  19.378   5.312 -0.0354  0.0949 -0.0725
  691PSPI    C310341  10.242  19.323   5.256 -0.0257  0.0993 -0.0098
  691PSPI   PO410342   9.944  19.052   5.721  0.2357 -0.1597  0.3060
  691PSPI   GL110343   9.817  18.862   6.126  0.0226 -0.0800 -0.0540
  691PSPI   GL210344  10.028  18.497   6.050 -0.0028 -0.1339 -0.0396
  691PSPI   C1A10345   9.938  18.892   6.600 -0.2261  0.3720 -0.4371
  691PSPI   C2A10346   9.923  19.067   7.017  0.1310  0.1215 -0.5163
  691PSPI   C3A10347   9.980  19.426   7.401  0.1102  0.3832  0.1910
  691PSPI   C4A10348   9.975  19.797   7.592 -0.0736 -0.0123  0.1980
  691PSPI   C1B10349   9.866  18.386   6.426  0.0567  0.1965 -0.1624
  691PSPI   C2B10350   9.726  18.417   6.835 -0.1076  0.1472  0.2343
  691PSPI   C3B10351   9.812  18.598   7.158  0.0576  0.0284  0.1110
  691PSPI   C4B10352  10.022  18.879   7.528  0.0325 -0.1461 -0.0108
  692PSPI    C110353   9.088   7.595   5.018  0.0602 -0.0466 -0.0098
  692PSPI    C210354   9.144   7.721   4.642 -0.1145 -0.2414 -0.1032
  692PSPI    C310355   9.458   7.615   4.867 -0.0108 -0.1398 -0.1991
  692PSPI   PO410356   8.937   7.797   5.131 -0.1896  0.0156 -0.0423
  692PSPI   GL110357   8.901   7.784   5.448  0.0314  0.2179 -0.0181
  692PSPI   GL210358   8.510   7.866   5.622  0.0487 -0.2765  0.4656
  692PSPI   C1A10359   9.241   7.742   5.655 -0.1136  0.0742 -0.1931
  692PSPI   C2A10360   9.498   7.810   5.986  0.1486  0.1446 -0.1428
  692PSPI   C3A10361   9.625   8.169   6.148  0.0535  0.0572 -0.1082
  692PSPI   C4A10362   9.400   8.586   6.354 -0.1513 -0.1537 -0.0881
  692PSPI   C1B10363   8.418   7.958   6.002 -0.0733  0.0651  0.0596
  692PSPI   C2B10364   8.269   8.013   6.377  0.1530 -0.0151  0.4247
  692PSPI   C3B10365   7.938   8.072   6.641  0.0668  0.0443  0.1060
  692PSPI   C4B10366   7.703   7.898   6.978 -0.2763 -0.0298 -0.0537
  693PSPI    C110367   8.750  11.706   5.209 -0.1584  0.0209  0.2275
  693PSPI    C210368   8.475  11.521   4.985 -0.0330  0.1757 -0.0597
  693PSPI    C310369   8.732  11.776   4.816  0.1333  0.2157  0.2460
  693PSPI   PO410370   8.570  11.736   5.421 -0.1201 -0.3004  0.0444
  693PSPI   GL110371   8.672  11.675   5.785 -0.2948 -0.1491  0.1068
  693PSPI   GL210372   8.684  11.959   5.952 -0.1627 -0.1559 -0.1223
  693PSPI   C1A10373   8.752  11.313   6.061  0.3461 -0.0726 -0.0233
  693PSPI   C2A10374   8.605  11.261   6.477  0.1333  0.0330 -0.2283
  693PSPI   C3A10375   8.540  11.186   6.873 -0.0522  0.2049 -0.1689
  693PSPI   C4A10376   8.605  11.411   7.333 -0.2064 -0.0292  0.1643
  693PSPI   C1B10377   8.456  11.952   6.372  0.1617 -0.1759  0.1230
  693PSPI   C2B10378   8.420  11.911   6.853  0.0311 -0.0549 -0.1107
  693PSPI   C3B10379   8.537  11.841   7.185  0.2434  0.3420 -0.0953
  693PSPI   C4B10380   8.895  11.897   7.341  0.2019  0.0347  0.0382
  694POPI    C110381  14.664  12.671   5.182 -0.0464 -0.3511  0.1782
  694POPI    C210382  14.509  12.571   4.827  0.0912  0.0409  0.0024
  694POPI    C310383  14.410  12.919   4.998  0.1231 -0.0889  0.2910
  694POPI   PO410384  14.720  12.408   5.236 -0.0029  0.1306 -0.1227
  694POPI   GL110385  14.778  12.309   5.785 -0.2266  0.2208  0.2968
  694POPI   GL210386  15.085  12.339   5.943  0.1782 -0.1426 -0.2468
  694POPI   C1A10387  14.923  11.888   5.834  0.2397 -0.1275 -0.1021
  694POPI   D2A10388  15.223  11.630   5.993  0.3141  0.0828  0.0791
  694POPI   C3A10389  15.447  11.578   6.356  0.3968 -0.1834  0.1365
  694POPI   C4A10390  15.592  11.575   6.708  0.3657 -0.3063  0.3196
  694POPI   C1B10391  15.070  12.402   6.381  0.1769  0.1568 -0.0469
  694POPI   C2B10392  15.004  12.681   6.581 -0.1731 -0.0816  0.0858
  694POPI   C3B10393  15.051  12.706   7.021 -0.0062  0.0685 -0.1441
  694POPI   C4B10394  14.870  12.459   7.208 -0.1070  0.1884 -0.0961
  695POPI    C110395  10.138  17.980   5.466 -0.1735 -0.1863 -0.3904
  695POPI    C210396  10.310  18.272   5.254  0.1290 -0.1763 -0.1380
  695POPI    C310397  10.173  17.945   5.069  0.0640 -0.0118 -0.3868
  695POPI   PO410398  10.287  17.887   5.698 -0.1358 -0.1009 -0.0671
  695POPI   GL110399  10.345  18.001   6.138 -0.0481  0.1240 -0.1672
  695POPI   GL210400  10.564  17.803   6.310  0.0853 -0.1440  0.2629
  695POPI   C1A10401  10.092  17.984   6.538 -0.0901  0.2891  0.1413
  695POPI   D2A10402  10.047  18.101   7.002 -0.1094 -0.0065  0.0416
  695POPI   C3A10403   9.910  17.688   7.146 -0.3085  0.1768  0.4235
  695POPI   C4A10404  10.077  17.301   7.120  0.0396 -0.2178 -0.3188
  695POPI   C1B10405  10.607  18.092   6.638 -0.1866  0.0609 -0.3553
  695POPI   C2B10406  10.638  18.158   7.110  0.1561  0.3486  0.0601
  695POPI   C3B10407  10.792  17.938   7.469 -0.1545 -0.1370  0.1176
  695POPI   C4B10408  11.025  17.788   7.774  0.0492  0.2530  0.2585
  696POPI    C110409   2.951   9.784   5.241 -0.1433 -0.0702 -0.3335
  696POPI    C210410   2.623   9.917   5.054 -0.3044 -0.0065 -0.0128
  696POPI    C310411   2.872  10.176   5.230 -0.1740 -0.0688 -0.1033
  696POPI   PO410412   2.750   9.667   5.489 -0.0917  0.1611 -0.0835
  696POPI   GL110413   2.423   9.256   5.585 -0.3582  0.2070 -0.0936
  696POPI   GL210414   2.576   9.146   5.839  0.1832  0.0932 -0.2250
  696POPI   C1A10415   2.126   8.943   5.737 -0.0002 -0.1998  0.1883
  696POPI   D2A10416   1.889   8.614   5.872 -0.3553 -0.0807  0.0673
  696POPI   C3A10417   2.042   8.126   5.930  0.3424 -0.2392  0.0139
  696POPI   C4A10418   2.180   7.726   5.936 -0.1374  0.2546  0.0213
  696POPI   C1B10419   2.297   9.265   6.094 -0.1449  0.3138 -0.0011
  696POPI   C2B10420   2.146   9.331   6.448 -0.0982 -0.0034 -0.0660
  696POPI   C3B10421   1.950   9.675   6.580 -0.2596 -0.1657  0.0750
  696POPI   C4B10422   1.719   9.676   6.941 -0.2575  0.1034  0.0820
  697POPI    C110423   5.553  10.545   4.933  0.1241 -0.1174  0.1733
  697POPI    C210424   5.215  10.381   4.796  0.1375 -0.0155  0.0156
  697POPI    C310425   5.359  10.714   4.627  0.3341 -0.0761  0.0606
  697POPI   PO410426   5.520  10.560   5.158  0.1277  0.0725  0.1193
  697POPI   GL110427   5.757  10.505   5.472 -0.2678 -0.3599  0.4405
  697POPI   GL210428   5.700  10.844   5.697  0.0050  0.2379  0.1230
  697POPI   C1A10429   5.607  10.312   5.843 -0.1884  0.2606  0.0918
  697POPI   D2A10430   5.771  10.142   6.092 -0.0244  0.0291 -0.1974
  697POPI   C3A10431   5.741   9.888   6.385 -0.1909 -0.0536  0.1741
  697POPI   C4A10432   5.701   9.621   6.681  0.1948 -0.0917  0.3495
  697POPI   C1B10433   5.733  10.649   6.157  0.2871 -0.0452 -0.0195
  697POPI   C2B10434   5.731  10.859   6.615 -0.1536 -0.2595  0.1291
  697POPI   C3B10435   5.629  10.957   7.026  0.1703 -0.3020  0.2378
  697POPI   C4B10436   5.930  11.077   7.397  0.1752 -0.1876 -0.3022
  698POPI    C110437   8.493   3.777   4.772 -0.1671 -0.1729 -0.0482
  698POPI    C210438   8.192   3.856   5.023 -0.0775 -0.1337  0.0479
  698POPI    C310439   8.147   3.580   4.737 -0.2104 -0.1151  0.0501
  698POPI   PO410440   8.695   3.784   4.948  0.1853 -0.1691 -0.0928
  698POPI   GL110441   8.669   3.743   5.379  0.1259  0.2924 -0.2524
  698POPI   GL210442   8.804   3.735   5.557  0.1138  0.0093  0.1697
  698POPI   C1A10443   8.239   3.806   5.526 -0.0065 -0.0553 -0.1575
  698POPI   D2A10444   7.927   4.156   5.736  0.0639  0.2133 -0.3644
  698POPI   C3A10445   7.796   4.122   6.213 -0.3299  0.0491 -0.0512
  698POPI   C4A10446   7.635   4.100   6.573 -0.2084  0.2399  0.0906
  698POPI   C1B10447   8.650   3.798   5.952 -0.2953  0.1345  0.0868
  698POPI   C2B10448   8.263   3.835   6.191  0.3344  0.2372 -0.0316
  698POPI   C3B10449   8.148   4.017   6.579 -0.1636  0.0805 -0.1817
  698POPI   C4B10450   7.860   4.137   6.954 -0.1214 -0.4033 -0.0193
  699POPI    C110451  11.512   2.859   5.321 -0.0450  0.0556  0.0330
  699POPI    C210452  11.385   2.814   4.944 -0.1945  0.1132  0.0759
  699POPI    C310453  11.612   2.532   5.114 -0.2347  0.0261 -0.0140
  699POPI   PO410454  11.317   3.020   5.439  0.0704 -0.1472  0.1055
  699POPI   GL110455  10.985   2.929   5.525  0.1948  0.0298  0.1877
  699POPI   GL210456  10.768   3.237   5.492  0.0682  0.3398  0.1371
  699POPI   C1A10457  10.939   3.092   5.969  0.0313 -0.4673 -0.1678
  699POPI   D2A10458  11.026   3.195   6.305  0.0731  0.3580  0.0041
  699POPI   C3A10459  10.769   3.258   6.741  0.1792 -0.8025 -0.0860
  699POPI   C4A10460  10.486   3.082   6.899 -0.0182  0.0905 -0.1408
  699POPI   C1B10461  10.418   3.319   5.823  0.0598 -0.1717 -0.0581
  699POPI   C2B10462  10.159   3.133   6.041 -0.0329  0.1460 -0.1390
  699POPI   C3B10463  10.107   3.037   6.489 -0.1978 -0.0008 -0.0126
  699POPI   C4B10464  10.101   2.766   6.859  0.0216 -0.2886  0.0132
  700POPI    C110465  12.769   4.944   5.495  0.1017 -0.2432  0.1450
  700POPI    C210466  13.094   4.724   5.414  0.2033 -0.0550  0.0335
  700POPI    C310467  13.080   4.945   5.747  0.1547 -0.1271  0.0797
  700POPI   PO410468  12.544   4.803   5.556  0.2854  0.0824 -0.1085
  700POPI   GL110469  12.302   4.815   5.951  0.0182 -0.5886 -0.2380
  700POPI   GL210470  12.688   4.815   6.017 -0.0379  0.1051  0.1694
  700POPI   C1A10471  12.246   4.921   6.445  0.2689  0.0040  0.0388
  700POPI   D2A10472  12.493   5.201   6.775 -0.1512 -0.3182 -0.2127
  700POPI   C3A10473  12.534   5.104   7.257  0.0194 -0.1084 -0.3216
  700POPI   C4A10474  12.339   5.134   7.558 -0.0016 -0.0323 -0.0704
  700POPI   C1B10475  12.636   5.154   6.321  0.3750 -0.0349 -0.1357
  700POPI   C2B10476  12.911   5.357   6.572 -0.1071 -0.2687 -0.2869
  700POPI   C3B10477  13.096   5.269   6.949  0.2550  0.2138 -0.1624
  700POPI   C4B10478  13.272   5.078   7.348  0.2123 -0.2682  0.2651
  701POPI    C110479   3.106   3.666   4.209 -0.1983 -0.1964 -0.2713
  701POPI    C210480   3.504   3.684   4.241 -0.2264 -0.0299  0.0306
  701POPI    C310481   3.319   3.867   3.937 -0.1076  0.3262  0.1684
  701POPI   PO410482   3.009   3.768   4.391 -0.2766  0.1943 -0.0918
  701POPI   GL110483   2.880   3.465   4.654 -0.1036  0.1650  0.2100
  701POPI   GL210484   2.677   3.650   4.860  0.1106  0.1780 -0.4281
  701POPI   C1A10485   3.197   3.694   5.010 -0.1269 -0.1522  0.2203
  701POPI   D2A10486   3.522   3.884   5.184 -0.0916 -0.2870  0.1283
  701POPI   C3A10487   3.203   4.194   5.432  0.2536 -0.0541 -0.2309
  701POPI   C4A10488   3.138   4.130   5.915 -0.1901 -0.1997  0.0384
  701POPI   C1B10489   2.787   3.727   5.268 -0.0025 -0.2852 -0.0436
  701POPI   C2B10490   3.091   3.732   5.572  0.0326 -0.3320  0.1658
  701POPI   C3B10491   3.534   3.765   5.777  0.0241 -0.0994  0.1200
  701POPI   C4B10492   3.660   3.533   6.173 -0.1244 -0.0640  0.2875
  702POPI    C110493  16.088   4.711   5.199  0.1940 -0.0335  0.0533
  702POPI    C210494  16.239   5.010   4.979  0.0259 -0.0646 -0.1066
  702POPI    C310495  15.914   4.813   4.853 -0.0255 -0.1353  0.1324
  702POPI   PO410496  16.333   4.491   5.201 -0.1288 -0.0127  0.0647
  702POPI   GL110497  16.321   4.487   5.679 -0.2511 -0.0914  0.3801
  702POPI   GL210498  16.641   4.408   5.923 -0.0937 -0.1540 -0.0394
  702POPI   C1A10499  16.071   4.515   6.015  0.3292 -0.1245  0.1131
  702POPI   D2A10500  15.827   4.780   6.254 -0.1584 -0.0958  0.2174
  702POPI   C3A10501  15.840   4.786   6.792 -0.0117 -0.2295 -0.0852
  702POPI   C4A10502  16.052   4.965   7.151 -0.0075  0.0491  0.0330
  702POPI   C1B10503  16.706   4.294   6.430 -0.0611 -0.1852  0.1213
  702POPI   C2B10504  16.699   4.462   6.804 -0.2923  0.1418  0.1668
  702POPI   C3B10505  16.675   4.326   7.215  0.0192  0.1752 -0.0942
  702POPI   C4B10506  16.884   3.996   7.580 -0.1675 -0.0378  0.1170
  703POPI    C110507  13.344  13.213   5.444 -0.0914 -0.0289 -0.2359
  703POPI    C210508  13.124  13.128   5.121  0.0677 -0.1936 -0.3023
  703POPI    C310509  13.445  13.364   5.088 -0.0823  0.0266 -0.2099
  703POPI   PO410510  13.235  12.953   5.624  0.0096  0.2083 -0.3877
  703POPI   GL110511  13.261  12.618   5.964 -0.0212 -0.1672 -0.0004
  703POPI   GL210512  13.242  12.276   6.069  0.0280 -0.0408  0.1225
  703POPI   C1A10513  13.557  12.570   6.331  0.2347  0.0753 -0.0724
  703POPI   D2A10514  13.563  12.737   6.734  0.5471 -0.1418  0.1990
  703POPI   C3A10515  13.231  13.022   6.771 -0.2162 -0.2327  0.0652
  703POPI   C4A10516  12.880  12.980   6.939 -0.0209 -0.0657  0.0309
  703POPI   C1B10517  12.823  12.208   6.266  0.0562  0.1785  0.2274
  703POPI   C2B10518  12.682  12.249   6.659  0.0370  0.5476  0.1829
  703POPI   C3B10519  12.931  11.996   6.953  0.3107 -0.3198  0.3155
  703POPI   C4B10520  13.065  12.126   7.328 -0.0491 -0.1238 -0.1810
  704POPI    C110521   5.074  12.517   4.944 -0.2617 -0.1501 -0.1265
  704POPI    C210522   5.178  12.220   4.698 -0.3422 -0.1146 -0.2036
  704POPI    C310523   4.792  12.287   4.779 -0.3110 -0.1918  0.0144
  704POPI   PO410524   5.305  12.478   5.145  0.2361  0.1365 -0.0275
  704POPI   GL110525   5.265  12.476   5.490  0.0353 -0.0276 -0.1398
  704POPI   GL210526   5.603  12.308   5.524 -0.2490  0.2007 -0.0632
  704POPI   C1A10527   4.838  12.161   5.585 -0.0520 -0.1780  0.3964
  704POPI   D2A10528   4.397  12.066   5.647  0.0715 -0.1525 -0.2510
  704POPI   C3A10529   4.331  12.023   6.071 -0.4573  0.0269 -0.2511
  704POPI   C4A10530   4.322  11.616   6.415 -0.0360  0.1306  0.0876
  704POPI   C1B10531   5.397  12.229   5.936  0.3816 -0.2331 -0.2376
  704POPI   C2B10532   5.064  12.023   6.143  0.0326 -0.0118  0.1909
  704POPI   C3B10533   4.807  11.795   6.327 -0.0906  0.1190 -0.0855
  704POPI   C4B10534   4.795  11.355   6.438  0.1302 -0.1098  0.0284
  705POPI    C110535  14.892  14.439   5.797  0.0875  0.0918 -0.2531
  705POPI    C210536  15.237  14.619   5.889  0.1206 -0.0490 -0.0957
  705POPI    C310537  15.111  14.307   6.105 -0.2156  0.1396 -0.0124
  705POPI   PO410538  14.671  14.649   5.808 -0.2583  0.2001  0.1201
  705POPI   GL110539  14.349  14.655   6.137 -0.1546 -0.0128  0.0425
  705POPI   GL210540  14.204  14.991   6.036 -0.0070  0.0080 -0.0532
  705POPI   C1A10541  14.393  14.612   6.466 -0.1402  0.0038  0.3297
  705POPI   D2A10542  14.386  14.503   6.859  0.2417  0.3240  0.2128
  705POPI   C3A10543  14.526  14.494   7.235  0.0607  0.2195 -0.0726
  705POPI   C4A10544  14.661  14.227   7.647  0.0795  0.0079  0.1105
  705POPI   C1B10545  13.876  14.816   6.363  0.1981 -0.2882  0.1343
  705POPI   C2B10546  14.005  14.773   6.798 -0.3543  0.1637 -0.1629
  705POPI   C3B10547  14.248  14.906   7.177 -0.2853 -0.0788  0.1228
  705POPI   C4B10548  14.224  14.946   7.620 -0.2189 -0.4120 -0.3319
  706POPI    C110549   6.536  10.225   4.667 -0.1871  0.1762 -0.2466
  706POPI    C210550   6.763   9.945   4.841 -0.1702  0.3340 -0.0102
  706POPI    C310551   6.441   9.839   4.628 -0.1092  0.1310 -0.0025
  706POPI   PO410552   6.511  10.401   4.873 -0.2281  0.0802 -0.0264
  706POPI   GL110553   6.541  10.299   5.320  0.2332  0.2870 -0.2185
  706POPI   GL210554   6.829  10.152   5.324 -0.1615 -0.0886 -0.0363
  706POPI   C1A10555   6.607  10.460   5.692  0.0409  0.1384 -0.3141
  706POPI   D2A10556   6.755  10.297   6.022 -0.2589  0.2899  0.2559
  706POPI   C3A10557   7.142  10.497   6.003 -0.0480 -0.1082 -0.0934
  706POPI   C4A10558   7.553  10.380   6.297 -0.0300  0.3785 -0.0577
  706POPI   C1B10559   6.904  10.069   5.652 -0.0796  0.0854  0.1830
  706POPI   C2B10560   7.205  10.000   5.973  0.2417  0.1637  0.1998
  706POPI   C3B10561   7.372  10.004   6.497  0.1667  0.0163 -0.1204
  706POPI   C4B10562   7.448   9.836   6.979  0.0413  0.2818 -0.0860
  707POPI    C110563  13.725  10.450   5.349 -0.0228  0.0481 -0.1443
  707POPI    C210564  14.085  10.427   5.177  0.1148 -0.0130  0.1450
  707POPI    C310565  13.849  10.742   5.106  0.2459  0.0532 -0.0047
  707POPI   PO410566  13.796  10.337   5.591  0.3670 -0.1371 -0.1084
  707POPI   GL110567  13.597  10.132   6.086  0.1593 -0.0141  0.4310
  707POPI   GL210568  13.867  10.272   6.084 -0.2260 -0.3422 -0.1717
  707POPI   C1A10569  13.548  10.387   6.485 -0.5564 -0.2910  0.1152
  707POPI   D2A10570  13.606  10.182   6.892 -0.1539 -0.1474  0.1193
  707POPI   C3A10571  13.401   9.693   6.990 -0.2272 -0.3645  0.2727
  707POPI   C4A10572  13.558   9.337   6.812  0.0010  0.0893 -0.3482
  707POPI   C1B10573  13.966  10.141   6.569 -0.1423  0.3192 -0.2131
  707POPI   C2B10574  14.107  10.023   6.967  0.2084 -0.3736 -0.0414
  707POPI   C3B10575  14.526   9.962   7.209 -0.0203 -0.1848 -0.0385
  707POPI   C4B10576  14.879   9.717   7.203  0.2333 -0.3092 -0.2750
  708POPI    C110577   7.823  15.895   5.761 -0.1198 -0.1178 -0.2209
  708POPI    C210578   7.518  16.015   5.532 -0.0551  0.2110 -0.1396
  708POPI    C310579   7.449  15.792   5.857 -0.1844  0.0810 -0.2549
  708POPI   PO410580   8.015  16.113   5.781 -0.0491  0.0029  0.0289
  708POPI   GL110581   8.242  16.264   6.091 -0.0353 -0.0744 -0.1793
  708POPI   GL210582   7.988  16.628   6.144 -0.0876  0.2032  0.0179
  708POPI   C1A10583   8.500  16.164   6.475  0.0284 -0.1861  0.1183
  708POPI   D2A10584   8.385  16.008   6.852  0.1176 -0.1609  0.0598
  708POPI   C3A10585   7.968  15.870   6.813  0.1904 -0.0469  0.0119
  708POPI   C4A10586   7.715  15.623   7.023 -0.1634  0.0751 -0.0304
  708POPI   C1B10587   8.044  16.840   6.556 -0.2512 -0.2228 -0.0986
  708POPI   C2B10588   8.012  16.895   7.034  0.3063  0.3615  0.1686
  708POPI   C3B10589   8.240  16.771   7.338 -0.0869 -0.0224 -0.2766
  708POPI   C4B10590   8.262  16.768   7.864  0.0118 -0.3147  0.2642
  709POPI    C110591   0.467   7.419   4.962 -0.1307  0.0112 -0.0193
  709POPI    C210592   0.328   7.093   4.775  0.0838 -0.0719 -0.0360
  709POPI    C310593   0.306   7.451   4.597  0.0929 -0.1183 -0.1310
  709POPI   PO410594   0.395   7.390   5.231 -0.1723  0.3252 -0.1983
  709POPI   GL110595   0.441   7.229   5.594 -0.0708 -0.0746 -0.0223
  709POPI   GL210596   0.608   6.956   5.782  0.1321 -0.1933  0.0689
  709POPI   C1A10597   0.491   7.529   5.916 -0.0826  0.3172 -0.1276
  709POPI   D2A10598   0.647   7.563   6.306  0.0983  0.1224  0.1386
  709POPI   C3A10599   0.466   7.256   6.544  0.3094  0.2125 -0.0996
  709POPI   C4A10600   0.534   7.092   6.889  0.0615  0.0440 -0.2451
  709POPI   C1B10601   0.318   7.021   6.078 -0.1647  0.2541 -0.0668
  709POPI   C2B10602   0.109   6.927   6.486  0.0899  0.2704  0.0961
  709POPI   C3B10603  -0.200   6.607   6.618 -0.2716 -0.0663  0.0235
  709POPI   C4B10604  -0.638   6.494   6.629 -0.1457 -0.0438 -0.0773
  710POPI    C110605  16.031   1.297   5.391  0.1790 -0.1084 -0.1864
  710POPI    C210606  16.174   1.058   5.104 -0.1128  0.0775 -0.4936
  710POPI    C310607  15.942   1.370   5.008  0.2049  0.4498 -0.0952
  710POPI   PO410608  16.159   1.341   5.615  0.1444 -0.0143  0.1908
  710POPI   GL110609  16.035   1.456   6.058 -0.2899  0.2787 -0.0894
  710POPI   GL210610  16.325   1.686   6.170 -0.0504  0.3409 -0.1553
  710POPI   C1A10611  16.172   1.431   6.517  0.0005  0.2136  0.0634
  710POPI   D2A10612  16.216   1.581   6.926  0.2742 -0.2873  0.1637
  710POPI   C3A10613  16.165   1.912   7.145  0.0470 -0.0090  0.3352
  710POPI   C4A10614  15.943   2.216   7.540 -0.4481 -0.2024  0.2582
  710POPI   C1B10615  16.507   1.815   6.603  0.0810  0.0611  0.1919
  710POPI   C2B10616  16.635   1.814   7.027 -0.1734  0.1243  0.0474
  710POPI   C3B10617  16.948   1.876   7.477  0.6002 -0.5051  0.2772
  710POPI   C4B10618  17.256   2.150   7.750 -0.0805  0.3090 -0.0769
  711POPI    C110619   5.735  10.068   5.105  0.2081  0.1730  0.0165
  711POPI    C210620   5.996   9.998   4.810  0.0531  0.0402 -0.0907
  711POPI    C310621   5.614  10.081   4.724  0.0227  0.0705  0.0706
  711POPI   PO410622   5.813   9.879   5.253  0.1146  0.2390  0.2552
  711POPI   GL110623   5.917   9.903   5.620 -0.2514  0.0664 -0.0021
  711POPI   GL210624   6.115  10.145   5.549 -0.1940 -0.2730 -0.0097
  711POPI   C1A10625   5.934   9.550   5.885 -0.0751  0.3158 -0.2523
  711POPI   D2A10626   6.067   9.502   6.245  0.2433  0.1407  0.1144
  711POPI   C3A10627   5.940   9.222   6.558  0.2086  0.4095 -0.2477
  711POPI   C4A10628   5.986   9.172   6.961  0.0604  0.3338  0.3083
  711POPI   C1B10629   6.135  10.400   5.861 -0.0053  0.0056  0.0584
  711POPI   C2B10630   6.252  10.626   6.228  0.1739 -0.0914  0.2456
  711POPI   C3B10631   6.419  10.663   6.697  0.2323  0.1557 -0.0141
  711POPI   C4B10632   6.241  10.778   7.119  0.0218 -0.1117  0.1075
  712POPI    C110633  11.847  16.184   5.664  0.0975  0.4494  0.0922
  712POPI    C210634  11.998  16.437   5.393  0.0117  0.3773 -0.0247
  712POPI    C310635  11.639  16.271   5.333  0.0815  0.2020  0.0351
  712POPI   PO410636  12.106  16.095   5.774  0.2208  0.0265 -0.0943
  712POPI   GL110637  12.257  16.001   6.247 -0.2421  0.2896  0.1814
  712POPI   GL210638  12.277  16.404   6.235 -0.0964  0.0503  0.0713
  712POPI   C1A10639  12.382  16.076   6.687  0.0780  0.2346  0.0728
  712POPI   D2A10640  12.335  16.261   7.136 -0.0060  0.0038  0.3560
  712POPI   C3A10641  12.728  16.389   7.272  0.0589  0.0223  0.0782
  712POPI   C4A10642  12.673  16.384   7.676  0.0240 -0.0971  0.0956
  712POPI   C1B10643  12.593  16.637   6.555  0.0345 -0.0884  0.1552
  712POPI   C2B10644  12.536  16.774   7.026  0.0401 -0.1379  0.2928
  712POPI   C3B10645  12.572  16.834   7.432 -0.1944  0.1183 -0.0325
  712POPI   C4B10646  12.387  16.987   7.703 -0.2746  0.2319 -0.0143
  713POPI    C110647   8.819  15.710   5.705 -0.0391  0.1166  0.2123
  713POPI    C210648   8.845  15.417   5.434 -0.0681  0.3149 -0.0087
  713POPI    C310649   8.552  15.687   5.409  0.1813  0.5887 -0.0351
  713POPI   PO410650   8.857  15.547   5.892  0.3277  0.2604  0.1721
  713POPI   GL110651   9.039  15.362   6.138 -0.1759  0.1276 -0.0883
  713POPI   GL210652   9.264  15.585   6.204 -0.1313  0.0992  0.0632
  713POPI   C1A10653   9.204  15.309   6.550 -0.1143 -0.2722  0.1132
  713POPI   D2A10654   9.421  15.464   6.881  0.0983  0.1804 -0.0187
  713POPI   C3A10655   9.131  15.613   7.181 -0.2820  0.2726 -0.0058
  713POPI   C4A10656   9.045  16.027   7.465 -0.1363  0.1835 -0.1998
  713POPI   C1B10657   9.118  15.845   6.622 -0.2985  0.0304  0.1599
  713POPI   C2B10658   8.812  15.789   6.778 -0.2163  0.1003 -0.1216
  713POPI   C3B10659   8.634  15.606   7.055 -0.1462  0.0584  0.0791
  713POPI   C4B10660   8.614  15.443   7.415 -0.2636 -0.0873  0.4391
  714POPI    C110661  10.748   0.242   5.269  0.0134  0.1200 -0.0057
  714POPI    C210662  10.692   0.000   4.955 -0.0604  0.1615 -0.0247
  714POPI    C310663  11.062   0.075   5.086 -0.0151  0.3060 -0.2301
  714POPI   PO410664  10.643   0.130   5.522  0.3869  0.2095 -0.0351
  714POPI   GL110665  10.469  -0.026   5.925 -0.1775  0.0156 -0.0695
  714POPI   GL210666  10.830   0.043   5.978  0.2408  0.0703 -0.0616
  714POPI   C1A10667  10.440   0.272   6.297 -0.0847 -0.3622 -0.2012
  714POPI   D2A10668  10.332   0.419   6.602 -0.3281  0.2402 -0.0562
  714POPI   C3A10669  10.123   0.868   6.625  0.1851  0.0030 -0.2163
  714POPI   C4A10670  10.091   1.171   6.912 -0.0058  0.0961 -0.0572
  714POPI   C1B10671  10.684  -0.165   6.369 -0.0154 -0.3761 -0.1697
  714POPI   C2B10672  10.838  -0.199   6.755 -0.0038 -0.2813 -0.0862
  714POPI   C3B10673  10.837  -0.422   7.115 -0.2575  0.2695  0.2294
  714POPI   C4B10674  10.918  -0.523   7.382 -0.3465  0.0640 -0.1660
  715POPI    C110675   5.492  18.723   5.708 -0.0810  0.0377  0.2454
  715POPI    C210676   5.535  18.344   5.587 -0.1563  0.0946  0.0357
  715POPI    C310677   5.433  18.627   5.324  0.0099  0.2810  0.1689
  715POPI   PO410678   5.790  18.773   5.807  0.2632  0.0587  0.1361
  715POPI   GL110679   5.870  18.627   6.212  0.0393 -0.1044 -0.0495
  715POPI   GL210680   5.638  18.586   6.345  0.2450 -0.0984  0.1533
  715POPI   C1A10681   6.098  18.602   6.747 -0.0916  0.1310 -0.0309
  715POPI   D2A10682   5.746  18.567   7.096  0.5559 -0.0439  0.1935
  715POPI   C3A10683   5.459  18.263   7.182 -0.0171  0.1825  0.0069
  715POPI   C4A10684   5.241  17.924   7.223 -0.3096 -0.4522  0.1650
  715POPI   C1B10685   5.628  18.364   6.674 -0.1502  0.2993  0.0713
  715POPI   C2B10686   5.918  18.125   6.942 -0.1235  0.2118  0.0026
  715POPI   C3B10687   6.057  17.963   7.318 -0.4494 -0.2183 -0.0944
  715POPI   C4B10688   6.114  18.093   7.722  0.5207 -0.0973  0.0981
  716POPI    C110689   8.626  14.573   5.416 -0.0794  0.1222  0.0450
  716POPI    C210690   8.226  14.573   5.416 -0.0812 -0.0864 -0.1530
  716POPI    C310691   8.427  14.443   5.095  0.1464 -0.0059 -0.0456
  716POPI   PO410692   8.670  14.854   5.567 -0.0511 -0.2411  0.2323
  716POPI   GL110693   8.777  14.963   5.916  0.1191  0.2455 -0.0194
  716POPI   GL210694   8.811  14.566   5.934  0.1837 -0.2157  0.0715
  716POPI   C1A10695   8.653  15.016   6.280 -0.1854  0.2010 -0.0772
  716POPI   D2A10696   8.737  15.239   6.636 -0.1433  0.1782 -0.1166
  716POPI   C3A10697   8.972  15.104   7.018  0.0891 -0.0654 -0.2885
  716POPI   C4A10698   9.043  14.851   7.499  0.2377  0.1696  0.1022
  716POPI   C1B10699   8.544  14.501   6.398 -0.1075 -0.1257  0.1821
  716POPI   C2B10700   8.074  14.244   6.508 -0.0357 -0.1455  0.1150
  716POPI   C3B10701   7.686  14.444   6.526  0.0428 -0.0691 -0.1875
  716POPI   C4B10702   7.548  14.417   6.907  0.0890  0.0411 -0.0489
  717POPI    C110703  13.764  16.214   5.606 -0.0843 -0.0252 -0.1883
  717POPI    C210704  14.122  16.055   5.528 -0.0679 -0.0367 -0.0912
  717POPI    C310705  13.816  15.993   5.278  0.0134  0.0251 -0.2068
  717POPI   PO410706  13.838  16.197   5.950 -0.0641 -0.0486  0.2264
  717POPI   GL110707  13.920  16.126   6.356 -0.3158 -0.0409  0.3376
  717POPI   GL210708  13.854  15.778   6.393 -0.0994 -0.0091 -0.1001
  717POPI   C1A10709  14.092  16.209   6.700 -0.1836  0.2304  0.0941
  717POPI   D2A10710  14.232  16.588   6.641  0.2554 -0.3525  0.2339
  717POPI   C3A10711  14.459  16.761   6.989  0.2523 -0.3108  0.1109
  717POPI   C4A10712  14.641  16.648   7.350 -0.2161  0.0128 -0.1169
  717POPI   C1B10713  13.815  15.812   6.841 -0.1783 -0.0158  0.0839
  717POPI   C2B10714  13.574  15.517   7.131 -0.1817  0.0806  0.1276
  717POPI   C3B10715  13.644  15.430   7.507  0.1810  0.1838  0.0016
  717POPI   C4B10716  13.950  15.333   7.825 -0.0967  0.3755  0.0161
  718POPI    C110717   0.413  10.142   5.176 -0.0143  0.4045 -0.0216
  718POPI    C210718   0.802  10.230   5.145  0.0832  0.0305  0.0865
  718POPI    C310719   0.607  10.074   4.833  0.0736  0.0140  0.1007
  718POPI   PO410720   0.306  10.326   5.277 -0.0812  0.4492  0.0306
  718POPI   GL110721   0.351  10.263   5.812 -0.1176 -0.1031 -0.0192
  718POPI   GL210722   0.643  10.522   5.616 -0.2618  0.0205 -0.1999
  718POPI   C1A10723   0.191  10.380   6.174 -0.0636  0.0215  0.1552
  718POPI   D2A10724   0.077  10.435   6.630  0.2334  0.0964 -0.1539
  718POPI   C3A10725   0.268  10.250   7.018  0.0678 -0.0980 -0.1024
  718POPI   C4A10726   0.527  10.264   7.352  0.1834 -0.0174 -0.1359
  718POPI   C1B10727   0.501  10.714   5.968  0.3852  0.1631  0.3066
  718POPI   C2B10728   0.049  10.837   6.133 -0.1434 -0.0659 -0.0122
  718POPI   C3B10729  -0.268  10.983   6.231 -0.0716 -0.0411 -0.1129
  718POPI   C4B10730  -0.626  10.893   6.334  0.1088 -0.1302  0.2824
  719POPI    C110731  16.682  10.280   5.096  0.0272 -0.0965 -0.0162
  719POPI    C210732  16.556   9.972   4.874 -0.1533  0.1407 -0.2502
  719POPI    C310733  16.706  10.298   4.697  0.3345  0.0659  0.0066
  719POPI   PO410734  16.466  10.221   5.426  0.0371  0.0254  0.0564
  719POPI   GL110735  16.466  10.140   5.785  0.1612 -0.4360 -0.1206
  719POPI   GL210736  16.295   9.907   5.910  0.2966 -0.1482  0.1699
  719POPI   C1A10737  16.531  10.350   6.248  0.1877  0.1418  0.1700
  719POPI   D2A10738  16.265  10.684   6.412 -0.0463 -0.3929 -0.0482
  719POPI   C3A10739  16.324  10.744   6.929 -0.0232 -0.3315 -0.0745
  719POPI   C4A10740  16.456  10.932   7.337  0.0748  0.3485 -0.0158
  719POPI   C1B10741  16.371   9.872   6.279 -0.2989  0.3926  0.2113
  719POPI   C2B10742  16.722   9.888   6.576  0.5113  0.3099  0.0679
  719POPI   C3B10743  17.106   9.795   6.574 -0.1170 -0.1447 -0.4716
  719POPI   C4B10744  17.537   9.636   6.594 -0.3518 -0.0017 -0.0193
  720POPI    C110745  11.556   6.788   5.005 -0.0573 -0.0989 -0.1005
  720POPI    C210746  11.475   6.935   4.642  0.0209 -0.0332 -0.0915
  720POPI    C310747  11.831   7.005   4.812 -0.1463  0.2495  0.1531
  720POPI   PO410748  11.339   6.773   5.115  0.1209 -0.1730  0.0120
  720POPI   GL110749  11.459   6.878   5.535  0.0185  0.0112 -0.1694
  720POPI   GL210750  11.135   6.874   5.600  0.2354  0.1503 -0.1741
  720POPI   C1A10751  11.518   6.577   5.904  0.0191  0.1325 -0.2310
  720POPI   D2A10752  11.605   6.606   6.306 -0.1179  0.0097  0.2170
  720POPI   C3A10753  11.387   6.675   6.580  0.4443 -0.0859 -0.0166
  720POPI   C4A10754  11.112   6.745   6.935 -0.0952 -0.0099  0.0448
  720POPI   C1B10755  10.840   6.838   5.872  0.0160  0.2064 -0.1589
  720POPI   C2B10756  10.423   6.686   6.067  0.0759  0.0373  0.0261
  720POPI   C3B10757  10.318   6.584   6.510 -0.0461  0.0346  0.0286
  720POPI   C4B10758   9.939   6.593   6.777 -0.2706  0.2629  0.0332
  721POPI    C110759  18.154  10.306   4.813  0.1161 -0.0232  0.0089
  721POPI    C210760  18.507  10.493   4.838  0.0749  0.0528  0.0243
  721POPI    C310761  18.377  10.356   4.485  0.0103  0.2405 -0.0258
  721POPI   PO410762  18.119  10.115   5.133  0.2396  0.4118 -0.1717
  721POPI   GL110763  17.828  10.116   5.451 -0.1668  0.0851 -0.3015
  721POPI   GL210764  17.542  10.169   5.411 -0.0721 -0.2207  0.2824
  721POPI   C1A10765  17.848  10.311   5.819  0.2839 -0.1079  0.2447
  721POPI   D2A10766  17.516  10.397   6.139 -0.1316 -0.0202  0.2751
  721POPI   C3A10767  17.278  10.810   6.418  0.3179 -0.0522 -0.2420
  721POPI   C4A10768  17.580  11.072   6.698 -0.1142  0.1380 -0.0607
  721POPI   C1B10769  17.341   9.971   5.795 -0.1019 -0.0080 -0.0484
  721POPI   C2B10770  17.500   9.912   6.175 -0.2115 -0.1747 -0.0859
  721POPI   C3B10771  17.922   9.748   6.204  0.0309  0.0300  0.1950
  721POPI   C4B10772  18.278   9.785   6.195  0.0930 -0.0472  0.0706
  722POPI    C110773   6.150  14.510   5.514  0.0906  0.0736 -0.3011
  722POPI    C210774   5.755  14.499   5.449  0.0381  0.1396 -0.0059
  722POPI    C310775   5.991  14.215   5.296 -0.1637 -0.0738  0.0731
  722POPI   PO410776   6.191  14.483   5.768  0.3346 -0.0138 -0.3304
  722POPI   GL110777   6.400  14.700   6.253  0.1890 -0.0120  0.2077
  722POPI   GL210778   6.314  14.872   6.287  0.0309 -0.0233 -0.3125
  722POPI   C1A10779   6.657  14.589   6.566 -0.0937 -0.0550  0.2262
  722POPI   D2A10780   6.565  14.551   6.969 -0.2686  0.1040  0.1692
  722POPI   C3A10781   6.655  14.862   7.195  0.1180 -0.0465 -0.1691
  722POPI   C4A10782   6.870  15.111   7.588  0.1690  0.5132  0.1479
  722POPI   C1B10783   6.229  14.856   6.759 -0.0904  0.0069  0.1604
  722POPI   C2B10784   6.116  14.631   7.008  0.0282 -0.0141  0.0447
  722POPI   C3B10785   6.321  14.511   7.461 -0.0632  0.1002 -0.3198
  722POPI   C4B10786   6.465  14.609   7.847 -0.0655 -0.0804  0.0136
  723POPI    C110787   6.796   1.318   5.188 -0.1725  0.2239 -0.1144
  723POPI    C210788   6.899   0.968   5.024  0.0107  0.2358 -0.0274
  723POPI    C310789   6.677   1.228   4.817 -0.2757 -0.0036 -0.0279
  723POPI   PO410790   6.679   1.267   5.453  0.0365 -0.1590 -0.0012
  723POPI   GL110791   6.804   1.272   5.820  0.3141  0.1121 -0.0640
  723POPI   GL210792   6.712   0.972   5.942  0.1380  0.1086  0.0528
  723POPI   C1A10793   6.854   1.607   6.050 -0.0493  0.1263  0.2018
  723POPI   D2A10794   6.525   1.855   6.334  0.3074 -0.0402  0.3028
  723POPI   C3A10795   6.571   2.218   6.675  0.0296 -0.0603  0.0490
  723POPI   C4A10796   6.740   2.580   6.865 -0.0616  0.0533 -0.3724
  723POPI   C1B10797   6.547   1.189   6.259 -0.1643 -0.1869  0.0444
  723POPI   C2B10798   6.201   1.308   6.477  0.0064 -0.2137  0.0685
  723POPI   C3B10799   6.082   1.711   6.568  0.4513 -0.1780 -0.1877
  723POPI   C4B10800   6.203   1.883   6.928  0.0099  0.0626 -0.0216
  724POPI    C110801  13.192  18.312   5.751  0.1257  0.1345  0.0849
  724POPI    C210802  13.326  17.957   5.880  0.0331  0.1066  0.1058
  724POPI    C310803  13.549  18.177   5.631 -0.0315 -0.0957 -0.1350
  724POPI   PO410804  13.145  18.425   5.980  0.0010  0.0111  0.0384
  724POPI   GL110805  13.165  18.265   6.412  0.2660 -0.3293  0.1507
  724POPI   GL210806  13.248  18.011   6.399 -0.2774  0.2726 -0.1372
  724POPI   C1A10807  13.617  18.281   6.606  0.1327 -0.1359 -0.1543
  724POPI   D2A10808  13.856  18.199   6.942 -0.2191  0.0052 -0.1217
  724POPI   C3A10809  13.868  18.220   7.369  0.1805  0.2645  0.3460
  724POPI   C4A10810  14.051  18.308   7.807  0.2280 -0.2193 -0.0309
  724POPI   C1B10811  13.371  18.000   6.882 -0.3071 -0.1875 -0.4674
  724POPI   C2B10812  13.226  18.133   7.282  0.1385  0.0200  0.0046
  724POPI   C3B10813  13.483  17.950   7.497  0.0859  0.1038 -0.0920
  724POPI   C4B10814  13.894  17.806   7.655  0.1146 -0.0010  0.6211
  725POPI    C110815   8.066  15.502   5.534 -0.2122 -0.5548 -0.0162
  725POPI    C210816   8.327  15.211   5.446  0.0859 -0.2139 -0.2931
  725POPI    C310817   8.169  15.434   5.154  0.0457  0.0589 -0.0682
  725POPI   PO410818   7.925  15.354   5.732 -0.0454  0.1558 -0.1838
  725POPI   GL110819   7.842  15.535   6.084  0.2435 -0.0376 -0.5261
  725POPI   GL210820   8.025  15.796   6.215  0.0401 -0.5006  0.0289
  725POPI   C1A10821   7.701  15.523   6.502  0.1144 -0.0881  0.0262
  725POPI   D2A10822   7.374  15.441   6.741  0.0569 -0.0502 -0.0638
  725POPI   C3A10823   6.982  15.551   6.665  0.1353  0.2388 -0.0785
  725POPI   C4A10824   6.597  15.397   6.473 -0.1217  0.0072  0.1789
  725POPI   C1B10825   7.789  16.157   6.388 -0.1445  0.1164  0.1132
  725POPI   C2B10826   8.000  16.348   6.694 -0.0172  0.2556 -0.2553
  725POPI   C3B10827   8.090  16.374   7.088  0.0858  0.0086  0.1969
  725POPI   C4B10828   8.230  16.278   7.536  0.2705 -0.2626  0.0264
  726POPI    C110829  19.209   0.282   5.167 -0.2165  0.1460 -0.0523
  726POPI    C210830  19.050   0.046   4.885 -0.2263 -0.1428  0.1894
  726POPI    C310831  19.428   0.173   4.850 -0.2562 -0.1024  0.0032
  726POPI   PO410832  19.083   0.208   5.344  0.0059 -0.1268 -0.1546
  726POPI   GL110833  19.257   0.023   5.722  0.1428  0.2121 -0.0737
  726POPI   GL210834  19.527  -0.037   5.857  0.1092 -0.3959  0.1583
  726POPI   C1A10835  19.042   0.058   6.137  0.1044  0.0505 -0.3254
  726POPI   D2A10836  18.757   0.340   6.422  0.1471 -0.0870  0.3445
  726POPI   C3A10837  18.363   0.440   6.285  0.0948 -0.0691  0.2062
  726POPI   C4A10838  17.907   0.471   6.226 -0.0402 -0.3018  0.3257
  726POPI   C1B10839  19.758  -0.019   6.218 -0.1084  0.1016  0.0885
  726POPI   C2B10840  19.839  -0.237   6.589  0.0151 -0.1025 -0.1154
  726POPI   C3B10841  19.978  -0.252   7.021 -0.1254 -0.1595 -0.0571
  726POPI   C4B10842  19.888   0.024   7.357 -0.3442 -0.1047  0.1123
  727POPI    C110843   4.348  18.685   5.659  0.1089 -0.0813  0.0493
  727POPI    C210844   4.282  18.316   5.798 -0.1298 -0.0461  0.0326
  727POPI    C310845   4.071  18.453   5.488  0.1244  0.0194 -0.1143
  727POPI   PO410846   4.577  18.683   5.687 -0.0925  0.1725  0.0148
  727POPI   GL110847   4.759  18.846   5.987 -0.1988  0.0057  0.2985
  727POPI   GL210848   5.046  19.082   5.910 -0.0456  0.1215  0.2259
  727POPI   C1A10849   4.516  18.801   6.358  0.0976 -0.1162 -0.1386
  727POPI   D2A10850   4.541  18.704   6.781 -0.3154 -0.2217  0.2954
  727POPI   C3A10851   4.256  18.995   6.849  0.0455  0.2194  0.1350
  727POPI   C4A10852   4.247  19.353   7.247 -0.2244  0.2010  0.0353
  727POPI   C1B10853   4.740  19.290   6.282 -0.0820  0.1978  0.2733
  727POPI   C2B10854   4.722  19.152   6.723  0.0037 -0.0276  0.5307
  727POPI   C3B10855   4.794  19.132   7.107  0.1818  0.2947 -0.0039
  727POPI   C4B10856   4.857  19.070   7.560 -0.1185 -0.1008  0.0140
  728POPI    C110857   0.023  17.569   5.473  0.1468  0.3140  0.1362
  728POPI    C210858  -0.211  17.851   5.313 -0.0790  0.1009  0.0849
  728POPI    C310859  -0.272  17.732   5.690 -0.1315 -0.0390  0.0330
  728POPI   PO410860  -0.001  17.300   5.293  0.1131 -0.0074 -0.1126
  728POPI   GL110861   0.196  17.046   5.484  0.1765 -0.1854 -0.2059
  728POPI   GL210862  -0.060  17.151   5.755 -0.0288  0.0247  0.3926
  728POPI   C1A10863   0.411  16.815   5.843  0.1723 -0.0798  0.1744
  728POPI   D2A10864   0.480  16.499   5.976 -0.0609  0.1952  0.0052
  728POPI   C3A10865   0.711  16.128   6.146  0.0193 -0.0064 -0.2932
  728POPI   C4A10866   0.970  16.108   6.421  0.1566 -0.0697  0.1026
  728POPI   C1B10867   0.040  17.286   6.052  0.1517 -0.0955  0.0154
  728POPI   C2B10868   0.081  17.273   6.481  0.0768  0.0854  0.0273
  728POPI   C3B10869   0.028  17.589   6.763  0.0434  0.1841 -0.0701
  728POPI   C4B10870  -0.211  17.848   6.995 -0.0500 -0.2863 -0.4384
  729POPI    C110871   1.132   5.976   4.947  0.1299  0.2776 -0.1101
  729POPI    C210872   1.327   6.001   4.598  0.1809  0.3445 -0.0770
  729POPI    C310873   0.932   5.939   4.602  0.2230  0.0588 -0.1418
  729POPI   PO410874   1.191   6.173   5.157 -0.2062  0.1038  0.1048
  729POPI   GL110875   1.373   6.585   5.285  0.0599 -0.2128 -0.2043
  729POPI   GL210876   1.640   6.369   5.352 -0.1341  0.0679  0.0578
  729POPI   C1A10877   1.316   6.649   5.639  0.2320 -0.1660 -0.1647
  729POPI   D2A10878   1.358   6.647   6.101  0.0099  0.0384  0.2854
  729POPI   C3A10879   1.486   6.280   6.262 -0.2070  0.1251 -0.0280
  729POPI   C4A10880   1.689   5.932   6.429 -0.1105  0.3636 -0.0395
  729POPI   C1B10881   1.750   6.385   5.780  0.0421 -0.1023  0.0693
  729POPI   C2B10882   1.987   6.515   6.038 -0.0505 -0.2740  0.0340
  729POPI   C3B10883   1.818   6.673   6.362 -0.0511 -0.0750  0.1458
  729POPI   C4B10884   2.144   6.762   6.702 -0.1723  0.4088 -0.3257
  730POPI    C110885  17.853   1.341   5.191  0.1380  0.1983 -0.2623
  730POPI    C210886  17.520   1.127   5.245  0.1098  0.3495  0.2120
  730POPI    C310887  17.616   1.258   4.880 -0.0843 -0.1176 -0.0157
  730POPI   PO410888  18.017   1.223   5.420  0.2008  0.1126 -0.1883
  730POPI   GL110889  18.221   1.207   5.834 -0.0699 -0.0689  0.1299
  730POPI   GL210890  18.122   0.876   5.927 -0.0870  0.3739  0.1395
  730POPI   C1A10891  18.117   1.345   6.296 -0.1945 -0.1935  0.0526
  730POPI   D2A10892  18.016   1.335   6.720 -0.3348  0.1282  0.1322
  730POPI   C3A10893  18.041   0.986   6.958  0.4065 -0.1926 -0.2365
  730POPI   C4A10894  17.958   0.992   7.436 -0.1829 -0.1248  0.3808
  730POPI   C1B10895  18.410   0.958   6.230  0.0879 -0.0739 -0.0071
  730POPI   C2B10896  18.731   0.866   6.506  0.0304 -0.0325 -0.3735
  730POPI   C3B10897  18.801   0.648   6.848  0.1110  0.2442  0.1644
  730POPI   C4B10898  18.693   0.544   7.323  0.1558  0.1044  0.3463
  731POPI    C110899   5.783  11.638   4.740 -0.0288 -0.0815  0.0540
  731POPI    C210900   5.405  11.748   4.666  0.0159  0.0087 -0.0434
  731POPI    C310901   5.707  11.996   4.579  0.1109 -0.1438 -0.1546
  731POPI   PO410902   5.825  11.551   4.960  0.0947 -0.0364  0.0497
  731POPI   GL110903   5.737  11.529   5.441 -0.0273 -0.0821  0.1381
  731POPI   GL210904   5.982  11.747   5.400  0.2108 -0.0885  0.2074
  731POPI   C1A10905   5.887  11.410   5.862  0.4579  0.3957  0.0431
  731POPI   D2A10906   5.683  11.156   6.100 -0.1438  0.0664 -0.2654
  731POPI   C3A10907   5.593  11.307   6.456 -0.3384 -0.4192 -0.1299
  731POPI   C4A10908   5.690  11.672   6.748  0.2237  0.0820  0.0559
  731POPI   C1B10909   5.977  11.992   5.754 -0.1163 -0.1548 -0.1441
  731POPI   C2B10910   5.923  12.083   6.153 -0.0638  0.0345  0.2547
  731POPI   C3B10911   6.004  12.060   6.549 -0.0239  0.1467  0.0911
  731POPI   C4B10912   6.006  11.951   6.999 -0.1469 -0.2698 -0.1266
  732POPI    C110913   5.577   4.756   4.376 -0.0139 -0.2914  0.1222
  732POPI    C210914   5.936   4.856   4.521 -0.1529  0.2878  0.0924
  732POPI    C310915   5.907   4.682   4.162  0.1029  0.0919  0.1628
  732POPI   PO410916   5.472   4.608   4.679  0.1031 -0.2262  0.0356
  732POPI   GL110917   5.575   4.593   5.124 -0.0355 -0.1234  0.3230
  732POPI   GL210918   5.806   4.896   5.141  0.2431  0.0781 -0.1249
  732POPI   C1A10919   5.563   4.154   5.418  0.0732 -0.3408 -0.0765
  732POPI   D2A10920   5.495   3.705   5.428 -0.4286 -0.3432  0.1398
  732POPI   C3A10921   5.117   3.500   5.393 -0.0125  0.1073 -0.0615
  732POPI   C4A10922   4.838   3.305   5.497  0.0081 -0.4734 -0.1206
  732POPI   C1B10923   5.620   4.749   5.601 -0.1118  0.1592  0.0480
  732POPI   C2B10924   5.230   4.518   5.858 -0.0271 -0.1180  0.0554
  732POPI   C3B10925   5.197   4.324   6.273  0.0878 -0.3258 -0.0928
  732POPI   C4B10926   4.857   4.283   6.589  0.0298 -0.3133 -0.0456
  733POPI    C110927  16.463  16.670   5.243 -0.1547 -0.0588  0.0574
  733POPI    C210928  16.289  17.028   5.203 -0.0788 -0.0480 -0.1980
  733POPI    C310929  16.091  16.697   5.096  0.0095 -0.0459 -0.3710
  733POPI   PO410930  16.501  16.578   5.475  0.2491  0.3446 -0.1985
  733POPI   GL110931  16.789  16.493   5.887 -0.1717  0.1229 -0.1096
  733POPI   GL210932  16.524  16.324   6.169 -0.0981 -0.0116 -0.3582
  733POPI   C1A10933  17.066  16.481   6.218 -0.0011 -0.1446  0.1203
  733POPI   D2A10934  17.526  16.383   6.280  0.1079  0.4959  0.0994
  733POPI   C3A10935  17.660  16.587   6.536 -0.1187 -0.1004 -0.0945
  733POPI   C4A10936  18.123  16.627   6.627  0.0565 -0.2231 -0.0034
  733POPI   C1B10937  16.841  16.031   6.295 -0.1297 -0.0544 -0.0733
  733POPI   C2B10938  16.919  15.710   6.652  0.1524  0.2631  0.2441
  733POPI   C3B10939  17.175  15.481   6.988  0.0826 -0.2057 -0.2507
  733POPI   C4B10940  17.484  15.488   7.300 -0.1220 -0.2913 -0.0092
  734POPI    C110941  17.551   3.432   4.918  0.0038 -0.1453 -0.2242
  734POPI    C210942  17.765   3.097   4.953  0.1079 -0.0551  0.0244
  734POPI    C310943  17.366   3.078   4.932  0.1324 -0.2208 -0.3962
  734POPI   PO410944  17.622   3.583   5.176 -0.1833 -0.1065  0.0335
  734POPI   GL110945  17.821   3.653   5.469  0.1284  0.3595 -0.0695
  734POPI   GL210946  18.031   3.482   5.718  0.0522 -0.0364  0.2420
  734POPI   C1A10947  17.502   3.429   5.751 -0.0703 -0.1631 -0.0497
  734POPI   D2A10948  17.310   3.537   6.124 -0.2898 -0.1421  0.1099
  734POPI   C3A10949  17.479   3.473   6.547 -0.1185  0.2242 -0.4660
  734POPI   C4A10950  17.338   3.241   6.933 -0.0381  0.0232 -0.1361
  734POPI   C1B10951  17.808   3.776   5.995  0.1289 -0.0417  0.0256
  734POPI   C2B10952  17.596   3.934   6.375  0.1154 -0.1394 -0.1478
  734POPI   C3B10953  17.725   4.238   6.644  0.0381  0.2602  0.0734
  734POPI   C4B10954  17.580   4.568   6.751 -0.2127  0.1397 -0.2344
  735POPI    C110955   8.899  13.195   5.481  0.0902 -0.4524 -0.0356
  735POPI    C210956   8.714  13.140   5.130  0.2814  0.1185 -0.2364
  735POPI    C310957   8.523  13.323   5.430  0.1467 -0.2953 -0.0629
  735POPI   PO410958   9.044  12.927   5.515 -0.2040  0.4633 -0.1153
  735POPI   GL110959   9.292  12.974   5.886  0.0380  0.0764  0.1622
  735POPI   GL210960   9.498  13.137   5.894  0.0961  0.1908  0.4619
  735POPI   C1A10961   9.302  13.086   6.300  0.0499 -0.2048 -0.0350
  735POPI   D2A10962   9.109  13.197   6.579  0.0995  0.0300  0.0767
  735POPI   C3A10963   9.408  13.183   6.956  0.0416 -0.1972 -0.0850
  735POPI   C4A10964   9.536  13.378   7.282 -0.4684  0.1190  0.1523
  735POPI   C1B10965   9.583  13.491   6.182  0.1483  0.1362  0.0316
  735POPI   C2B10966   9.463  13.600   6.661  0.0927 -0.0036 -0.0065
  735POPI   C3B10967   9.149  13.591   6.997 -0.2742  0.1873  0.3355
  735POPI   C4B10968   9.040  13.486   7.383 -0.0593  0.1686 -0.0373
  736POPI    C110969   9.424   5.527   4.913  0.2833  0.0227  0.1320
  736POPI    C210970   9.210   5.807   5.101 -0.0599 -0.1517  0.0103
  736POPI    C310971   9.343   5.873   4.730  0.1765 -0.0091  0.1183
  736POPI   PO410972   9.703   5.530   5.110 -0.0010 -0.1958  0.3853
  736POPI   GL110973  10.008   5.337   5.362  0.1122 -0.1776 -0.1382
  736POPI   GL210974  10.065   5.699   5.391 -0.5732  0.3226 -0.0061
  736POPI   C1A10975  10.041   5.421   5.861 -0.2529  0.0599 -0.0164
  736POPI   D2A10976   9.863   5.261   6.240  0.1421  0.1363 -0.1715
  736POPI   C3A10977   9.978   5.202   6.671  0.1003  0.0945 -0.2872
  736POPI   C4A10978  10.287   5.246   6.965  0.2753 -0.1420 -0.4011
  736POPI   C1B10979  10.412   5.836   5.757 -0.0163  0.1753 -0.0507
  736POPI   C2B10980  10.324   5.738   6.227  0.2010  0.1707  0.0351
  736POPI   C3B10981  10.033   5.658   6.624 -0.0714  0.0726  0.0097
  736POPI   C4B10982  10.075   5.663   7.110 -0.3888  0.0559  0.1322
  737POPI    C110983  15.791  15.222   5.172 -0.1219  0.0273  0.0146
  737POPI    C210984  15.702  14.852   5.051 -0.3589  0.1296 -0.1299
  737POPI    C310985  15.420  15.135   5.052 -0.1789  0.3106 -0.0211
  737POPI   PO410986  15.964  15.237   5.425 -0.0535  0.2048 -0.0589
  737POPI   GL110987  15.825  15.245   5.834  0.1723 -0.0172 -0.1537
  737POPI   GL210988  16.043  15.484   5.924 -0.0592  0.2735  0.1772
  737POPI   C1A10989  15.695  15.287   6.289 -0.1222 -0.1135 -0.2111
  737POPI   D2A10990  16.026  15.339   6.553  0.0581 -0.0238  0.1413
  737POPI   C3A10991  15.971  15.608   6.885 -0.0289  0.0652 -0.0556
  737POPI   C4A10992  15.933  15.887   7.189 -0.0333 -0.1248 -0.0244
  737POPI   C1B10993  16.285  15.230   6.141 -0.4867 -0.0242  0.1071
  737POPI   C2B10994  16.415  14.919   6.533 -0.0663  0.1153 -0.0051
  737POPI   C3B10995  16.611  14.854   6.813 -0.2433 -0.1835 -0.1188
  737POPI   C4B10996  16.336  14.712   7.144 -0.1944 -0.1950  0.0801
  738POPI    C110997  10.952  12.865   5.734 -0.0446 -0.0724 -0.2208
  738POPI    C210998  11.154  12.549   5.872 -0.0609  0.0577  0.1096
  738POPI    C310999  11.268  12.726   5.532  0.1061 -0.1432  0.0587
  738POPI   PO411000  10.654  12.869   5.720  0.0099  0.0431  0.0554
  738POPI   GL111001  10.418  12.695   5.993 -0.0596 -0.0045  0.0501
  738POPI   GL211002  10.749  12.424   6.122 -0.0933 -0.1348 -0.0264
  738POPI   C1A11003  10.215  12.661   6.386 -0.3285 -0.2558 -0.4527
  738POPI   D2A11004  10.098  12.687   6.774  0.1795 -0.2743 -0.0958
  738POPI   C3A11005  10.337  12.442   7.073  0.0598 -0.0181  0.0184
  738POPI   C4A11006  10.446  12.447   7.458 -0.2120  0.3808 -0.2003
  738POPI   C1B11007  10.862  12.738   6.274  0.0556  0.1194  0.2056
  738POPI   C2B11008  11.159  13.001   6.221  0.2321 -0.0132  0.1810
  738POPI   C3B11009  11.625  13.198   6.230 -0.1897  0.2553  0.0270
  738POPI   C4B11010  11.788  13.301   6.630 -0.0772  0.1196 -0.0381
  739POPI    C111011   4.601   0.355   5.268 -0.3780 -0.1386  0.2287
  739POPI    C211012   4.304   0.622   5.242  0.0787  0.3566 -0.1306
  739POPI    C311013   4.386   0.384   4.931 -0.2375 -0.1223  0.1395
  739POPI   PO411014   4.506   0.200   5.452  0.2231 -0.1122  0.2965
  739POPI   GL111015   4.230   0.257   5.652  0.3816  0.1290  0.2925
  739POPI   GL211016   3.957   0.117   5.738 -0.0534  0.0160  0.2859
  739POPI   C1A11017   4.268   0.479   6.001  0.1546 -0.2065  0.3891
  739POPI   D2A11018   4.333   0.536   6.406  0.1356  0.0917 -0.1829
  739POPI   C3A11019   4.493   0.335   6.690  0.0791 -0.1431  0.0737
  739POPI   C4A11020   4.401   0.410   7.075 -0.1271 -0.2072  0.2523
  739POPI   C1B11021   3.831   0.301   6.050 -0.0015  0.1488  0.1880
  739POPI   C2B11022   3.802   0.494   6.447 -0.0686  0.2036  0.2115
  739POPI   C3B11023   3.851   0.765   6.704 -0.2233  0.0696 -0.0855
  739POPI   C4B11024   4.206   0.841   6.929 -0.2600  0.2319 -0.2047
  740POPI    C111025  14.190   1.705   5.889  0.0051 -0.2254 -0.0549
  740POPI    C211026  14.058   1.889   6.219 -0.2136 -0.1460 -0.1844
  740POPI    C311027  13.817   1.641   6.018 -0.0862 -0.1838 -0.2926
  740POPI   PO411028  14.511   1.565   5.949 -0.0764  0.0432 -0.0993
  740POPI   GL111029  14.543   1.245   6.379  0.2622  0.0510  0.1697
  740POPI   GL211030  14.536   1.574   6.455  0.2483 -0.0922  0.1956
  740POPI   C1A11031  14.237   0.967   6.704 -0.3230 -0.1876  0.1663
  740POPI   D2A11032  14.076   0.892   7.129  0.0616 -0.2139  0.0061
  740POPI   C3A11033  14.155   0.911   7.627 -0.0624  0.1740  0.0090
  740POPI   C4A11034  14.361   0.910   8.038  0.0070 -0.3376 -0.0453
  740POPI   C1B11035  14.532   1.377   6.853 -0.0306 -0.0681  0.1596
  740POPI   C2B11036  14.454   1.198   7.289  0.3663  0.2041 -0.1964
  740POPI   C3B11037  14.549   1.239   7.632  0.1613  0.4896  0.0295
  740POPI   C4B11038  14.823   1.463   7.772  0.0705 -0.0496 -0.0035
  741POPS   CNO11039   2.393  10.361   5.001 -0.0260 -0.3202 -0.1378
  741POPS   PO411040   2.580  10.919   5.081  0.0048  0.0521 -0.2677
  741POPS   GL111041   2.478  10.695   5.415 -0.0492 -0.0504  0.1534
  741POPS   GL211042   2.751  10.529   5.525  0.0388  0.0603  0.0233
  741POPS   C1A11043   2.257  10.888   5.824  0.1458  0.0582  0.0151
  741POPS   D2A11044   2.055  10.889   6.227  0.1909 -0.3347 -0.3341
  741POPS   C3A11045   1.723  10.831   6.388 -0.0837 -0.1303 -0.1058
  741POPS   C4A11046   1.526  10.540   6.643 -0.0955  0.1996 -0.2410
  741POPS   C1B11047   2.593  10.427   5.855 -0.1212  0.1659  0.1646
  741POPS   C2B11048   2.774  10.423   6.174 -0.3024  0.1151 -0.1923
  741POPS   C3B11049   2.570  10.382   6.516 -0.1158  0.2496 -0.3422
  741POPS   C4B11050   2.355  10.448   6.963 -0.2222  0.1291 -0.0278
  742POPS   CNO11051  10.380   3.644   4.803  0.1875 -0.1953  0.2637
  742POPS   PO411052  10.770   3.617   5.088  0.0166 -0.4825  0.2971
  742POPS   GL111053  10.632   3.742   5.425 -0.4148  0.2098  0.0171
  742POPS   GL211054  10.870   3.759   5.580  0.2283  0.1740 -0.0684
  742POPS   C1A11055  10.372   3.834   5.756 -0.1068 -0.3196  0.3000
  742POPS   D2A11056  10.082   4.067   5.999 -0.0276 -0.0301  0.3488
  742POPS   C3A11057  10.187   4.412   6.334 -0.1179 -0.2925  0.3772
  742POPS   C4A11058  10.335   4.834   6.537 -0.0126  0.2596  0.1272
  742POPS   C1B11059  10.794   3.737   6.051 -0.1535  0.1227  0.2222
  742POPS   C2B11060  11.011   3.669   6.519 -0.0034  0.1071  0.0075
  742POPS   C3B11061  11.077   3.644   6.986 -0.1939  0.0614  0.0393
  742POPS   C4B11062  11.331   3.464   7.267  0.2325  0.1290  0.0419
  743POPS   CNO11063  13.573  11.183   5.719  0.0683  0.0985  0.2855
  743POPS   PO411064  13.308  11.022   6.039 -0.0327 -0.1258  0.3762
  743POPS   GL111065  13.661  10.844   6.217  0.1239 -0.0599  0.0478
  743POPS   GL211066  13.899  11.036   6.116  0.1534 -0.1919 -0.1993
  743POPS   C1A11067  13.954  10.667   6.452 -0.1586  0.0252  0.1130
  743POPS   D2A11068  13.931  10.590   6.863  0.1312 -0.0807  0.5225
  743POPS   C3A11069  13.627  10.855   7.274  0.1018  0.2826 -0.0392
  743POPS   C4A11070  13.710  11.161   7.609  0.0578 -0.0147 -0.1529
  743POPS   C1B11071  13.893  11.407   6.208  0.0897 -0.0956 -0.0054
  743POPS   C2B11072  13.618  11.685   6.088  0.2993  0.0985 -0.1270
  743POPS   C3B11073  13.182  11.723   6.266 -0.0156 -0.0423 -0.1045
  743POPS   C4B11074  12.863  11.774   6.503 -0.1657  0.5167  0.0876
  744POPS   CNO11075   8.902   4.425   4.348  0.1496 -0.0085  0.0153
  744POPS   PO411076   8.728   4.519   4.727 -0.1862 -0.0044 -0.3038
  744POPS   GL111077   8.670   4.306   5.019 -0.0301 -0.3348  0.0072
  744POPS   GL211078   8.927   4.213   5.213 -0.2984 -0.2612 -0.2339
  744POPS   C1A11079   8.382   4.239   5.348 -0.0475 -0.2809  0.1285
  744POPS   D2A11080   8.463   4.233   5.796 -0.0047  0.0353  0.0267
  744POPS   C3A11081   8.503   4.285   6.244 -0.0024  0.1173  0.0462
  744POPS   C4A11082   8.688   3.890   6.505  0.4154 -0.0830 -0.0583
  744POPS   C1B11083   8.942   4.179   5.608  0.4625  0.0242  0.2226
  744POPS   C2B11084   8.978   4.453   5.949  0.1797 -0.0030 -0.0675
  744POPS   C3B11085   9.094   4.398   6.448  0.1224  0.2697  0.1022
  744POPS   C4B11086   9.322   4.449   6.800 -0.2880  0.0730  0.1026
  745POPS   CNO11087   3.988  13.324   5.087  0.1674  0.0378  0.0584
  745POPS   PO411088   3.862  13.145   5.448 -0.0347 -0.1759 -0.2091
  745POPS   GL111089   3.684  12.788   5.792 -0.0171  0.1804 -0.1862
  745POPS   GL211090   3.319  12.774   5.762  0.2103  0.1335 -0.1370
  745POPS   C1A11091   3.746  12.735   6.262  0.4193 -0.0469 -0.0101
  745POPS   D2A11092   3.437  12.872   6.549  0.2164 -0.1308  0.2576
  745POPS   C3A11093   3.281  13.150   6.951 -0.3683 -0.1460 -0.2349
  745POPS   C4A11094   3.157  13.486   7.182  0.3825 -0.1170  0.0976
  745POPS   C1B11095   2.927  12.871   6.023  0.0166 -0.2174  0.0807
  745POPS   C2B11096   2.751  12.974   6.417  0.1911  0.0493  0.3497
  745POPS   C3B11097   2.759  12.989   6.860 -0.0311  0.1105  0.2222
  745POPS   C4B11098   2.583  13.264   7.149  0.4113 -0.1872  0.1149
  746POPS   CNO11099  12.773  18.211   5.417 -0.0683  0.0832 -0.3315
  746POPS   PO411100  12.756  18.041   5.823 -0.1126 -0.2436 -0.2245
  746POPS   GL111101  12.700  18.246   6.271 -0.2912 -0.0874  0.0166
  746POPS   GL211102  12.369  18.439   6.290  0.0101 -0.1519  0.2021
  746POPS   C1A11103  12.519  18.300   6.721  0.0020  0.1173  0.0094
  746POPS   D2A11104  12.264  18.301   7.067 -0.0686  0.1870  0.1504
  746POPS   C3A11105  12.697  18.257   7.381  0.1257  0.1084  0.0083
  746POPS   C4A11106  12.846  17.879   7.737 -0.0737  0.0608 -0.2188
  746POPS   C1B11107  12.039  18.606   6.615 -0.1236  0.1439  0.1825
  746POPS   C2B11108  11.920  18.789   7.088  0.2028 -0.1998 -0.0645
  746POPS   C3B11109  11.825  18.894   7.563  0.2103 -0.1448 -0.3033
  746POPS   C4B11110  11.647  19.089   7.862 -0.4439  0.1306  0.4731
  747POPS   CNO11111   6.809  18.018   5.608  0.0746 -0.2960 -0.0888
  747POPS   PO411112   6.410  18.103   5.739 -0.0443  0.1513 -0.1502
  747POPS   GL111113   6.523  18.306   6.104 -0.0627 -0.0589 -0.2220
  747POPS   GL211114   6.350  18.521   6.333  0.0845 -0.0516 -0.1468
  747POPS   C1A11115   6.592  18.123   6.561  0.2518 -0.0416 -0.1005
  747POPS   D2A11116   6.471  18.297   6.994  0.0204  0.2731  0.0426
  747POPS   C3A11117   6.221  18.449   7.332 -0.3008 -0.4379 -0.2782
  747POPS   C4A11118   5.751  18.430   7.586  0.0645 -0.1226  0.1966
  747POPS   C1B11119   6.082  18.110   6.437 -0.4166  0.2940 -0.2044
  747POPS   C2B11120   6.218  17.824   6.565  0.3560  0.1300  0.0030
  747POPS   C3B11121   6.554  17.581   6.626  0.0213 -0.0680  0.0410
  747POPS   C4B11122   6.859  17.305   6.540  0.4193 -0.3179  0.1777
  748POPS   CNO11123   3.200   2.170   4.718  0.1462  0.2209 -0.1251
  748POPS   PO411124   3.317   2.586   4.876  0.0788 -0.1484 -0.0219
  748POPS   GL111125   3.572   2.463   5.325  0.0896 -0.2224 -0.3947
  748POPS   GL211126   3.898   2.336   5.204  0.0892 -0.0452  0.4188
  748POPS   C1A11127   3.634   2.534   5.777  0.0259 -0.0400  0.0365
  748POPS   D2A11128   3.814   2.484   6.085  0.0820 -0.3931  0.2557
  748POPS   C3A11129   3.898   2.602   6.555  0.1483  0.1341 -0.0417
  748POPS   C4A11130   3.934   2.320   7.005 -0.0248  0.4508  0.1476
  748POPS   C1B11131   4.237   2.317   5.563 -0.0503  0.2623  0.1970
  748POPS   C2B11132   4.653   2.461   5.826  0.2046  0.1380 -0.0384
  748POPS   C3B11133   4.679   2.967   5.870 -0.0221 -0.2249  0.1569
  748POPS   C4B11134   4.641   3.406   5.983 -0.0513  0.2759 -0.0980
  749POPS   CNO11135   8.979   2.823   5.241 -0.1340 -0.3233  0.0291
  749POPS   PO411136   8.487   2.922   5.211  0.2910 -0.1337  0.0778
  749POPS   GL111137   8.509   3.053   5.559 -0.0257 -0.0149  0.1325
  749POPS   GL211138   8.509   3.361   5.655 -0.0021 -0.0622 -0.0328
  749POPS   C1A11139   8.722   2.899   5.855 -0.1493  0.3327 -0.2140
  749POPS   D2A11140   8.840   2.904   6.370  0.0123 -0.0399 -0.0436
  749POPS   C3A11141   8.681   2.957   6.689 -0.1036  0.2158  0.0381
  749POPS   C4A11142   8.325   2.686   6.841 -0.2095  0.3380  0.0270
  749POPS   C1B11143   8.332   3.380   6.052 -0.2512  0.0017 -0.3316
  749POPS   C2B11144   8.295   3.440   6.500 -0.6798 -0.0016  0.1175
  749POPS   C3B11145   8.013   3.622   6.832 -0.1623 -0.1925  0.0151
  749POPS   C4B11146   7.749   3.342   7.049 -0.0609 -0.2263 -0.0127
  750POPS   CNO11147  15.914   0.555   6.088 -0.0137  0.0367  0.0110
  750POPS   PO411148  16.131   0.835   6.020 -0.2645 -0.0844 -0.1085
  750POPS   GL111149  16.283   0.964   6.396 -0.2516  0.1084  0.0198
  750POPS   GL211150  16.496   1.084   6.482 -0.2859  0.0814 -0.2181
  750POPS   C1A11151  16.559   0.722   6.798 -0.1662 -0.0871 -0.0105
  750POPS   D2A11152  16.561   0.763   7.284  0.0003  0.2871 -0.1071
  750POPS   C3A11153  16.326   0.514   7.555  0.0452  0.2786  0.0999
  750POPS   C4A11154  16.436   0.599   7.962  0.1886 -0.1944 -0.0823
  750POPS   C1B11155  16.568   1.219   6.941 -0.0026 -0.1073 -0.0561
  750POPS   C2B11156  16.703   1.322   7.284 -0.1434  0.2252  0.0212
  750POPS   C3B11157  16.946   1.389   7.541  0.3831 -0.3300 -0.0840
  750POPS   C4B11158  17.149   1.132   7.911 -0.1346 -0.0497  0.0455
  751POPS   CNO11159   5.256   1.578   4.951 -0.0300 -0.0759 -0.0288
  751POPS   PO411160   4.863   1.648   4.890  0.0665 -0.1381 -0.3100
  751POPS   GL111161   4.635   1.824   5.237  0.3083 -0.1211 -0.2675
  751POPS   GL211162   4.454   2.084   5.178  0.2788 -0.0207 -0.1802
  751POPS   C1A11163   4.667   1.893   5.663  0.1042  0.0065  0.3492
  751POPS   D2A11164   4.549   1.954   6.059 -0.1470  0.0119 -0.0150
  751POPS   C3A11165   4.492   1.676   6.418  0.1788 -0.0526 -0.3196
  751POPS   C4A11166   4.349   1.889   6.883 -0.0577 -0.1245  0.4832
  751POPS   C1B11167   4.112   1.789   5.383 -0.1909  0.0442  0.1244
  751POPS   C2B11168   3.961   1.548   5.689 -0.1379  0.0822  0.1148
  751POPS   C3B11169   4.073   1.468   6.173 -0.2277  0.0962 -0.0170
  751POPS   C4B11170   4.003   1.699   6.564  0.2291 -0.3745 -0.0132
  752POPS   CNO11171  11.742  16.058   6.158 -0.3989 -0.4150  0.2542
  752POPS   PO411172  11.514  15.749   6.192 -0.3951 -0.4318  0.2442
  752POPS   GL111173  11.419  15.901   6.628  0.3702 -0.5467 -0.0016
  752POPS   GL211174  11.110  15.914   6.736 -0.0941  0.0373 -0.0412
  752POPS   C1A11175  11.462  16.306   6.904 -0.0057 -0.3037 -0.0099
  752POPS   D2A11176  11.390  16.703   7.196  0.0860 -0.0927  0.0607
  752POPS   C3A11177  11.366  16.878   7.633 -0.2086 -0.0935 -0.0515
  752POPS   C4A11178  11.462  17.216   7.996  0.0429 -0.4939  0.2126
  752POPS   C1B11179  11.194  15.578   7.023  0.0952  0.1360 -0.2361
  752POPS   C2B11180  11.145  15.479   7.437  0.0857  0.0674 -0.2454
  752POPS   C3B11181  11.180  15.674   7.744 -0.1208 -0.1485 -0.0957
  752POPS   C4B11182  10.837  15.652   8.162 -0.1486 -0.0886 -0.1313
  753POPS   CNO11183  12.882  15.702   6.021  0.2050 -0.0696  0.1511
  753POPS   PO411184  13.112  16.094   5.899 -0.0098  0.0328  0.0135
  753POPS   GL111185  13.396  15.984   6.153 -0.2284 -0.0106 -0.3810
  753POPS   GL211186  13.425  15.695   6.049  0.0435  0.0812  0.1413
  753POPS   C1A11187  13.348  16.163   6.602 -0.0514 -0.0751  0.0020
  753POPS   D2A11188  13.502  16.182   6.992  0.0719  0.0925  0.0229
  753POPS   C3A11189  13.161  16.073   7.342  0.0432 -0.1205 -0.0995
  753POPS   C4A11190  12.824  15.913   7.576 -0.0602  0.3018  0.0031
  753POPS   C1B11191  13.454  15.528   6.542 -0.2267  0.4142  0.3242
  753POPS   C2B11192  13.559  15.109   6.722  0.0939  0.3575 -0.3346
  753POPS   C3B11193  13.680  15.030   7.144  0.0584  0.3515  0.1505
  753POPS   C4B11194  13.888  14.647   7.304 -0.0864  0.1269  0.0959
  754POPS   CNO11195   9.972   4.859   5.189 -0.2190 -0.0725  0.1312
  754POPS   PO411196   9.649   4.631   5.088  0.1509  0.5710 -0.1341
  754POPS   GL111197   9.577   4.692   5.428  0.2314  0.1302 -0.2632
  754POPS   GL211198   9.288   4.825   5.454  0.2963 -0.1972  0.0275
  754POPS   C1A11199   9.492   4.934   5.949  0.2087  0.0646 -0.3210
  754POPS   D2A11200   9.297   5.315   6.048  0.0497  0.1378  0.3875
  754POPS   C3A11201   9.305   5.398   6.417  0.0807 -0.0944 -0.1396
  754POPS   C4A11202   9.651   5.441   6.899  0.1418 -0.0677 -0.1371
  754POPS   C1B11203   8.836   4.689   5.488 -0.0393  0.0094 -0.1762
  754POPS   C2B11204   8.469   4.775   5.698  0.0863  0.0656 -0.0481
  754POPS   C3B11205   8.400   4.865   6.157 -0.1646 -0.0977 -0.1015
  754POPS   C4B11206   8.381   5.038   6.595 -0.1562 -0.1238  0.1929
  755POPS   CNO11207  12.890  14.059   5.585 -0.1319 -0.1022  0.2999
  755POPS   PO411208  12.756  13.739   5.426 -0.0998  0.0713  0.0986
  755POPS   GL111209  12.747  13.699   5.874  0.1820  0.1616 -0.1875
  755POPS   GL211210  12.665  13.963   6.137 -0.0906  0.0894  0.3870
  755POPS   C1A11211  12.632  13.383   6.190 -0.1841  0.0777  0.0210
  755POPS   D2A11212  12.755  13.184   6.543 -0.0515 -0.2319 -0.4311
  755POPS   C3A11213  12.397  13.242   6.883 -0.2796  0.0492 -0.0741
  755POPS   C4A11214  11.933  13.272   7.117 -0.3143 -0.4374 -0.1590
  755POPS   C1B11215  12.836  13.848   6.483  0.2472  0.2295 -0.1841
  755POPS   C2B11216  12.658  13.869   6.911  0.2037 -0.0966  0.0237
  755POPS   C3B11217  12.539  13.628   7.223  0.0268 -0.1385 -0.0711
  755POPS   C4B11218  12.431  13.823   7.735  0.0464 -0.2148  0.2133
  756POPS   CNO11219   4.855   3.595   4.299 -0.3103 -0.0404 -0.0136
  756POPS   PO411220   4.426   3.664   4.547 -0.0422  0.0618  0.0637
  756POPS   GL111221   4.474   3.538   5.027  0.0509  0.1224  0.2502
  756POPS   GL211222   4.648   3.671   5.212 -0.2313  0.2477 -0.0697
  756POPS   C1A11223   4.326   3.386   5.519  0.0171 -0.1961  0.3277
  756POPS   D2A11224   4.020   3.336   5.767  0.2323  0.2129  0.0255
  756POPS   C3A11225   4.147   3.219   6.181 -0.1316 -0.0132  0.5339
  756POPS   C4A11226   3.918   3.048   6.442 -0.1242  0.0982 -0.1336
  756POPS   C1B11227   4.659   3.824   5.564 -0.0791  0.1487 -0.4503
  756POPS   C2B11228   4.640   3.914   5.993  0.1022 -0.0597 -0.0380
  756POPS   C3B11229   5.007   3.823   6.276 -0.1764 -0.0155 -0.0463
  756POPS   C4B11230   5.139   3.501   6.460  0.1445  0.2290  0.1933
  757POPS   CNO11231   6.796  18.511   5.689 -0.2197 -0.0457 -0.2200
  757POPS   PO411232   7.079  18.405   6.087  0.2016 -0.0054  0.1593
  757POPS   GL111233   6.866  18.544   6.379 -0.0324 -0.0375 -0.0108
  757POPS   GL211234   7.060  18.744   6.450 -0.1984  0.0941 -0.2583
  757POPS   C1A11235   6.928  18.402   6.806 -0.1206  0.0930  0.4435
  757POPS   D2A11236   7.190  18.274   7.132 -0.2344  0.0288 -0.0458
  757POPS   C3A11237   7.213  17.887   7.455 -0.1971 -0.3385  0.1851
  757POPS   C4A11238   7.482  17.813   7.867 -0.1946  0.0726 -0.1755
  757POPS   C1B11239   7.045  18.887   6.939 -0.0240  0.0312  0.0581
  757POPS   C2B11240   7.221  18.784   7.294  0.2723  0.0537  0.1830
  757POPS   C3B11241   7.337  18.707   7.765  0.0497 -0.3146  0.3745
  757POPS   C4B11242   7.277  18.804   8.190  0.1056  0.0706  0.1411
  758POPS   CNO11243  12.119   1.591   5.227 -0.0822  0.2087  0.3244
  758POPS   PO411244  11.971   1.370   5.688 -0.0298 -0.0529 -0.2047
  758POPS   GL111245  11.704   1.562   5.964 -0.0922 -0.1014 -0.1158
  758POPS   GL211246  11.549   1.860   5.905 -0.1880 -0.1163  0.0053
  758POPS   C1A11247  11.632   1.715   6.400 -0.1671 -0.0237  0.2058
  758POPS   D2A11248  11.786   1.494   6.772 -0.5633  0.0716 -0.0332
  758POPS   C3A11249  12.095   1.814   6.981 -0.0710 -0.1082  0.2706
  758POPS   C4A11250  12.359   1.809   7.359 -0.0898  0.2131  0.1348
  758POPS   C1B11251  11.493   2.154   6.229  0.1798  0.0017 -0.4749
  758POPS   C2B11252  11.374   2.337   6.662 -0.1568  0.0682  0.3241
  758POPS   C3B11253  11.229   2.372   6.987  0.1608  0.0276 -0.1682
  758POPS   C4B11254  11.167   2.043   7.149 -0.2324  0.0120 -0.0427
  759POPS   CNO11255   4.578   1.949   4.668 -0.1538  0.0687 -0.0615
  759POPS   PO411256   4.847   2.274   4.949 -0.0175  0.1000  0.1197
  759POPS   GL111257   5.098   2.064   5.272 -0.1241  0.2818  0.1657
  759POPS   GL211258   5.313   2.122   5.221  0.0791 -0.0523  0.4502
  759POPS   C1A11259   5.145   2.105   5.725  0.2585  0.2348 -0.1673
  759POPS   D2A11260   5.002   2.163   6.144 -0.0409  0.3984  0.3623
  759POPS   C3A11261   4.778   2.489   6.401  0.0888  0.1809 -0.3315
  759POPS   C4A11262   4.491   2.822   6.458 -0.2371  0.1445 -0.1192
  759POPS   C1B11263   5.508   2.439   5.496  0.3233  0.0168  0.1298
  759POPS   C2B11264   5.343   2.539   5.864  0.1368 -0.1934  0.2464
  759POPS   C3B11265   5.055   2.702   6.046 -0.1457 -0.1462  0.1493
  759POPS   C4B11266   4.925   3.114   6.260 -0.1269 -0.0689 -0.3617
  760POPS   CNO11267   2.725  15.347   5.063  0.1022  0.4057  0.0204
  760POPS   PO411268   2.858  14.941   5.095 -0.2728  0.1225  0.2137
  760POPS   GL111269   2.617  14.941   5.528 -0.0399 -0.0631 -0.2621
  760POPS   GL211270   2.813  14.776   5.729 -0.2664 -0.1904  0.2230
  760POPS   C1A11271   2.511  15.074   5.959 -0.0817 -0.1578  0.3131
  760POPS   D2A11272   2.254  15.080   6.302  0.2578  0.2011  0.0955
  760POPS   C3A11273   1.899  15.289   6.380 -0.1641 -0.0078  0.1028
  760POPS   C4A11274   1.621  15.315   6.619  0.0036 -0.0619 -0.2125
  760POPS   C1B11275   3.229  14.553   5.907 -0.0321  0.3719  0.1620
  760POPS   C2B11276   3.424  14.378   6.146  0.0434  0.1617 -0.1461
  760POPS   C3B11277   3.495  14.636   6.503 -0.0016  0.0634 -0.1510
  760POPS   C4B11278   3.735  14.603   6.913  0.1167  0.0090 -0.0203
  761POPS   CNO11279  16.543  17.942   5.132 -0.0761  0.2185 -0.1362
  761POPS   PO411280  16.813  18.167   5.587 -0.1511  0.1485  0.0567
  761POPS   GL111281  16.903  17.897   5.907 -0.0283 -0.2327  0.1070
  761POPS   GL211282  16.794  17.579   5.929 -0.0897 -0.0908  0.1781
  761POPS   C1A11283  17.365  17.836   6.053 -0.1091 -0.0309  0.0730
  761POPS   D2A11284  17.645  18.096   6.053 -0.2657  0.0575  0.0326
  761POPS   C3A11285  18.104  18.152   6.152 -0.2063  0.2292 -0.1552
  761POPS   C4A11286  18.479  17.971   6.017  0.0168  0.0588  0.1751
  761POPS   C1B11287  16.775  17.715   6.321  0.0798 -0.2658  0.0568
  761POPS   C2B11288  16.593  17.944   6.728  0.2187  0.0672 -0.0967
  761POPS   C3B11289  16.610  18.135   7.222  0.2814 -0.3466  0.2699
  761POPS   C4B11290  16.749  18.388   7.625 -0.0280 -0.2215 -0.1461
  762POPS   CNO11291   3.045   8.268   4.894  0.3110 -0.0874 -0.3539
  762POPS   PO411292   2.943   8.595   5.183 -0.0128  0.0465  0.0566
  762POPS   GL111293   2.972   8.236   5.468 -0.1739 -0.1629  0.2078
  762POPS   GL211294   2.928   8.564   5.748  0.0504  0.0675 -0.2037
  762POPS   C1A11295   3.059   8.042   5.821 -0.0228  0.0705  0.1335
  762POPS   D2A11296   2.927   8.056   6.289  0.0949 -0.3125 -0.0695
  762POPS   C3A11297   2.621   8.406   6.382  0.0355 -0.0846  0.1497
  762POPS   C4A11298   2.363   8.665   6.067  0.0531 -0.1061 -0.6665
  762POPS   C1B11299   2.823   8.789   6.109  0.3239  0.0886  0.1904
  762POPS   C2B11300   2.650   8.931   6.462  0.0764 -0.0718  0.0957
  762POPS   C3B11301   2.351   9.077   6.830 -0.1528 -0.1874  0.2329
  762POPS   C4B11302   2.199   9.426   6.943  0.2677 -0.3016  0.0522
  763POPS   CNO11303  15.145   9.149   5.564 -0.0977  0.0032  0.4534
  763POPS   PO411304  15.376   9.455   5.485 -0.2909  0.0290 -0.1096
  763POPS   GL111305  15.442   9.610   5.857 -0.0720 -0.0234  0.4433
  763POPS   GL211306  15.753   9.794   5.907  0.3136  0.2839 -0.2055
  763POPS   C1A11307  15.234   9.614   6.173 -0.1568 -0.0455  0.2349
  763POPS   D2A11308  15.211   9.732   6.555 -0.0412 -0.2164  0.3741
  763POPS   C3A11309  14.833   9.479   6.587 -0.1322  0.1391  0.0888
  763POPS   C4A11310  14.653   8.967   6.380  0.0113  0.0444 -0.1189
  763POPS   C1B11311  15.737   9.887   6.326 -0.2673 -0.3450 -0.2043
  763POPS   C2B11312  15.664   9.830   6.736  0.1885  0.1644 -0.0150
  763POPS   C3B11313  15.818   9.769   7.104  0.1778 -0.1231  0.2171
  763POPS   C4B11314  16.046   9.956   7.488  0.3417  0.2497 -0.1575
  764POPS   CNO11315   6.303  14.945   5.431  0.3710 -0.2423  0.2241
  764POPS   PO411316   6.082  15.321   5.659 -0.2303 -0.2691  0.2020
  764POPS   GL111317   6.114  15.432   6.083 -0.1129  0.1018 -0.0503
  764POPS   GL211318   5.825  15.602   6.065  0.0833 -0.5121 -0.0468
  764POPS   C1A11319   6.104  15.337   6.527 -0.1595  0.3961 -0.1880
  764POPS   D2A11320   6.360  15.289   6.934 -0.1832 -0.2522  0.1198
  764POPS   C3A11321   6.757  15.419   7.109 -0.0465 -0.2194  0.1427
  764POPS   C4A11322   7.185  15.668   7.203  0.2727 -0.0459 -0.0509
  764POPS   C1B11323   5.759  15.661   6.483 -0.1358 -0.1990 -0.0144
  764POPS   C2B11324   5.596  15.715   6.938 -0.1484  0.1081 -0.0034
  764POPS   C3B11325   5.245  15.721   7.285  0.3441  0.1874 -0.0736
  764POPS   C4B11326   4.790  15.886   7.289  0.0837 -0.3009 -0.2851
  765POPS   CNO11327  19.146   4.512   5.435 -0.3517  0.1744  0.0196
  765POPS   PO411328  19.069   4.511   4.999  0.0738 -0.3367  0.2886
  765POPS   GL111329  18.715   4.654   5.207 -0.2230 -0.2833  0.1034
  765POPS   GL211330  18.499   4.995   5.240 -0.0863 -0.1020 -0.1870
  765POPS   C1A11331  18.364   4.738   5.580 -0.1748  0.1066  0.3842
  765POPS   D2A11332  18.247   4.917   6.067  0.3497  0.0978  0.0197
  765POPS   C3A11333  17.899   5.193   6.119  0.3143 -0.0068  0.2296
  765POPS   C4A11334  17.834   5.522   5.942 -0.0387  0.0758  0.0619
  765POPS   C1B11335  18.613   5.200   5.584  0.1619 -0.1247 -0.1471
  765POPS   C2B11336  18.390   5.326   6.013 -0.1210 -0.0754 -0.0854
  765POPS   C3B11337  18.320   5.265   6.427  0.0254 -0.3151  0.1002
  765POPS   C4B11338  17.983   5.028   6.556  0.1021 -0.0067 -0.1852
  766POPS   CNO11339   8.860   6.207   5.205 -0.4459 -0.1100 -0.0552
  766POPS   PO411340   8.682   6.456   5.491  0.2099  0.0369 -0.1447
  766POPS   GL111341   8.503   6.283   5.810 -0.0807  0.0281 -0.2600
  766POPS   GL211342   8.158   6.528   5.855  0.0834 -0.2109  0.1573
  766POPS   C1A11343   8.627   6.154   6.196  0.3117 -0.0532 -0.1030
  766POPS   D2A11344   8.459   5.999   6.591  0.2405  0.1909  0.1442
  766POPS   C3A11345   8.363   5.805   6.887 -0.0368  0.2543 -0.0188
  766POPS   C4A11346   8.164   5.691   7.229 -0.1967  0.1570  0.0073
  766POPS   C1B11347   8.029   6.152   6.111  0.2613 -0.1094  0.0974
  766POPS   C2B11348   7.972   6.041   6.526 -0.2384 -0.2096  0.0640
  766POPS   C3B11349   7.847   5.828   6.856 -0.1215  0.0103 -0.0815
  766POPS   C4B11350   7.729   5.440   6.960  0.2135  0.0443 -0.3834
  767POPS   CNO11351   5.050  11.398   4.523  0.1977 -0.0714 -0.0613
  767POPS   PO411352   4.908  11.300   4.852 -0.0058  0.1803 -0.2993
  767POPS   GL111353   5.024  11.207   5.245 -0.0099 -0.0769 -0.2365
  767POPS   GL211354   5.379  11.028   5.278  0.0434  0.0445  0.0023
  767POPS   C1A11355   4.926  10.984   5.572 -0.0485 -0.2200  0.2049
  767POPS   D2A11356   4.805  11.237   5.806  0.2631  0.0588  0.0595
  767POPS   C3A11357   5.084  11.455   6.045  0.0184 -0.0369 -0.0467
  767POPS   C4A11358   5.220  11.648   6.490  0.3048  0.0758 -0.2099
  767POPS   C1B11359   5.364  11.278   5.649  0.0033  0.1579 -0.0407
  767POPS   C2B11360   5.021  11.656   5.516  0.0142  0.1975 -0.1144
  767POPS   C3B11361   4.743  11.742   5.846 -0.0284  0.1315  0.0274
  767POPS   C4B11362   4.388  11.484   5.886  0.0488 -0.1881  0.0495
  768POPS   CNO11363   9.198   1.850   5.267  0.2658  0.0587 -0.0105
  768POPS   PO411364   9.538   2.060   5.209 -0.0031  0.4798  0.2744
  768POPS   GL111365   9.534   2.058   5.638 -0.5405 -0.1969  0.0749
  768POPS   GL211366   9.283   1.978   5.737 -0.0821  0.2985 -0.0048
  768POPS   C1A11367   9.415   2.422   5.899 -0.0826 -0.0837  0.2754
  768POPS   D2A11368   9.121   2.431   6.224 -0.0161 -0.1186 -0.0836
  768POPS   C3A11369   9.188   2.622   6.482 -0.3384 -0.3462 -0.2324
  768POPS   C4A11370   9.247   2.909   6.649  0.2935 -0.2788  0.2172
  768POPS   C1B11371   9.184   1.887   6.124  0.4167  0.2769 -0.1263
  768POPS   C2B11372   9.146   1.815   6.532  0.2542 -0.2600  0.2996
  768POPS   C3B11373   8.994   2.071   6.717  0.2349 -0.0735 -0.0957
  768POPS   C4B11374   8.843   2.202   7.174 -0.1748 -0.0258  0.1548
  769POPS   CNO11375   4.135  16.581   5.401  0.1769 -0.0210  0.1084
  769POPS   PO411376   4.295  16.853   5.552 -0.4053  0.1194 -0.0177
  769POPS   GL111377   4.436  16.916   5.916 -0.3998  0.2184 -0.0010
  769POPS   GL211378   4.820  16.813   6.000  0.1307  0.1797  0.1367
  769POPS   C1A11379   4.199  16.759   6.351 -0.1174 -0.0622 -0.3344
  769POPS   D2A11380   4.079  16.515   6.853 -0.0425  0.0985  0.1922
  769POPS   C3A11381   3.692  16.372   6.974  0.2395 -0.1823  0.2662
  769POPS   C4A11382   3.301  16.511   6.946 -0.1013 -0.2494  0.0320
  769POPS   C1B11383   4.732  16.578   6.454 -0.3834 -0.2384 -0.2370
  769POPS   C2B11384   4.564  16.718   6.764  0.0403 -0.2213  0.0674
  769POPS   C3B11385   4.416  17.044   6.970  0.1028 -0.2155 -0.4826
  769POPS   C4B11386   4.052  17.080   7.194 -0.2234 -0.0123 -0.1503
  770POPS   CNO11387   7.584   8.159   4.598  0.0591  0.2475  0.1002
  770POPS   PO411388   7.370   8.431   4.811 -0.3981 -0.0939 -0.1777
  770POPS   GL111389   7.406   8.426   5.246 -0.1031  0.1568 -0.2610
  770POPS   GL211390   7.671   8.285   5.457 -0.0421 -0.2256 -0.0741
  770POPS   C1A11391   7.140   8.651   5.593  0.1396  0.0879 -0.1483
  770POPS   D2A11392   7.032   8.531   5.925  0.1481  0.1223  0.0291
  770POPS   C3A11393   6.883   8.471   6.343 -0.2673  0.0397 -0.0306
  770POPS   C4A11394   6.844   8.362   6.713  0.2806 -0.1344 -0.0100
  770POPS   C1B11395   7.509   8.306   5.881 -0.1419  0.1755 -0.2480
  770POPS   C2B11396   7.477   8.060   6.261  0.2275 -0.1051  0.1929
  770POPS   C3B11397   7.299   8.025   6.658 -0.2407  0.0021 -0.2606
  770POPS   C4B11398   7.239   8.101   7.100 -0.0714  0.0279 -0.5007
  771POPS   CNO11399  14.430  19.011   6.279  0.0503 -0.3822  0.4220
  771POPS   PO411400  14.657  19.305   6.212 -0.0451  0.1188 -0.2616
  771POPS   GL111401  14.585  19.288   6.681  0.1194  0.3842  0.2047
  771POPS   GL211402  14.309  19.255   6.739  0.0156 -0.0428  0.2412
  771POPS   C1A11403  14.811  19.371   7.007  0.1857 -0.0898 -0.1120
  771POPS   D2A11404  14.693  19.402   7.491  0.1328  0.3243 -0.0351
  771POPS   C3A11405  14.766  19.623   7.831  0.0047 -0.0004 -0.1997
  771POPS   C4A11406  14.687  19.840   8.165 -0.2950  0.0048 -0.1227
  771POPS   C1B11407  14.218  19.272   7.153  0.0740 -0.1428  0.1654
  771POPS   C2B11408  14.169  19.393   7.517 -0.3988  0.0032  0.1861
  771POPS   C3B11409  14.288  19.763   7.730  0.3329  0.1514  0.0048
  771POPS   C4B11410  14.109  19.729   8.106 -0.1211  0.0445 -0.1229
  772POPS   CNO11411  14.217  11.102   5.310  0.0535 -0.0510  0.5080
  772POPS   PO411412  14.526  11.083   5.447 -0.0670  0.1421  0.0635
  772POPS   GL111413  14.275  11.065   5.824 -0.4353  0.0924  0.1571
  772POPS   GL211414  14.295  10.746   6.032 -0.1585 -0.2630 -0.0867
  772POPS   C1A11415  14.386  11.566   6.197 -0.0867  0.3135  0.2347
  772POPS   D2A11416  14.151  11.537   6.631  0.4431 -0.0973 -0.2846
  772POPS   C3A11417  14.448  11.576   6.970  0.1444 -0.0024 -0.0632
  772POPS   C4A11418  14.818  11.455   7.234 -0.2281  0.1318  0.3135
  772POPS   C1B11419  14.520  10.979   6.409  0.2621  0.1928  0.0898
  772POPS   C2B11420  14.205  11.031   6.787 -0.0058  0.1105 -0.0339
  772POPS   C3B11421  14.008  11.252   7.126  0.3463  0.1528 -0.3439
  772POPS   C4B11422  14.074  11.518   7.481  0.1722  0.1504  0.3573
  773POPS   CNO11423   4.074   6.787   4.633  0.1087 -0.2910  0.2486
  773POPS   PO411424   4.331   6.443   4.845  0.0695 -0.2483  0.0560
  773POPS   GL111425   4.226   6.293   5.136  0.0304  0.1399 -0.0151
  773POPS   GL211426   4.127   6.496   5.376  0.1108  0.4184  0.0487
  773POPS   C1A11427   4.003   6.069   5.530 -0.0001  0.2173 -0.1308
  773POPS   D2A11428   4.032   5.965   5.985 -0.1568 -0.2291 -0.2156
  773POPS   C3A11429   3.869   6.018   6.310  0.0763  0.1071  0.0126
  773POPS   C4A11430   3.939   6.149   6.878 -0.3426  0.1447  0.2628
  773POPS   C1B11431   4.471   6.339   5.738  0.1086  0.0912  0.0664
  773POPS   C2B11432   4.374   6.228   6.206 -0.1829  0.0138 -0.4050
  773POPS   C3B11433   4.376   6.113   6.583  0.1565 -0.7401  0.1313
  773POPS   C4B11434   4.554   6.120   6.908 -0.0305  0.2292 -0.0835
  774POPS   CNO11435  13.186  14.691   5.887  0.2952  0.2648 -0.0437
  774POPS   PO411436  12.867  14.395   6.037 -0.1093 -0.1298  0.1399
  774POPS   GL111437  13.148  14.251   6.293  0.1853  0.1862 -0.1338
  774POPS   GL211438  13.194  14.621   6.416  0.2817 -0.0926 -0.0661
  774POPS   C1A11439  13.065  14.228   6.686  0.1496  0.1058 -0.2401
  774POPS   D2A11440  13.100  13.923   7.108 -0.1636 -0.1685  0.2121
  774POPS   C3A11441  13.009  14.197   7.457 -0.3458 -0.2905  0.1868
  774POPS   C4A11442  12.614  14.246   7.549  0.0579  0.1567  0.2275
  774POPS   C1B11443  13.069  14.898   6.678 -0.0098 -0.0907 -0.0973
  774POPS   C2B11444  13.150  15.259   6.923  0.2080  0.4894  0.1331
  774POPS   C3B11445  13.089  15.620   7.003  0.0087 -0.0485 -0.1857
  774POPS   C4B11446  12.724  15.908   7.078 -0.0426 -0.0833 -0.1076
  775POPS   CNO11447   1.166  16.050   5.330 -0.0742  0.0304 -0.4879
  775POPS   PO411448   0.896  15.657   5.166 -0.2584  0.0151 -0.2269
  775POPS   GL111449   0.642  15.799   5.577  0.1348  0.3382  0.3237
  775POPS   GL211450   0.578  16.083   5.679 -0.0990  0.3066  0.2891
  775POPS   C1A11451   0.477  15.692   6.068 -0.0339  0.0636 -0.0187
  775POPS   D2A11452   0.204  15.745   6.509 -0.3074 -0.2355  0.1013
  775POPS   C3A11453   0.031  15.695   6.942 -0.0847  0.1448  0.0565
  775POPS   C4A11454  -0.100  15.450   7.326 -0.2097  0.1538  0.0924
  775POPS   C1B11455   1.072  16.021   5.850  0.0010  0.2848  0.0823
  775POPS   C2B11456   1.345  15.957   6.136 -0.3579 -0.0355  0.0536
  775POPS   C3B11457   1.494  15.740   6.500 -0.1527  0.2559 -0.0149
  775POPS   C4B11458   1.545  15.815   6.914  0.1335 -0.0643 -0.1179
  776POPS   CNO11459   0.780   4.866   5.526  0.1707 -0.0060  0.1590
  776POPS   PO411460   1.112   4.571   5.306  0.0198  0.1096 -0.0341
  776POPS   GL111461   1.181   4.663   5.788  0.1989  0.0415  0.1545
  776POPS   GL211462   1.168   5.021   5.849  0.0950  0.3693  0.1834
  776POPS   C1A11463   1.243   4.360   6.214  0.2338 -0.2410  0.0425
  776POPS   D2A11464   1.281   4.049   6.559 -0.2288 -0.1129 -0.0153
  776POPS   C3A11465   1.475   4.299   6.817  0.1991  0.0515 -0.1357
  776POPS   C4A11466   1.657   4.730   6.936  0.1860 -0.1503  0.2180
  776POPS   C1B11467   1.492   4.898   6.124  0.1793  0.1688 -0.2749
  776POPS   C2B11468   1.480   5.077   6.510  0.5040  0.1646  0.0252
  776POPS   C3B11469   1.433   5.168   6.918  0.0987  0.2203 -0.0169
  776POPS   C4B11470   1.426   5.067   7.281  0.1608  0.1334 -0.1388
  777POPS   CNO11471   3.308  18.182   5.464  0.3185  0.0347  0.0171
  777POPS   PO411472   3.104  17.886   5.485 -0.0140  0.0660 -0.0081
  777POPS   GL111473   3.202  17.787   5.892 -0.0763  0.0748  0.0252
  777POPS   GL211474   3.126  17.440   5.990  0.3081 -0.2651  0.0302
  777POPS   C1A11475   3.241  17.778   6.310 -0.0251  0.1600 -0.2729
  777POPS   D2A11476   3.171  17.889   6.752  0.1121  0.2892  0.0974
  777POPS   C3A11477   3.509  17.998   7.017 -0.0588 -0.0514  0.1372
  777POPS   C4A11478   3.863  18.001   7.195 -0.0171 -0.0748 -0.5486
  777POPS   C1B11479   3.229  17.141   6.289  0.2330 -0.1152 -0.1974
  777POPS   C2B11480   3.346  16.954   6.615 -0.1122 -0.1699  0.3129
  777POPS   C3B11481   3.064  16.978   7.018 -0.3868  0.3620  0.1150
  777POPS   C4B11482   2.909  17.290   7.276  0.0881 -0.1574  0.1866
  778POPS   CNO11483   3.098   1.706   4.475 -0.1227  0.0364 -0.2079
  778POPS   PO411484   3.170   1.602   4.969  0.2199  0.0162 -0.1203
  778POPS   GL111485   3.086   1.776   5.335  0.0533 -0.1170 -0.1935
  778POPS   GL211486   2.708   1.868   5.370  0.4322 -0.2103  0.0885
  778POPS   C1A11487   3.151   1.783   5.755 -0.0112 -0.1375  0.2698
  778POPS   D2A11488   3.006   1.742   6.123 -0.0786  0.1035  0.0411
  778POPS   C3A11489   3.166   1.960   6.455 -0.1415  0.3264 -0.1277
  778POPS   C4A11490   3.016   1.901   6.800  0.2182  0.3261  0.2510
  778POPS   C1B11491   2.679   2.013   5.727 -0.1725 -0.3578 -0.0152
  778POPS   C2B11492   2.651   2.087   6.147  0.1402 -0.1566  0.3348
  778POPS   C3B11493   2.748   2.347   6.462 -0.1974  0.1161  0.1452
  778POPS   C4B11494   2.581   2.404   6.864 -0.0871 -0.0000  0.3566
  779POPS   CNO11495  11.603   7.300   5.124 -0.1401  0.0000 -0.0073
  779POPS   PO411496  11.304   7.598   4.958 -0.0537 -0.3059  0.0111
  779POPS   GL111497  11.291   7.862   5.259 -0.0274  0.1946  0.1206
  779POPS   GL211498  11.042   7.811   5.464  0.0398 -0.0719 -0.4864
  779POPS   C1A11499  11.553   7.846   5.681 -0.1131 -0.4539 -0.2445
  779POPS   D2A11500  11.679   7.957   6.042 -0.4230 -0.2742  0.1220
  779POPS   C3A11501  11.827   8.237   6.272  0.1568 -0.4795  0.0683
  779POPS   C4A11502  11.636   8.406   6.629  0.1919  0.0946 -0.4505
  779POPS   C1B11503  11.152   7.873   5.953 -0.3611 -0.1912  0.2356
  779POPS   C2B11504  11.324   8.012   6.356 -0.2513 -0.1987  0.0680
  779POPS   C3B11505  11.317   8.065   6.841  0.1910  0.3370  0.0694
  779POPS   C4B11506  11.050   8.116   7.291 -0.3809  0.3976 -0.3635
  780POPS   CNO11507  16.884  16.248   5.427 -0.3621  0.1144 -0.0989
  780POPS   PO411508  17.306  16.449   5.546  0.1405 -0.1989  0.1802
  780POPS   GL111509  17.581  16.372   5.809 -0.0462  0.3014  0.1309
  780POPS   GL211510  17.802  16.627   5.920 -0.1297 -0.1099  0.0187
  780POPS   C1A11511  17.650  15.991   6.013 -0.0090 -0.0341 -0.0291
  780POPS   D2A11512  17.655  15.863   6.396  0.1027 -0.3126  0.1339
  780POPS   C3A11513  17.283  16.031   6.609  0.0760  0.1801 -0.2058
  780POPS   C4A11514  17.140  16.504   6.739 -0.1289 -0.1741 -0.1780
  780POPS   C1B11515  17.931  16.962   6.213 -0.1171 -0.2722 -0.2875
  780POPS   C2B11516  17.906  17.072   6.686 -0.2786 -0.2642 -0.0313
  780POPS   C3B11517  17.690  16.883   6.995 -0.1831 -0.1247 -0.0967
  780POPS   C4B11518  17.950  16.630   7.207  0.0038 -0.1754  0.1200
  781POPS   CNO11519   5.105   7.069   4.679  0.0644  0.1225  0.1714
  781POPS   PO411520   4.803   7.118   5.012 -0.0842  0.2509  0.3360
  781POPS   GL111521   5.040   7.072   5.278  0.1790 -0.1069  0.2992
  781POPS   GL211522   4.976   6.708   5.310 -0.0775  0.0479  0.1822
  781POPS   C1A11523   5.286   6.968   5.648  0.0024  0.3345 -0.0205
  781POPS   D2A11524   5.457   6.550   5.928 -0.0561  0.4704  0.3266
  781POPS   C3A11525   5.472   6.361   6.330  0.2610  0.2239 -0.2407
  781POPS   C4A11526   5.267   6.413   6.672  0.1149 -0.0708  0.0978
  781POPS   C1B11527   4.718   6.796   5.659 -0.0667 -0.1361 -0.0856
  781POPS   C2B11528   4.443   6.854   5.984  0.1843 -0.1352  0.1828
  781POPS   C3B11529   4.429   6.735   6.357  0.1844  0.4671  0.2892
  781POPS   C4B11530   4.530   6.905   6.718 -0.1178 -0.0116 -0.0211
  782POPS   CNO11531   6.352  13.256   5.403  0.0436 -0.2560 -0.1300
  782POPS   PO411532   6.285  13.410   5.810 -0.2067  0.2606  0.1669
  782POPS   GL111533   6.131  13.557   6.139  0.1556 -0.1348  0.1514
  782POPS   GL211534   5.868  13.457   6.218 -0.0620  0.0401 -0.1796
  782POPS   C1A11535   6.227  13.539   6.582  0.0867  0.1763  0.0051
  782POPS   D2A11536   6.145  13.535   7.075  0.1422  0.3461 -0.0036
  782POPS   C3A11537   5.855  13.814   7.163  0.1456  0.2299  0.2498
  782POPS   C4A11538   5.864  14.235   7.208 -0.0819  0.1327  0.0770
  782POPS   C1B11539   5.731  13.604   6.734  0.1234 -0.0431  0.0260
  782POPS   C2B11540   5.470  13.536   7.033 -0.2573  0.0067 -0.0595
  782POPS   C3B11541   5.044  13.570   7.273 -0.0010 -0.2273 -0.4731
  782POPS   C4B11542   4.585  13.622   7.209 -0.0252 -0.1950  0.2848
  783POPS   CNO11543   7.781  19.124   5.461  0.2182 -0.2442 -0.1098
  783POPS   PO411544   7.932  19.495   5.387  0.0079 -0.0229 -0.1579
  783POPS   GL111545   8.024  19.622   5.856 -0.0228 -0.0931 -0.2828
  783POPS   GL211546   7.970  19.935   5.989  0.0006 -0.1440  0.0194
  783POPS   C1A11547   8.213  19.482   6.176 -0.3365 -0.1037 -0.1696
  783POPS   D2A11548   8.297  19.417   6.634  0.2201  0.1338 -0.0602
  783POPS   C3A11549   8.687  19.285   6.996 -0.1690  0.2469  0.0026
  783POPS   C4A11550   9.073  19.162   7.097 -0.1726  0.2545  0.0816
  783POPS   C1B11551   7.976  19.871   6.380  0.2326  0.4061 -0.0469
  783POPS   C2B11552   7.891  19.896   6.884 -0.3284 -0.2027  0.0355
  783POPS   C3B11553   7.765  19.756   7.188 -0.0979 -0.2486 -0.1106
  783POPS   C4B11554   7.755  19.687   7.668  0.2690 -0.1812 -0.3380
  784POPS   CNO11555   9.490   0.369   5.478  0.1091 -0.2094  0.0159
  784POPS   PO411556   9.786   0.263   5.802 -0.2847 -0.1444 -0.1999
  784POPS   GL111557   9.705  -0.006   6.183  0.0688 -0.0314 -0.2249
  784POPS   GL211558  10.074  -0.066   6.188  0.0116 -0.0451 -0.0903
  784POPS   C1A11559   9.815   0.011   6.627  0.4526  0.1121  0.1974
  784POPS   D2A11560   9.990   0.246   6.917 -0.2434  0.0825 -0.0159
  784POPS   C3A11561   9.753   0.563   7.172 -0.2497 -0.0541  0.1422
  784POPS   C4A11562   9.900   0.900   7.415  0.2053  0.0704 -0.0070
  784POPS   C1B11563  10.303  -0.116   6.669 -0.1096 -0.1493 -0.2796
  784POPS   C2B11564  10.418  -0.120   7.050  0.0225  0.1549 -0.3473
  784POPS   C3B11565  10.425   0.160   7.302 -0.2062  0.0007  0.4194
  784POPS   C4B11566  10.274   0.621   7.071 -0.0723 -0.4311 -0.3557
  785POPS   CNO11567  10.157  15.232   5.588  0.1140  0.1808 -0.3836
  785POPS   PO411568   9.844  15.217   5.865  0.0283 -0.1072 -0.3801
  785POPS   GL111569   9.752  15.273   6.173  0.0780 -0.1130 -0.0956
  785POPS   GL211570   9.720  15.494   6.297  0.1786  0.1360 -0.4462
  785POPS   C1A11571   9.582  14.994   6.484 -0.1639 -0.2045 -0.3420
  785POPS   D2A11572   9.399  14.909   6.904  0.0707 -0.0944  0.1619
  785POPS   C3A11573   9.381  15.190   7.330 -0.0016  0.0078 -0.0428
  785POPS   C4A11574   9.791  15.186   7.669  0.0622 -0.0632 -0.1316
  785POPS   C1B11575   9.863  15.516   6.687 -0.3618 -0.0639  0.0682
  785POPS   C2B11576   9.870  15.300   7.088  0.0804  0.1054 -0.2774
  785POPS   C3B11577  10.227  15.112   7.336  0.2287 -0.0567  0.1805
  785POPS   C4B11578  10.291  14.964   7.777 -0.0653 -0.1312  0.0201
  786POPS   CNO11579  13.897   3.984   5.684 -0.3067 -0.1947  0.1348
  786POPS   PO411580  13.759   4.373   5.599  0.1045 -0.2489 -0.0055
  786POPS   GL111581  13.844   4.413   6.033 -0.0376  0.1519  0.4414
  786POPS   GL211582  13.609   4.598   6.250 -0.0819  0.1603  0.1787
  786POPS   C1A11583  13.814   4.215   6.466  0.0155  0.2852 -0.3164
  786POPS   D2A11584  13.800   3.763   6.674  0.0018 -0.2001  0.1341
  786POPS   C3A11585  13.488   3.624   6.883  0.1168 -0.1091 -0.0153
  786POPS   C4A11586  13.669   3.556   7.315 -0.2561  0.0358 -0.4037
  786POPS   C1B11587  13.429   4.502   6.578 -0.3063 -0.0108 -0.1408
  786POPS   C2B11588  13.427   4.727   6.925 -0.1774 -0.2811  0.1862
  786POPS   C3B11589  13.663   4.672   7.281  0.1914  0.0334 -0.3665
  786POPS   C4B11590  13.926   4.339   7.308 -0.0517  0.0132  0.2213
  787POPS   CNO11591   0.834   7.094   4.785  0.1949  0.0760  0.2160
  787POPS   PO411592   1.008   7.430   5.066 -0.2715 -0.4169 -0.2546
  787POPS   GL111593   0.989   7.472   5.461 -0.3147 -0.3857 -0.0968
  787POPS   GL211594   1.108   7.095   5.462 -0.0570 -0.2901  0.0202
  787POPS   C1A11595   0.998   7.775   5.799  0.2479  0.1383  0.0214
  787POPS   D2A11596   1.078   8.038   6.083  0.0220 -0.0403 -0.2735
  787POPS   C3A11597   0.910   8.463   6.085 -0.2085 -0.1533 -0.3772
  787POPS   C4A11598   0.908   8.860   5.942  0.2088  0.1064  0.3645
  787POPS   C1B11599   1.050   7.097   5.923 -0.5331 -0.0235 -0.0924
  787POPS   C2B11600   0.948   7.082   6.366  0.2432 -0.2148  0.1848
  787POPS   C3B11601   1.062   7.011   6.787  0.1777  0.1457 -0.2329
  787POPS   C4B11602   1.317   7.054   7.119  0.2395 -0.0264  0.2522
  788POPS   CNO11603   6.816   6.179   4.838  0.2197  0.2596  0.1615
  788POPS   PO411604   6.389   6.266   4.894 -0.1322 -0.0254  0.1492
  788POPS   GL111605   6.506   6.398   5.244 -0.2622 -0.0458 -0.0124
  788POPS   GL211606   6.770   6.146   5.387 -0.0876  0.0824 -0.0082
  788POPS   C1A11607   6.637   6.703   5.642  0.0794 -0.1364 -0.3600
  788POPS   D2A11608   6.724   6.735   6.146 -0.0615  0.2131 -0.1188
  788POPS   C3A11609   6.684   6.942   6.362  0.1443 -0.3935 -0.1097
  788POPS   C4A11610   6.971   7.137   6.660 -0.2517  0.0126 -0.1795
  788POPS   C1B11611   6.443   6.259   5.737 -0.1356  0.2488 -0.1707
  788POPS   C2B11612   6.364   6.359   6.207  0.0982  0.1473  0.0705
  788POPS   C3B11613   6.277   6.378   6.615  0.1119 -0.2335  0.0017
  788POPS   C4B11614   6.504   6.558   6.842  0.0128 -0.3625 -0.1220
  789POPS   CNO11615   8.115  13.946   5.607 -0.3396  0.2124 -0.0679
  789POPS   PO411616   8.422  13.804   5.342 -0.2821  0.1059  0.0416
  789POPS   GL111617   8.572  13.756   5.751  0.0418  0.3379 -0.0370
  789POPS   GL211618   8.364  13.470   5.873  0.1875 -0.3591 -0.0066
  789POPS   C1A11619   8.757  13.967   6.079 -0.2439  0.1988 -0.0998
  789POPS   D2A11620   8.977  14.198   6.268  0.0321  0.4641 -0.1405
  789POPS   C3A11621   9.370  14.135   6.244  0.0154  0.1963  0.2525
  789POPS   C4A11622   9.788  13.990   6.279 -0.1776 -0.1624 -0.3957
  789POPS   C1B11623   8.573  13.533   6.240 -0.2265 -0.0022  0.1547
  789POPS   C2B11624   8.743  13.562   6.701  0.1432 -0.0423  0.0165
  789POPS   C3B11625   8.800  13.248   7.053  0.0973  0.2148  0.2424
  789POPS   C4B11626   8.965  13.011   7.501 -0.5306  0.1185  0.0169
  790POPS   CNO11627   9.834   0.686   5.298 -0.0020  0.2515 -0.0593
  790POPS   PO411628   9.455   0.988   5.460  0.1071 -0.1086 -0.0709
  790POPS   GL111629   9.338   1.179   5.805 -0.0773 -0.2427  0.0248
  790POPS   GL211630   9.278   1.465   5.724 -0.1955 -0.1108 -0.0277
  790POPS   C1A11631   9.402   1.133   6.225  0.2413  0.1215  0.2286
  790POPS   D2A11632   9.207   1.279   6.490  0.1696  0.2528  0.1794
  790POPS   C3A11633   9.280   1.408   6.838  0.2852  0.2885 -0.0967
  790POPS   C4A11634   9.455   1.400   7.126 -0.0363  0.0093  0.1970
  790POPS   C1B11635   8.978   1.426   6.049 -0.1232  0.0732 -0.0981
  790POPS   C2B11636   8.781   1.485   6.519 -0.2653  0.3658  0.0771
  790POPS   C3B11637   8.391   1.387   6.846 -0.0553  0.0557  0.0336
  790POPS   C4B11638   8.071   1.224   7.043  0.0346  0.1520 -0.1449
  791POPS   CNO11639  19.303   6.603   4.749  0.1800  0.0754 -0.3502
  791POPS   PO411640  19.511   6.410   5.109  0.1053  0.0107 -0.1559
  791POPS   GL111641  19.589   6.580   5.557 -0.0204 -0.2594  0.0705
  791POPS   GL211642  19.406   6.843   5.682  0.0280 -0.2175  0.5356
  791POPS   C1A11643  19.557   6.467   5.994  0.1819  0.0529 -0.1669
  791POPS   D2A11644  19.578   6.364   6.422  0.2075  0.4831 -0.0467
  791POPS   C3A11645  19.873   6.206   6.657  0.0499  0.0432  0.1464
  791POPS   C4A11646  20.162   5.795   6.703  0.0188  0.1352  0.0835
  791POPS   C1B11647  19.164   6.905   6.020  0.3549 -0.0690  0.0488
  791POPS   C2B11648  18.914   6.984   6.408 -0.1418 -0.0420 -0.1413
  791POPS   C3B11649  19.070   7.100   6.770 -0.2943  0.2863  0.2055
  791POPS   C4B11650  19.403   7.299   6.811 -0.0590  0.1186  0.0068
  792POPS   CNO11651   8.860   1.690   4.869  0.1941 -0.0145  0.0058
  792POPS   PO411652   8.647   1.729   5.278 -0.0468 -0.1430  0.1053
  792POPS   GL111653   8.666   2.019   5.625 -0.0230 -0.1285 -0.2533
  792POPS   GL211654   8.844   2.285   5.743 -0.0857 -0.4473  0.0711
  792POPS   C1A11655   8.703   1.928   6.069 -0.0455  0.1256  0.1723
  792POPS   D2A11656   8.424   1.944   6.490  0.2579 -0.0416  0.1093
  792POPS   C3A11657   8.354   2.191   6.874  0.0038  0.0562  0.3237
  792POPS   C4A11658   8.113   2.330   7.174 -0.0554  0.1057 -0.3144
  792POPS   C1B11659   8.506   2.409   6.102  0.1355 -0.0407  0.1091
  792POPS   C2B11660   8.590   2.464   6.502 -0.0452 -0.0824  0.0245
  792POPS   C3B11661   8.885   2.570   6.878 -0.1382  0.1737 -0.1511
  792POPS   C4B11662   9.245   2.429   7.060  0.1418  0.2374  0.4307
  793POPS   CNO11663  12.168  19.291   6.057 -0.0416  0.2105 -0.1937
  793POPS   PO411664  12.462  19.036   6.126  0.0842  0.1228  0.2287
  793POPS   GL111665  12.627  18.820   6.546 -0.0065  0.0745  0.2148
  793POPS   GL211666  12.866  18.666   6.466  0.0009  0.1886 -0.3800
  793POPS   C1A11667  12.614  18.692   6.964  0.1468  0.0526  0.0102
  793POPS   D2A11668  12.357  18.813   7.280 -0.1889  0.2993 -0.0171
  793POPS   C3A11669  12.322  18.876   7.732  0.2531 -0.0102  0.1914
  793POPS   C4A11670  12.129  19.129   8.004 -0.1967  0.3373  0.4466
  793POPS   C1B11671  13.030  18.381   6.847  0.1100 -0.1226 -0.1213
  793POPS   C2B11672  12.895  17.943   6.851  0.0190 -0.1247  0.1096
  793POPS   C3B11673  12.649  17.817   7.225  0.0622  0.2932  0.0423
  793POPS   C4B11674  12.288  17.896   7.466 -0.1118  0.0002  0.2876
  794POPS   CNO11675  17.793  17.343   5.319  0.1058 -0.4566 -0.0052
  794POPS   PO411676  17.433  17.143   5.409 -0.0549  0.1055 -0.2107
  794POPS   GL111677  17.115  17.271   5.771 -0.1955  0.1777 -0.0041
  794POPS   GL211678  16.936  17.070   5.849  0.3225 -0.0115  0.0390
  794POPS   C1A11679  17.146  17.400   6.204  0.1206  0.3528  0.5205
  794POPS   D2A11680  17.196  17.621   6.511  0.0946  0.4536 -0.1645
  794POPS   C3A11681  17.493  17.621   6.921 -0.0227 -0.0588 -0.0708
  794POPS   C4A11682  17.621  17.674   7.407  0.1287  0.0442 -0.1008
  794POPS   C1B11683  16.705  16.897   6.106  0.0020  0.1390  0.3692
  794POPS   C2B11684  16.731  16.815   6.523 -0.0380 -0.1613  0.0251
  794POPS   C3B11685  16.693  16.353   6.670  0.1785 -0.2751  0.0701
  794POPS   C4B11686  16.875  16.172   6.977  0.1443  0.1455  0.0510
  795POPS   CNO11687   5.695   6.541   4.602  0.1274 -0.1456  0.2366
  795POPS   PO411688   5.380   6.406   4.821 -0.1250 -0.1120 -0.1687
  795POPS   GL111689   5.349   6.378   5.263  0.1389 -0.1227  0.1459
  795POPS   GL211690   5.676   6.483   5.459 -0.0367 -0.0577 -0.0404
  795POPS   C1A11691   5.095   6.403   5.641  0.1716  0.0936 -0.0844
  795POPS   D2A11692   4.892   6.271   5.973  0.3090  0.0878 -0.1457
  795POPS   C3A11693   4.817   6.353   6.440  0.0955 -0.5126 -0.3570
  795POPS   C4A11694   4.844   6.604   6.829 -0.1619  0.0836 -0.2553
  795POPS   C1B11695   5.458   6.110   5.663 -0.0167 -0.0103 -0.3154
  795POPS   C2B11696   5.334   5.950   6.032  0.2613 -0.3634  0.0855
  795POPS   C3B11697   5.401   5.833   6.412 -0.1893  0.1312 -0.0534
  795POPS   C4B11698   5.106   5.915   6.766 -0.0767 -0.1461 -0.0881
  796POPS   CNO11699  15.203  13.252   5.422 -0.3537 -0.2000  0.2882
  796POPS   PO411700  15.345  13.580   5.609  0.2844 -0.0807  0.1125
  796POPS   GL111701  15.520  13.627   5.984 -0.4425  0.1443 -0.0789
  796POPS   GL211702  15.389  13.442   6.136 -0.0279  0.0485 -0.1275
  796POPS   C1A11703  16.000  13.723   6.030 -0.0693  0.2989  0.0152
  796POPS   D2A11704  16.265  13.880   6.388 -0.0276  0.0433  0.1014
  796POPS   C3A11705  16.562  13.579   6.398 -0.2342 -0.2248 -0.1274
  796POPS   C4A11706  16.789  13.147   6.310  0.0299  0.2716 -0.0301
  796POPS   C1B11707  15.746  13.347   6.401  0.0223  0.5840 -0.0171
  796POPS   C2B11708  15.983  13.329   6.707 -0.2771 -0.1133  0.0455
  796POPS   C3B11709  15.956  13.572   7.114  0.0639  0.2531 -0.2033
  796POPS   C4B11710  16.010  13.826   7.498  0.3187 -0.1792 -0.1050
  797POPS   CNO11711  18.976  16.126   4.808 -0.1154  0.1027 -0.1598
  797POPS   PO411712  19.148  16.277   5.230  0.0444 -0.4056 -0.2907
  797POPS   GL111713  19.220  16.241   5.624 -0.1695 -0.0551  0.1691
  797POPS   GL211714  19.422  16.144   5.799 -0.1181 -0.1647 -0.0993
  797POPS   C1A11715  19.324  16.576   5.989 -0.1248  0.2380 -0.1261
  797POPS   D2A11716  19.527  16.809   6.226  0.0455 -0.2627  0.0319
  797POPS   C3A11717  20.014  16.846   6.381 -0.1010 -0.1424  0.3175
  797POPS   C4A11718  20.296  16.602   6.536 -0.1753 -0.1610  0.2151
  797POPS   C1B11719  19.499  16.217   6.255  0.3310  0.2847 -0.2554
  797POPS   C2B11720  19.818  16.264   6.526  0.3238  0.1798 -0.2741
  797POPS   C3B11721  19.891  16.534   6.889 -0.2232 -0.2869  0.2211
  797POPS   C4B11722  19.911  16.901   6.886 -0.3130  0.1294  0.0506
  798POPS   CNO11723  14.721  19.329   5.678  0.2894  0.1699  0.3202
  798POPS   PO411724  15.134  19.164   5.826 -0.0769  0.0617  0.1649
  798POPS   GL111725  15.240  18.941   6.216 -0.1239 -0.0138 -0.0387
  798POPS   GL211726  14.915  18.956   6.384  0.0449 -0.1672 -0.1909
  798POPS   C1A11727  15.478  18.966   6.642  0.1016 -0.2331  0.0650
  798POPS   D2A11728  15.704  18.821   6.917  0.3789  0.0489  0.2209
  798POPS   C3A11729  15.985  18.569   7.081 -0.3601  0.1448  0.0239
  798POPS   C4A11730  16.302  18.465   7.368  0.2082  0.0276  0.0883
  798POPS   C1B11731  15.146  19.334   6.609  0.0018  0.1569 -0.2935
  798POPS   C2B11732  15.339  19.409   7.047  0.0345 -0.2327  0.1300
  798POPS   C3B11733  15.583  19.125   7.316 -0.2308 -0.1691 -0.0951
  798POPS   C4B11734  15.703  18.769   7.402 -0.1499  0.1652 -0.0339
  799POPS   CNO11735  11.734   4.754   4.802 -0.0030  0.3738  0.1333
  799POPS   PO411736  11.677   5.038   5.182  0.1603  0.3045  0.0175
  799POPS   GL111737  11.768   5.083   5.596 -0.2219  0.1053  0.0876
  799POPS   GL211738  11.897   5.033   5.883  0.1773 -0.0107 -0.1958
  799POPS   C1A11739  11.467   4.729   5.901 -0.2698 -0.0732  0.2855
  799POPS   D2A11740  11.303   4.757   6.396 -0.1227 -0.0832 -0.0263
  799POPS   C3A11741  11.191   4.933   6.697 -0.2681 -0.1208  0.0534
  799POPS   C4A11742  11.174   4.994   7.121 -0.2352  0.3954  0.3069
  799POPS   C1B11743  11.730   5.144   6.303 -0.1438 -0.3942  0.1281
  799POPS   C2B11744  11.714   4.988   6.666 -0.1446  0.0451 -0.1994
  799POPS   C3B11745  12.084   4.956   6.985 -0.2340  0.0441  0.0663
  799POPS   C4B11746  12.212   4.619   7.299  0.1956  0.2909 -0.0097
  800POPS   CNO11747   6.865   7.637   4.958  0.0889 -0.1753  0.0639
  800POPS   PO411748   7.126   7.427   5.168  0.1977  0.0293  0.4107
  800POPS   GL111749   6.835   7.205   5.307 -0.0662 -0.2454  0.1381
  800POPS   GL211750   6.498   7.166   5.390 -0.0483  0.0831 -0.0202
  800POPS   C1A11751   6.881   7.071   5.811  0.0923 -0.1514 -0.1255
  800POPS   D2A11752   7.120   6.997   6.116 -0.2667 -0.0193 -0.0441
  800POPS   C3A11753   7.198   6.681   6.368 -0.5262 -0.0853 -0.0560
  800POPS   C4A11754   6.892   6.491   6.624 -0.0870 -0.0201 -0.0244
  800POPS   C1B11755   6.297   7.099   5.783 -0.0320 -0.1023  0.0807
  800POPS   C2B11756   6.314   6.887   6.043  0.1657  0.0395 -0.0506
  800POPS   C3B11757   6.119   6.947   6.385  0.2421  0.2526  0.0062
  800POPS   C4B11758   6.247   7.001   6.676  0.2919  0.0492  0.1078
  801POPS   CNO11759  17.998  17.045   5.002  0.0101  0.0731 -0.3721
  801POPS   PO411760  18.211  16.746   5.248  0.3924 -0.3089 -0.1408
  801POPS   GL111761  18.507  16.780   5.657  0.0080  0.3545 -0.1183
  801POPS   GL211762  18.303  16.704   5.893  0.0885  0.0597  0.2183
  801POPS   C1A11763  18.898  16.858   6.025 -0.0038  0.0750  0.1689
  801POPS   D2A11764  19.074  16.884   6.399  0.2146  0.0398  0.2074
  801POPS   C3A11765  18.924  17.117   6.639 -0.0857  0.1191 -0.0606
  801POPS   C4A11766  18.945  17.188   7.041 -0.1606 -0.1115 -0.0117
  801POPS   C1B11767  18.458  16.785   6.255 -0.1687 -0.2094 -0.0611
  801POPS   C2B11768  18.645  16.740   6.646 -0.1983  0.3417 -0.1167
  801POPS   C3B11769  19.015  16.640   6.848  0.1817 -0.1041  0.2250
  801POPS   C4B11770  19.412  16.703   6.741 -0.1095 -0.3561  0.4593
  802POPS   CNO11771   7.491   0.953   5.129 -0.0106 -0.2497 -0.6533
  802POPS   PO411772   7.596   1.112   5.517  0.0157 -0.1758  0.1723
  802POPS   GL111773   7.551   0.854   5.862 -0.0784  0.0553  0.4379
  802POPS   GL211774   7.212   0.843   5.971 -0.3934 -0.1165 -0.3478
  802POPS   C1A11775   7.670   0.987   6.222 -0.0721 -0.0337 -0.1119
  802POPS   D2A11776   7.799   0.965   6.569 -0.3198 -0.0824  0.1015
  802POPS   C3A11777   7.648   1.029   6.884 -0.0065  0.0417  0.1242
  802POPS   C4A11778   7.531   0.905   7.286  0.2108  0.1473 -0.0094
  802POPS   C1B11779   7.103   1.102   6.298 -0.0108  0.1566  0.4266
  802POPS   C2B11780   7.180   1.173   6.790  0.0774  0.0541 -0.0710
  802POPS   C3B11781   7.083   1.396   7.121  0.2338  0.0241  0.2166
  802POPS   C4B11782   7.208   1.170   7.549 -0.3451 -0.3954 -0.1363
  803POPS   CNO11783   8.094  18.138   5.981 -0.1339  0.1079 -0.0514
  803POPS   PO411784   7.734  17.890   5.743 -0.5065  0.0715  0.0996
  803POPS   GL111785   7.615  17.859   6.264 -0.1955  0.1527  0.2939
  803POPS   GL211786   7.841  18.033   6.380  0.0403 -0.2443  0.0794
  803POPS   C1A11787   7.565  17.997   6.755  0.5077 -0.1374  0.1112
  803POPS   D2A11788   7.739  18.112   7.223  0.1178 -0.1624  0.3032
  803POPS   C3A11789   7.569  18.348   7.491  0.0631  0.0441  0.4020
  803POPS   C4A11790   7.633  18.366   7.999 -0.1112  0.0165  0.5252
  803POPS   C1B11791   8.280  18.015   6.459 -0.1293  0.1151  0.2126
  803POPS   C2B11792   8.484  17.981   6.829 -0.0022 -0.0791 -0.2989
  803POPS   C3B11793   8.536  18.075   7.238 -0.0523  0.0650 -0.1885
  803POPS   C4B11794   8.530  18.170   7.642 -0.0772 -0.0151  0.1200
  804POPS   CNO11795   0.154   9.678   5.366 -0.1345  0.0873  0.1118
  804POPS   PO411796  -0.323   9.656   5.396  0.5118  0.2838  0.1741
  804POPS   GL111797  -0.132   9.550   5.861 -0.2322 -0.4155  0.0425
  804POPS   GL211798  -0.005   9.911   5.923  0.0189  0.2373  0.3661
  804POPS   C1A11799  -0.173   9.451   6.262  0.1263 -0.2692  0.1291
  804POPS   D2A11800  -0.172   9.618   6.660  0.1015  0.4015  0.4552
  804POPS   C3A11801   0.221   9.753   6.798  0.0365  0.0385  0.2013
  804POPS   C4A11802   0.487   9.741   7.128  0.1395 -0.2754  0.1303
  804POPS   C1B11803  -0.026  10.004   6.346 -0.2544  0.3270  0.0582
  804POPS   C2B11804  -0.369  10.077   6.719 -0.2085 -0.1057  0.4123
  804POPS   C3B11805  -0.520  10.187   7.078  0.2230  0.3436  0.1128
  804POPS   C4B11806  -0.602  10.426   7.333  0.4271 -0.0636  0.0322
  805POPS   CNO11807   3.936   5.415   4.959 -0.1026 -0.2337  0.2500
  805POPS   PO411808   4.168   5.396   4.587 -0.1562  0.2564 -0.1945
  805POPS   GL111809   4.470   5.310   4.992 -0.4047 -0.0426 -0.1771
  805POPS   GL211810   4.546   5.536   5.098 -0.2915 -0.1266  0.2302
  805POPS   C1A11811   4.597   4.955   5.200 -0.1185 -0.1895 -0.1866
  805POPS   D2A11812   4.477   4.649   5.598 -0.0193 -0.0448  0.0104
  805POPS   C3A11813   3.983   4.678   5.865 -0.0008 -0.2880  0.4162
  805POPS   C4A11814   3.803   4.674   6.234  0.2757  0.0294 -0.3715
  805POPS   C1B11815   4.206   5.588   5.323 -0.2094  0.1724 -0.2090
  805POPS   C2B11816   4.040   5.566   5.749 -0.2227 -0.0826  0.1935
  805POPS   C3B11817   3.803   5.445   5.996 -0.0977 -0.3664 -0.1340
  805POPS   C4B11818   3.611   5.414   6.325 -0.0317  0.2022  0.0439
  806POPS   CNO11819   9.156  10.834   5.171  0.1188  0.1366 -0.0781
  806POPS   PO411820   8.895  11.161   5.174  0.0959 -0.3608 -0.3642
  806POPS   GL111821   8.684  11.100   5.548  0.3971 -0.0683 -0.2440
  806POPS   GL211822   8.371  11.296   5.557 -0.0852 -0.0550 -0.0269
  806POPS   C1A11823   8.329  10.933   5.851  0.0509  0.0394  0.3315
  806POPS   D2A11824   8.575  10.835   6.199 -0.0479  0.1926 -0.0435
  806POPS   C3A11825   8.989  10.652   6.107  0.2420 -0.1451 -0.1721
  806POPS   C4A11826   9.351  10.545   6.359  0.2418 -0.1807 -0.1979
  806POPS   C1B11827   8.245  11.440   6.028  0.0613 -0.0200  0.0439
  806POPS   C2B11828   7.901  11.588   6.228 -0.2024 -0.0608 -0.0587
  806POPS   C3B11829   7.535  11.773   6.082 -0.0253  0.0607  0.1403
  806POPS   C4B11830   7.223  11.664   6.238 -0.0919  0.2757 -0.1195
  807POPS   CNO11831  14.334  14.264   5.804  0.0630 -0.2309 -0.2161
  807POPS   PO411832  14.633  14.051   5.664  0.0474 -0.3126 -0.0317
  807POPS   GL111833  14.641  13.794   6.017  0.2549  0.3183  0.1304
  807POPS   GL211834  14.982  13.828   5.988 -0.0195  0.0338  0.0274
  807POPS   C1A11835  14.709  13.702   6.396 -0.2276 -0.1087 -0.1093
  807POPS   D2A11836  14.909  13.809   6.855 -0.0371 -0.0263  0.1353
  807POPS   C3A11837  15.309  13.894   6.987 -0.5867  0.1961  0.1025
  807POPS   C4A11838  15.570  13.897   7.204 -0.1856 -0.1412 -0.2810
  807POPS   C1B11839  15.226  13.888   6.319 -0.0133  0.1221  0.1257
  807POPS   C2B11840  15.347  13.639   6.597 -0.1904  0.0642  0.4360
  807POPS   C3B11841  15.503  13.303   6.805 -0.2816 -0.1354 -0.1103
  807POPS   C4B11842  15.438  13.088   7.179 -0.1764  0.1323  0.1269
  808POPS   CNO11843   6.149  17.261   5.707  0.2495  0.0923 -0.0553
  808POPS   PO411844   5.729  17.363   5.636  0.0217  0.0601 -0.2159
  808POPS   GL111845   5.710  17.398   6.019  0.0067 -0.1681 -0.4706
  808POPS   GL211846   5.708  17.177   6.119  0.0008 -0.0683 -0.1769
  808POPS   C1A11847   5.814  17.672   6.338 -0.1860  0.0466  0.1524
  808POPS   D2A11848   5.586  17.774   6.734  0.2775 -0.1388  0.1270
  808POPS   C3A11849   5.657  17.735   7.084  0.0551 -0.2486 -0.0356
  808POPS   C4A11850   5.664  17.785   7.570  0.0564  0.0635  0.0820
  808POPS   C1B11851   5.884  17.007   6.540 -0.2978  0.2299 -0.0083
  808POPS   C2B11852   6.061  16.856   6.927  0.3091 -0.2538 -0.2406
  808POPS   C3B11853   6.175  17.100   7.292 -0.3176 -0.1385 -0.1678
  808POPS   C4B11854   6.178  17.425   7.500 -0.0089 -0.0591  0.4129
  809POPS   CNO11855  19.177  18.679   5.095  0.0073  0.0907 -0.2618
  809POPS   PO411856  19.558  18.751   5.365 -0.0204 -0.2147  0.2035
  809POPS   GL111857  19.384  18.792   5.754 -0.0636  0.0563 -0.0378
  809POPS   GL211858  19.043  18.669   5.609 -0.0671  0.1559 -0.0055
  809POPS   C1A11859  19.423  18.892   6.091 -0.0952 -0.2587 -0.1671
  809POPS   D2A11860  19.338  19.116   6.458 -0.1078  0.2018  0.0536
  809POPS   C3A11861  19.485  19.040   6.916 -0.0384  0.0810  0.0241
  809POPS   C4A11862  19.348  19.358   7.273  0.0975 -0.1576 -0.1251
  809POPS   C1B11863  19.225  18.375   5.922  0.0515 -0.1917 -0.0246
  809POPS   C2B11864  19.071  18.149   6.103 -0.0251 -0.3394  0.1336
  809POPS   C3B11865  18.787  18.187   6.432 -0.1999 -0.0154 -0.1711
  809POPS   C4B11866  18.703  18.144   6.870 -0.1608  0.0774  0.0019
  810POPS   CNO11867  14.231  12.889   5.470 -0.1569 -0.0739  0.0228
  810POPS   PO411868  13.828  12.745   5.556  0.2370 -0.3954 -0.1230
  810POPS   GL111869  13.687  12.874   5.966 -0.0271 -0.0608 -0.0317
  810POPS   GL211870  13.822  13.017   6.169 -0.0961  0.1411  0.1600
  810POPS   C1A11871  13.343  13.067   6.300  0.0493  0.1699  0.2937
  810POPS   D2A11872  13.233  13.515   6.525  0.2984  0.2628  0.0725
  810POPS   C3A11873  12.978  13.459   6.933 -0.3318  0.1498  0.0990
  810POPS   C4A11874  12.819  13.272   7.358 -0.2953  0.1314  0.0192
  810POPS   C1B11875  14.051  12.867   6.636  0.2048 -0.1688  0.4826
  810POPS   C2B11876  14.161  12.929   6.991  0.1695  0.0439  0.3570
  810POPS   C3B11877  14.329  12.726   7.420 -0.0519 -0.4186  0.0386
  810POPS   C4B11878  14.353  12.377   7.652  0.0653 -0.0307  0.1389
  811YOPS   CNO11879   4.892  12.979   5.280  0.0587  0.2362  0.1813
  811YOPS   PO411880   4.750  13.314   5.564 -0.1827  0.0805  0.0436
  811YOPS   GL111881   5.030  13.080   5.765 -0.1285  0.0322  0.1446
  811YOPS   GL211882   5.261  13.316   5.800 -0.0613 -0.0664  0.0767
  811YOPS   C1A11883   5.097  12.704   6.062  0.1757 -0.0641  0.1315
  811YOPS   D2A11884   5.135  12.411   6.366 -0.1846  0.1800  0.1633
  811YOPS   C3A11885   4.973  12.056   6.663  0.3779 -0.0146 -0.3488
  811YOPS   C4A11886   4.550  11.883   6.743 -0.1192  0.0862  0.1275
  811YOPS   C1B11887   5.360  13.217   6.184 -0.0110  0.0467 -0.3885
  811YOPS   C2B11888   5.420  13.065   6.539 -0.1903 -0.0231 -0.2316
  811YOPS   D3B11889   5.310  13.058   6.975  0.2273 -0.2901 -0.0452
  811YOPS   C4B11890   5.231  13.132   7.397 -0.2094  0.2039  0.1242
  812YOPS   CNO11891   1.430   9.014   4.671  0.0035  0.1434 -0.0562
  812YOPS   PO411892   1.354   9.398   4.823 -0.2590 -0.0708  0.0786
  812YOPS   GL111893   1.652   9.098   5.136  0.0717  0.0673 -0.6232
  812YOPS   GL211894   1.825   9.274   5.384  0.3780  0.0581  0.2516
  812YOPS   C1A11895   1.595   8.844   5.474  0.3036 -0.1897  0.2831
  812YOPS   D2A11896   1.442   8.879   5.911 -0.0832  0.3210 -0.1273
  812YOPS   C3A11897   1.403   8.817   6.373 -0.1196  0.0693 -0.1327
  812YOPS   C4A11898   1.158   8.524   6.645 -0.1951 -0.1068 -0.2968
  812YOPS   C1B11899   2.021   9.509   5.728 -0.0900  0.1757  0.1104
  812YOPS   C2B11900   1.855   9.689   6.089  0.2284  0.0106 -0.0880
  812YOPS   D3B11901   1.591   9.450   6.295  0.0431  0.0266  0.3873
  812YOPS   C4B11902   1.688   9.195   6.737  0.4299 -0.1012 -0.3110
  813YOPS   CNO11903   5.364  16.211   5.420  0.3112  0.1014  0.2153
  813YOPS   PO411904   4.974  16.137   5.677 -0.0172 -0.1949  0.3480
  813YOPS   GL111905   4.717  16.248   6.083  0.0468 -0.1552  0.0528
  813YOPS   GL211906   4.764  16.058   6.414 -0.2492  0.3065 -0.0333
  813YOPS   C1A11907   4.357  16.254   6.449  0.0818 -0.4476 -0.4354
  813YOPS   D2A11908   4.045  16.040   6.634 -0.0025 -0.0029  0.0821
  813YOPS   C3A11909   3.974  15.967   7.061 -0.2191 -0.1341 -0.1607
  813YOPS   C4A11910   4.313  15.814   7.462 -0.4421  0.2239  0.0384
  813YOPS   C1B11911   4.633  16.199   6.818  0.0641  0.0723  0.1875
  813YOPS   C2B11912   4.384  16.289   7.154  0.1956  0.0550  0.1195
  813YOPS   D3B11913   4.512  16.285   7.607 -0.4994  0.0009  0.1860
  813YOPS   C4B11914   4.862  16.298   7.977 -0.1193 -0.0827  0.0753
  814YOPS   CNO11915   3.584   7.534   4.429 -0.0519  0.1793 -0.1367
  814YOPS   PO411916   3.468   7.825   4.662 -0.0577 -0.0285  0.2067
  814YOPS   GL111917   3.590   7.765   5.225  0.1317 -0.1444 -0.0575
  814YOPS   GL211918   3.322   7.970   5.246 -0.0052  0.2546  0.2370
  814YOPS   C1A11919   3.664   7.951   5.669  0.0349 -0.3108  0.0517
  814YOPS   D2A11920   3.496   7.959   6.015  0.1234 -0.0562  0.0193
  814YOPS   C3A11921   3.526   7.980   6.366 -0.1823  0.0091 -0.2795
  814YOPS   C4A11922   3.266   7.695   6.561 -0.0646 -0.1077  0.1993
  814YOPS   C1B11923   2.850   7.782   5.367 -0.2196 -0.0740  0.1464
  814YOPS   C2B11924   2.378   7.990   5.477 -0.1007 -0.3244 -0.2721
  814YOPS   D3B11925   1.899   7.915   5.510 -0.3686  0.0824  0.1029
  814YOPS   C4B11926   1.593   7.925   5.867  0.2207  0.0501  0.1142
  815YOPS   CNO11927  19.133   2.644   5.230  0.1922  0.1495 -0.1513
  815YOPS   PO411928  18.670   2.663   5.405 -0.2554  0.0618  0.0325
  815YOPS   GL111929  18.606   2.820   5.876  0.1094 -0.1021  0.0973
  815YOPS   GL211930  18.352   2.966   5.913  0.0413  0.1520 -0.5379
  815YOPS   C1A11931  18.647   2.717   6.237  0.0550 -0.1400  0.1967
  815YOPS   D2A11932  18.724   2.788   6.610 -0.1136  0.2846  0.2823
  815YOPS   C3A11933  18.673   3.063   6.971 -0.1498 -0.2336  0.0145
  815YOPS   C4A11934  18.582   2.830   7.316 -0.0190  0.0378  0.0911
  815YOPS   C1B11935  18.233   2.955   6.447  0.0467 -0.2740 -0.3414
  815YOPS   C2B11936  17.806   2.960   6.602 -0.0598  0.2073 -0.1854
  815YOPS   D3B11937  17.720   2.825   6.945  0.2282  0.2062 -0.0557
  815YOPS   C4B11938  17.809   2.912   7.299  0.2068  0.3612 -0.1386
  816YOPS   CNO11939   1.125  10.012   5.412  0.0808  0.0275  0.3196
  816YOPS   PO411940   1.368   9.585   5.394 -0.0459 -0.2925 -0.2032
  816YOPS   GL111941   1.485   9.433   5.792 -0.0134  0.1523 -0.0460
  816YOPS   GL211942   1.121   9.359   5.908 -0.0234  0.4399  0.1417
  816YOPS   C1A11943   1.826   9.126   6.057 -0.0144  0.2644 -0.0960
  816YOPS   D2A11944   1.952   8.840   6.304 -0.0900 -0.1411  0.0647
  816YOPS   C3A11945   1.706   8.536   6.659 -0.0424 -0.2936  0.0890
  816YOPS   C4A11946   1.999   8.335   7.026  0.0309 -0.0246 -0.3551
  816YOPS   C1B11947   1.088   9.239   6.354 -0.5740  0.2810  0.3562
  816YOPS   C2B11948   1.107   9.036   6.701 -0.0834 -0.0045  0.1934
  816YOPS   D3B11949   1.417   8.873   7.032  0.2189 -0.1993  0.1439
  816YOPS   C4B11950   1.454   8.410   7.086 -0.6018  0.1397  0.2410
  817YOPS   CNO11951   8.016   3.980   4.349 -0.1312  0.2310  0.3009
  817YOPS   PO411952   7.789   4.062   4.770  0.0606  0.0095  0.1756
  817YOPS   GL111953   7.736   3.757   5.063  0.0828 -0.0705 -0.2123
  817YOPS   GL211954   7.801   3.486   5.068  0.1459 -0.1850 -0.1432
  817YOPS   C1A11955   7.605   3.819   5.505  0.0080 -0.0063 -0.4636
  817YOPS   D2A11956   7.394   3.785   5.855  0.2563 -0.0085  0.0358
  817YOPS   C3A11957   7.311   3.690   6.363 -0.2376 -0.0282  0.0254
  817YOPS   C4A11958   7.770   3.515   6.404  0.0776  0.0956  0.4673
  817YOPS   C1B11959   7.892   3.408   5.448 -0.1190  0.1491 -0.2169
  817YOPS   C2B11960   7.997   3.071   5.714  0.0898 -0.0654  0.0249
  817YOPS   D3B11961   7.891   3.068   6.163 -0.2967  0.0666 -0.0296
  817YOPS   C4B11962   8.350   2.929   6.329 -0.1010 -0.1741 -0.2003
  818YOPS   CNO11963   5.762   9.152   4.575  0.1056 -0.0660  0.1283
  818YOPS   PO411964   5.423   9.184   4.758  0.1132 -0.0599 -0.5533
  818YOPS   GL111965   5.569   9.186   5.186 -0.3149  0.0368  0.3165
  818YOPS   GL211966   5.451   9.491   5.382  0.0264 -0.0101  0.1550
  818YOPS   C1A11967   5.673   9.163   5.646 -0.0124 -0.0486  0.0337
  818YOPS   D2A11968   5.968   9.051   5.924 -0.0316  0.0467 -0.1505
  818YOPS   C3A11969   6.245   8.935   6.238  0.0908  0.1005  0.3556
  818YOPS   C4A11970   6.597   8.849   6.045 -0.1744  0.0542  0.2426
  818YOPS   C1B11971   5.173   9.460   5.615  0.2203  0.0597  0.1461
  818YOPS   C2B11972   4.884   9.710   5.854  0.0732  0.1478  0.1188
  818YOPS   D3B11973   5.126  10.159   5.949  0.0846 -0.0166 -0.1305
  818YOPS   C4B11974   5.318  10.322   6.246 -0.0456 -0.0792  0.2679
  819YOPS   CNO11975   4.563  14.691   5.431  0.0336  0.3203  0.3315
  819YOPS   PO411976   4.836  14.336   5.488 -0.2114  0.0298  0.2063
  819YOPS   GL111977   4.764  14.258   5.831  0.0143  0.0347 -0.1430
  819YOPS   GL211978   4.445  14.365   5.863 -0.1021  0.2365 -0.0617
  819YOPS   C1A11979   4.724  14.340   6.273 -0.2145  0.1642 -0.0160
  819YOPS   D2A11980   4.836  14.461   6.610  0.2573 -0.1493 -0.1697
  819YOPS   C3A11981   4.896  14.444   7.029 -0.2488  0.3371  0.1172
  819YOPS   C4A11982   5.209  14.687   7.126  0.1183 -0.0632  0.0807
  819YOPS   C1B11983   4.042  14.430   5.863 -0.2259  0.1180  0.2115
  819YOPS   C2B11984   3.866  14.696   6.147  0.0006 -0.4828 -0.1945
  819YOPS   D3B11985   3.746  15.156   6.143  0.0381 -0.0532  0.1538
  819YOPS   C4B11986   3.689  15.141   6.552 -0.0983 -0.0755 -0.2897
  820YOPS   CNO11987   4.799   7.443   4.564  0.2997  0.0107 -0.3976
  820YOPS   PO411988   4.359   7.410   4.747 -0.0481  0.0231  0.0147
  820YOPS   GL111989   4.275   7.308   5.111 -0.0448  0.2262  0.0056
  820YOPS   GL211990   3.987   7.350   5.251  0.0370 -0.2035  0.0591
  820YOPS   C1A11991   4.338   7.259   5.615  0.2725  0.3149  0.2376
  820YOPS   D2A11992   4.483   7.359   5.962  0.0028 -0.2682 -0.0174
  820YOPS   C3A11993   4.770   7.276   6.232 -0.1373 -0.0558 -0.0292
  820YOPS   C4A11994   4.718   7.357   6.625 -0.3685 -0.0727  0.1855
  820YOPS   C1B11995   3.708   7.353   5.538  0.2918  0.0217 -0.2668
  820YOPS   C2B11996   3.621   7.381   5.946  0.4895 -0.1935 -0.2968
  820YOPS   D3B11997   3.406   7.259   6.301 -0.2207  0.1986  0.2555
  820YOPS   C4B11998   3.599   7.374   6.537 -0.2704  0.1548 -0.1160
  821YOPS   CNO11999   6.814  12.637   5.049  0.0745 -0.0458 -0.0001
  821YOPS   PO412000   6.866  12.565   5.495 -0.0210 -0.0425  0.2771
  821YOPS   GL112001   6.761  12.481   5.814 -0.0769  0.0339 -0.2541
  821YOPS   GL212002   6.833  12.188   5.844  0.0750 -0.2382 -0.1553
  821YOPS   C1A12003   6.704  12.537   6.238 -0.4332  0.3086 -0.3588
  821YOPS   D2A12004   6.536  12.889   6.413 -0.3669  0.2216 -0.0476
  821YOPS   C3A12005   6.504  13.166   6.778  0.0398 -0.0353  0.3696
  821YOPS   C4A12006   6.708  13.147   7.044  0.0223 -0.0555  0.0082
  821YOPS   C1B12007   6.772  11.758   6.083 -0.0796  0.0756 -0.0650
  821YOPS   C2B12008   6.771  11.470   6.342 -0.1659  0.1070 -0.1233
  821YOPS   D3B12009   7.141  11.356   6.675 -0.0037 -0.2768  0.1024
  821YOPS   C4B12010   7.093  11.092   6.988  0.0497  0.0339 -0.1178
  822YOPS   CNO12011  10.966  14.282   5.819  0.3170  0.0997 -0.1747
  822YOPS   PO412012  10.796  14.684   6.020  0.3503  0.0074  0.1560
  822YOPS   GL112013  10.732  14.757   6.467 -0.1033  0.1191 -0.0639
  822YOPS   GL212014  10.495  14.609   6.480  0.2538  0.0484 -0.3109
  822YOPS   C1A12015  10.547  14.933   6.889 -0.1144  0.2131 -0.0819
  822YOPS   D2A12016  10.673  14.910   7.391 -0.1210 -0.3038  0.0558
  822YOPS   C3A12017  10.860  14.684   7.726  0.2826  0.0036  0.1471
  822YOPS   C4A12018  10.936  14.784   8.126 -0.0803  0.3235  0.0084
  822YOPS   C1B12019  10.283  14.515   6.832  0.2164  0.2862  0.2018
  822YOPS   C2B12020  10.328  14.511   7.163  0.2415 -0.0431  0.0209
  822YOPS   D3B12021  10.449  14.384   7.580 -0.0110 -0.1492  0.1467
  822YOPS   C4B12022  10.598  13.997   7.682 -0.0784  0.2192  0.2322
  823YOPS   CNO12023   0.876  11.203   4.412 -0.4392  0.1973  0.0666
  823YOPS   PO412024   0.989  11.456   4.724 -0.1854  0.1219 -0.1915
  823YOPS   GL112025   1.070  11.539   5.140  0.0574 -0.0139 -0.1343
  823YOPS   GL212026   1.074  11.185   5.245  0.0391 -0.1135  0.2737
  823YOPS   C1A12027   0.735  11.549   5.416  0.3608  0.1496 -0.3520
  823YOPS   D2A12028   0.570  11.549   5.720 -0.1810 -0.2333 -0.2246
  823YOPS   C3A12029   0.375  11.226   5.909 -0.5342  0.1374 -0.0301
  823YOPS   C4A12030   0.558  11.108   6.223 -0.0874 -0.0872 -0.2117
  823YOPS   C1B12031   1.308  11.319   5.654  0.0535 -0.2678  0.1102
  823YOPS   C2B12032   1.448  11.068   6.046 -0.2853  0.1623 -0.0372
  823YOPS   D3B12033   1.331  11.165   6.520  0.1432  0.1433 -0.1778
  823YOPS   C4B12034   0.801  11.162   6.630  0.0163 -0.0252  0.1543
  824YOPS   CNO12035  11.404  13.200   5.785 -0.2186 -0.1440  0.0017
  824YOPS   PO412036  11.801  13.180   5.603  0.2960 -0.3724 -0.0284
  824YOPS   GL112037  11.943  12.933   5.957  0.4348  0.1410  0.0421
  824YOPS   GL212038  11.621  12.733   5.906 -0.0423 -0.1390  0.2904
  824YOPS   C1A12039  11.932  12.768   6.410  0.1104 -0.0747  0.1073
  824YOPS   D2A12040  12.056  12.875   6.865  0.1591  0.1004 -0.2890
  824YOPS   C3A12041  12.305  12.834   7.286 -0.1346 -0.0260  0.2890
  824YOPS   C4A12042  12.399  13.240   7.548  0.1109 -0.3039 -0.2026
  824YOPS   C1B12043  11.496  12.554   6.264  0.1303 -0.3192 -0.1466
  824YOPS   C2B12044  11.710  12.543   6.761 -0.2464  0.0445  0.0547
  824YOPS   D3B12045  11.650  12.418   7.191  0.0553  0.1719 -0.1961
  824YOPS   C4B12046  11.189  12.351   7.093  0.4377 -0.0653 -0.0114
  825YOPS   CNO12047  10.498  10.847   5.078 -0.1170  0.0732 -0.0234
  825YOPS   PO412048  10.591  10.505   5.346 -0.1150 -0.4870 -0.0359
  825YOPS   GL112049  10.445  10.491   5.811  0.1297 -0.1505  0.1282
  825YOPS   GL212050  10.038  10.436   5.874  0.1376 -0.0437  0.3142
  825YOPS   C1A12051  10.286  10.372   6.275  0.1733 -0.3160 -0.0924
  825YOPS   D2A12052  10.347  10.326   6.670 -0.2482 -0.2405 -0.0827
  825YOPS   C3A12053  10.340  10.330   7.079  0.0403 -0.1121 -0.0797
  825YOPS   C4A12054  10.658  10.438   7.208  0.1944  0.3129 -0.2497
  825YOPS   C1B12055   9.873  10.597   6.195  0.1641  0.1075 -0.0223
  825YOPS   C2B12056   9.800  10.547   6.592  0.0465 -0.0248  0.3173
  825YOPS   D3B12057   9.959  10.686   6.981  0.1925  0.4102  0.0360
  825YOPS   C4B12058   9.821  10.903   7.339  0.0563  0.1502  0.0349
  826YOPS   CNO12059   1.613  13.685   4.749  0.1342  0.0536 -0.1210
  826YOPS   PO412060   1.203  13.803   4.685  0.3569  0.1577 -0.1778
  826YOPS   GL112061   1.389  14.045   5.075  0.0061  0.3153  0.0776
  826YOPS   GL212062   1.298  13.911   5.341 -0.0647 -0.3012 -0.0854
  826YOPS   C1A12063   1.809  13.864   5.322 -0.1628  0.0359  0.1225
  826YOPS   D2A12064   2.009  13.494   5.474  0.1932 -0.0190  0.0299
  826YOPS   C3A12065   2.097  13.099   5.817  0.1512  0.1435 -0.2666
  826YOPS   C4A12066   1.746  12.935   5.939  0.1668 -0.0504 -0.1677
  826YOPS   C1B12067   1.515  13.858   5.722  0.2062  0.1710 -0.0194
  826YOPS   C2B12068   1.524  13.462   5.939  0.1469  0.2915 -0.0286
  826YOPS   D3B12069   1.587  13.145   6.341  0.2118 -0.1146  0.0775
  826YOPS   C4B12070   1.833  12.785   6.397 -0.1040 -0.0876  0.2566
  827YOPS   CNO12071  10.524   5.974   5.309  0.1326  0.2739 -0.2119
  827YOPS   PO412072  10.938   5.879   5.117 -0.2268  0.0156 -0.1391
  827YOPS   GL112073  11.300   5.895   5.495  0.4548 -0.1621 -0.0750
  827YOPS   GL212074  11.207   6.148   5.851 -0.1536 -0.3543 -0.0356
  827YOPS   C1A12075  11.721   6.088   5.774  0.3185  0.0397  0.1012
  827YOPS   D2A12076  12.033   6.388   5.953  0.2789 -0.1149 -0.2953
  827YOPS   C3A12077  12.130   6.628   6.266 -0.3505 -0.0922 -0.0562
  827YOPS   C4A12078  12.208   6.988   6.599 -0.2429 -0.1634 -0.3034
  827YOPS   C1B12079  10.795   6.368   5.931 -0.1532  0.1215  0.1487
  827YOPS   C2B12080  10.421   6.226   6.039  0.2114  0.5138 -0.1264
  827YOPS   D3B12081  10.055   6.092   6.459 -0.4158 -0.0697 -0.2218
  827YOPS   C4B12082  10.260   6.100   6.894  0.0377 -0.0758  0.0523
  828YOPS   CNO12083   5.580   7.174   4.768 -0.0540 -0.0924 -0.1987
  828YOPS   PO412084   5.992   7.058   4.957  0.1112 -0.0103  0.2381
  828YOPS   GL112085   5.996   6.966   5.388 -0.0662 -0.0938 -0.5467
  828YOPS   GL212086   6.206   6.773   5.432 -0.1011  0.1428 -0.1369
  828YOPS   C1A12087   5.787   7.062   5.718  0.2540  0.0867 -0.0798
  828YOPS   D2A12088   5.654   7.040   6.085 -0.1268  0.2174 -0.0177
  828YOPS   C3A12089   5.408   6.868   6.445 -0.1897  0.1551 -0.0553
  828YOPS   C4A12090   4.979   6.827   6.206  0.2889 -0.1421 -0.2165
  828YOPS   C1B12091   6.006   6.586   5.803  0.1064  0.3688  0.1867
  828YOPS   C2B12092   5.910   6.550   6.235  0.2511  0.1856  0.3369
  828YOPS   D3B12093   5.793   6.550   6.700 -0.1889 -0.1786 -0.0291
  828YOPS   C4B12094   5.819   6.812   6.885 -0.5131 -0.2139  0.3097
  829YOPS   CNO12095   0.790   3.355   4.927 -0.1484 -0.2779  0.1116
  829YOPS   PO412096   0.427   3.156   5.171  0.0490 -0.1290 -0.0035
  829YOPS   GL112097   0.749   3.350   5.513  0.1620 -0.2835  0.0400
  829YOPS   GL212098   0.584   3.549   5.810  0.0904  0.3150  0.0087
  829YOPS   C1A12099   1.059   3.479   5.895 -0.1793 -0.1317  0.0588
  829YOPS   D2A12100   1.048   3.497   6.304 -0.0702  0.1458 -0.0902
  829YOPS   C3A12101   0.878   3.680   6.658 -0.0163  0.1075  0.2325
  829YOPS   C4A12102   0.715   3.911   7.029  0.1106 -0.0521  0.6207
  829YOPS   C1B12103   0.489   3.506   6.193 -0.2101  0.1648  0.0760
  829YOPS   C2B12104   0.588   3.306   6.501 -0.2886  0.0386 -0.3669
  829YOPS   D3B12105   0.731   2.959   6.951 -0.3334  0.1168  0.4991
  829YOPS   C4B12106   0.351   2.835   7.084 -0.2213 -0.0915  0.1280
  830YOPS   CNO12107   5.138   7.830   5.246  0.1490  0.1221 -0.0268
  830YOPS   PO412108   4.736   8.145   5.170 -0.4313  0.1881  0.1647
  830YOPS   GL112109   4.792   8.059   5.601  0.0703 -0.0673  0.2067
  830YOPS   GL212110   4.828   7.703   5.641 -0.2233 -0.0688 -0.2042
  830YOPS   C1A12111   4.534   7.875   5.929  0.3568 -0.3410 -0.1815
  830YOPS   D2A12112   4.567   7.846   6.342  0.1045  0.1502  0.1360
  830YOPS   C3A12113   4.237   7.994   6.662 -0.2156  0.0888 -0.0294
  830YOPS   C4A12114   4.127   8.378   6.829 -0.0408  0.2388 -0.1824
  830YOPS   C1B12115   4.896   7.271   5.705  0.0579 -0.4856 -0.0464
  830YOPS   C2B12116   5.208   7.261   6.068 -0.1609  0.1664 -0.1517
  830YOPS   D3B12117   5.276   7.333   6.497  0.3472  0.2493  0.2230
  830YOPS   C4B12118   5.189   7.019   6.885  0.0567  0.4084 -0.0538
  831YOPS   CNO12119   3.830  11.809   5.150 -0.1851 -0.0784 -0.0570
  831YOPS   PO412120   3.559  12.156   5.138  0.1904 -0.1535 -0.0481
  831YOPS   GL112121   3.683  12.217   5.543 -0.0381 -0.1786 -0.0824
  831YOPS   GL212122   4.025  12.296   5.814 -0.1536 -0.1268  0.0863
  831YOPS   C1A12123   3.538  12.337   5.886 -0.0731 -0.0673 -0.0779
  831YOPS   D2A12124   3.279  12.512   6.200  0.0422 -0.0363 -0.0626
  831YOPS   C3A12125   3.008  12.552   6.685 -0.0047  0.0838  0.1017
  831YOPS   C4A12126   3.157  12.683   7.084 -0.0806  0.0658  0.1511
  831YOPS   C1B12127   3.985  12.287   6.234  0.0001 -0.1737 -0.2006
  831YOPS   C2B12128   4.071  12.082   6.639 -0.2560  0.3311  0.2511
  831YOPS   D3B12129   3.766  11.813   6.854  0.1909  0.1847 -0.1232
  831YOPS   C4B12130   3.479  11.673   6.601 -0.1154  0.0185  0.1387
  832YOPS   CNO12131   2.630   9.385   5.060 -0.1836 -0.0048 -0.4061
  832YOPS   PO412132   2.272   9.253   4.926 -0.5153  0.3081 -0.1779
  832YOPS   GL112133   2.175   8.848   5.126 -0.2570  0.1601  0.0676
  832YOPS   GL212134   2.414   8.884   5.278  0.1777  0.0024 -0.1672
  832YOPS   C1A12135   1.969   8.487   5.367  0.0043 -0.1294  0.5656
  832YOPS   D2A12136   1.695   8.332   5.524 -0.0737 -0.0333  0.1098
  832YOPS   C3A12137   1.312   8.406   5.754  0.0179  0.2856 -0.1040
  832YOPS   C4A12138   1.433   8.345   6.187 -0.1320  0.1005  0.1205
  832YOPS   C1B12139   2.398   8.474   5.601  0.2568  0.4481  0.2463
  832YOPS   C2B12140   2.575   8.129   5.900  0.0659 -0.1404  0.2383
  832YOPS   D3B12141   2.483   7.918   6.350  0.1640 -0.1433 -0.1892
  832YOPS   C4B12142   2.115   8.150   6.560  0.2091  0.0160 -0.0578
  833YOPS   CNO12143  17.928  13.621   4.614 -0.0532  0.0175  0.0366
  833YOPS   PO412144  18.232  13.307   4.662 -0.0184 -0.0067 -0.2985
  833YOPS   GL112145  18.197  13.359   5.088 -0.1575  0.3726  0.3015
  833YOPS   GL212146  17.964  13.620   5.177 -0.2598  0.3206  0.3196
  833YOPS   C1A12147  18.207  13.453   5.587  0.0954 -0.2533  0.1234
  833YOPS   D2A12148  18.256  13.160   5.935  0.1058  0.1998 -0.1345
  833YOPS   C3A12149  18.441  12.891   6.292 -0.1267  0.3112 -0.1382
  833YOPS   C4A12150  18.209  12.617   6.497 -0.0471 -0.0718  0.0848
  833YOPS   C1B12151  17.664  13.640   5.445 -0.1197 -0.2394 -0.0176
  833YOPS   C2B12152  17.829  13.536   5.873 -0.3453  0.1493  0.1801
  833YOPS   D3B12153  17.820  13.370   6.228  0.4598  0.1193 -0.1276
  833YOPS   C4B12154  18.039  13.152   6.574 -0.0237  0.0027  0.0998
  834YOPS   CNO12155   7.688  13.230   4.962  0.1368  0.0834  0.4155
  834YOPS   PO412156   7.728  13.116   5.474  0.0468  0.1667 -0.2321
  834YOPS   GL112157   7.773  13.204   5.863  0.1945 -0.0172  0.2874
  834YOPS   GL212158   8.019  13.138   5.953  0.0903 -0.2854 -0.1570
  834YOPS   C1A12159   7.451  13.439   6.196  0.0851  0.1419  0.0800
  834YOPS   D2A12160   7.505  13.435   6.656  0.0704 -0.0333  0.0413
  834YOPS   C3A12161   7.750  13.437   7.032 -0.0200 -0.2873  0.0626
  834YOPS   C4A12162   8.160  13.358   7.039 -0.2120  0.0359  0.0905
  834YOPS   C1B12163   8.140  13.016   6.362  0.2233  0.1248  0.0696
  834YOPS   C2B12164   8.025  12.944   6.817 -0.0501  0.0894  0.2580
  834YOPS   D3B12165   7.800  12.974   7.167  0.0518 -0.0356 -0.1353
  834YOPS   C4B12166   8.115  12.905   7.484 -0.2225 -0.1408  0.0762
  835YOPS   CNO12167  13.953   2.277   5.921 -0.0433  0.2530  0.0645
  835YOPS   PO412168  14.203   2.639   5.841  0.0283 -0.1683 -0.0166
  835YOPS   GL112169  14.363   2.853   6.161  0.1971  0.4779  0.1987
  835YOPS   GL212170  14.014   2.756   6.287  0.0972  0.0035 -0.0414
  835YOPS   C1A12171  14.453   3.153   6.447  0.1100  0.1336 -0.2015
  835YOPS   D2A12172  14.765   3.324   6.735 -0.1827  0.0171  0.1016
  835YOPS   C3A12173  14.931   3.441   7.103 -0.0526  0.0764  0.3125
  835YOPS   C4A12174  14.767   3.410   7.490  0.1423 -0.2000 -0.1041
  835YOPS   C1B12175  13.765   2.867   6.624  0.0559 -0.1725  0.1171
  835YOPS   C2B12176  13.950   2.856   6.948  0.0382 -0.0409  0.1744
  835YOPS   D3B12177  14.062   2.766   7.369 -0.0416 -0.2306  0.2081
  835YOPS   C4B12178  14.240   3.084   7.624  0.0802  0.1545  0.0716
  836YOPS   CNO12179  10.060   7.100   4.830  0.0287  0.2383  0.0950
  836YOPS   PO412180   9.725   7.233   5.089 -0.0225 -0.1958 -0.2659
  836YOPS   GL112181   9.737   7.206   5.453 -0.0124 -0.4544 -0.2428
  836YOPS   GL212182   9.695   6.917   5.560  0.0403  0.1852 -0.0149
  836YOPS   C1A12183   9.530   7.313   5.857  0.4922 -0.1317  0.0147
  836YOPS   D2A12184   9.473   7.306   6.311 -0.1583  0.4218 -0.2027
  836YOPS   C3A12185   9.243   7.272   6.638 -0.0372  0.1192 -0.0595
  836YOPS   C4A12186   8.949   7.578   6.824 -0.1049  0.2560  0.3245
  836YOPS   C1B12187   9.541   6.845   6.031 -0.0240 -0.0209  0.0476
  836YOPS   C2B12188   9.560   6.898   6.507 -0.0200 -0.2505 -0.0895
  836YOPS   D3B12189   9.801   7.288   6.747 -0.0468 -0.0854  0.1786
  836YOPS   C4B12190   9.480   7.570   6.957 -0.0417  0.0542  0.1176
  837YOPS   CNO12191   7.243   5.054   5.477  0.5850  0.0570 -0.0074
  837YOPS   PO412192   7.558   4.975   5.149 -0.0942  0.0931 -0.1866
  837YOPS   GL112193   7.670   4.745   5.558  0.1645  0.1473 -0.4823
  837YOPS   GL212194   7.984   4.596   5.526 -0.0509  0.0106 -0.0757
  837YOPS   C1A12195   7.630   4.610   5.976 -0.2302  0.4043  0.2981
  837YOPS   D2A12196   7.636   4.588   6.340 -0.0553 -0.0745  0.0222
  837YOPS   C3A12197   7.699   4.556   6.747  0.0624  0.0337 -0.0082
  837YOPS   C4A12198   8.056   4.876   6.893  0.1597  0.2278  0.0616
  837YOPS   C1B12199   8.138   4.523   6.004  0.2649 -0.0590  0.2083
  837YOPS   C2B12200   8.121   4.528   6.439  0.2564 -0.3242 -0.2077
  837YOPS   D3B12201   8.332   4.402   6.898 -0.0767  0.0198 -0.0327
  837YOPS   C4B12202   8.760   4.249   6.870  0.0648 -0.2816  0.3125
  838YOPS   CNO12203   1.963   6.970   4.593  0.1237  0.1142  0.1108
  838YOPS   PO412204   2.179   7.119   4.861  0.2288  0.1754 -0.2256
  838YOPS   GL112205   2.177   7.070   5.276 -0.1483 -0.3961  0.1210
  838YOPS   GL212206   2.617   6.875   5.324 -0.0977  0.2051  0.3143
  838YOPS   C1A12207   2.440   7.448   5.605  0.1896 -0.1343 -0.2782
  838YOPS   D2A12208   2.752   7.623   5.932  0.0500 -0.0797  0.0146
  838YOPS   C3A12209   3.124   7.577   6.033 -0.0981  0.3429 -0.1406
  838YOPS   C4A12210   3.287   7.609   5.728  0.3530 -0.1166 -0.3129
  838YOPS   C1B12211   2.789   7.160   5.648 -0.1243  0.1576  0.0008
  838YOPS   C2B12212   2.901   7.061   6.144 -0.1274  0.2048  0.2317
  838YOPS   D3B12213   3.111   6.791   6.427 -0.3288 -0.2234  0.0241
  838YOPS   C4B12214   3.502   6.750   6.527 -0.4636 -0.3976  0.2117
  839YOPS   CNO12215  13.642   8.115   5.385 -0.1109 -0.0149 -0.2302
  839YOPS   PO412216  13.150   8.194   5.449 -0.3240 -0.1322 -0.2457
  839YOPS   GL112217  12.922   8.200   5.806  0.0502 -0.0118  0.1641
  839YOPS   GL212218  12.784   7.840   5.674 -0.2205  0.2895 -0.0621
  839YOPS   C1A12219  12.984   8.343   6.216 -0.0124 -0.2312 -0.1533
  839YOPS   D2A12220  13.013   8.395   6.633  0.1509  0.2297  0.2494
  839YOPS   C3A12221  12.851   8.734   6.831 -0.0849  0.1808  0.1020
  839YOPS   C4A12222  12.564   8.756   7.237  0.1130  0.1771 -0.0355
  839YOPS   C1B12223  12.397   7.804   5.843 -0.1758 -0.1750  0.0389
  839YOPS   C2B12224  12.050   8.122   5.799 -0.0235  0.0106  0.0072
  839YOPS   D3B12225  11.619   8.390   5.728  0.1870  0.1713  0.2531
  839YOPS   C4B12226  11.297   8.417   6.098 -0.3359  0.2386  0.3291
  840YOPS   CNO12227   5.475   0.971   5.118  0.0573 -0.2512 -0.2164
  840YOPS   PO412228   5.603   1.344   5.390  0.3566  0.1052  0.2909
  840YOPS   GL112229   5.673   1.693   5.622  0.1487  0.0305 -0.0038
  840YOPS   GL212230   5.587   1.970   5.690 -0.1160  0.2987  0.0361
  840YOPS   C1A12231   5.915   1.803   5.941 -0.1694 -0.2557 -0.1378
  840YOPS   D2A12232   6.268   2.093   5.988  0.2705 -0.0235  0.0683
  840YOPS   C3A12233   6.309   2.484   6.027 -0.3113 -0.0104 -0.0513
  840YOPS   C4A12234   6.066   2.828   6.206  0.1464  0.1719  0.0390
  840YOPS   C1B12235   5.524   2.105   6.062  0.0273  0.0312  0.0647
  840YOPS   C2B12236   5.450   2.414   6.368 -0.1439 -0.0074  0.3455
  840YOPS   D3B12237   5.756   2.673   6.568 -0.0132  0.0903  0.0672
  840YOPS   C4B12238   5.941   3.181   6.584 -0.1744  0.3125  0.0314
  841POPE   NH312239  13.766   2.808   5.799  0.1876 -0.0620  0.0508
  841POPE   PO412240  14.125   3.143   5.743 -0.1231 -0.3466  0.0006
  841POPE   GL112241  14.277   3.564   5.953  0.0227 -0.1698 -0.3654
  841POPE   GL212242  14.114   3.872   6.172 -0.1032  0.1185  0.1790
  841POPE   C1A12243  14.617   3.917   6.195 -0.0279 -0.2890 -0.1445
  841POPE   D2A12244  14.786   3.989   6.587 -0.2086 -0.2136 -0.2310
  841POPE   C3A12245  14.729   4.301   6.883  0.2864  0.1303 -0.3183
  841POPE   C4A12246  14.480   4.647   6.822 -0.2484  0.4946  0.2862
  841POPE   C1B12247  14.304   3.708   6.555 -0.0397  0.0105  0.0691
  841POPE   C2B12248  14.549   3.776   7.050  0.2262 -0.2402 -0.2008
  841POPE   C3B12249  14.421   4.159   7.262 -0.1504  0.0070  0.1872
  841POPE   C4B12250  14.748   4.480   7.388 -0.2931 -0.0603 -0.2089
  842POPE   NH312251  17.388  11.859   4.854 -0.0764 -0.3261 -0.2060
  842POPE   PO412252  17.017  11.996   5.032  0.0724 -0.0011  0.0758
  842POPE   GL112253  16.797  12.064   5.340 -0.1015  0.2718 -0.2084
  842POPE   GL212254  17.137  11.965   5.531 -0.0177  0.0981  0.0412
  842POPE   C1A12255  16.720  12.203   5.764  0.1632  0.2910 -0.0738
  842POPE   D2A12256  16.933  12.274   6.100  0.1514 -0.0628  0.0470
  842POPE   C3A12257  16.897  11.991   6.624  0.0614  0.0517 -0.1591
  842POPE   C4A12258  17.091  11.573   6.935 -0.1741  0.0048  0.3165
  842POPE   C1B12259  17.307  11.961   5.925 -0.3641  0.1494  0.2104
  842POPE   C2B12260  17.468  11.934   6.229 -0.0051 -0.1556  0.1100
  842POPE   C3B12261  17.466  12.022   6.755  0.0380 -0.0561  0.3285
  842POPE   C4B12262  17.508  11.970   7.164 -0.1030 -0.0410 -0.1113
  843POPE   NH312263  13.300  14.187   5.820  0.2450  0.2295 -0.0220
  843POPE   PO412264  13.789  14.226   5.823  0.0724 -0.1582  0.1496
  843POPE   GL112265  13.648  14.381   6.193 -0.0076  0.0578  0.0060
  843POPE   GL212266  13.604  14.062   6.336  0.2199 -0.1746  0.1043
  843POPE   C1A12267  13.547  14.417   6.694  0.0650 -0.1666 -0.0636
  843POPE   D2A12268  13.376  14.682   7.012 -0.0057  0.0472 -0.3357
  843POPE   C3A12269  13.459  14.463   7.533  0.1145 -0.0439 -0.0176
  843POPE   C4A12270  13.574  14.297   7.976  0.0227  0.1381  0.2303
  843POPE   C1B12271  13.623  13.820   6.672 -0.3153 -0.0705 -0.1140
  843POPE   C2B12272  13.470  13.617   7.035  0.0985  0.0964 -0.1247
  843POPE   C3B12273  13.273  13.566   7.417  0.1275 -0.0444 -0.1131
  843POPE   C4B12274  12.905  13.730   7.646  0.2398 -0.0938  0.0249
  844POPE   NH312275  19.305   5.751   4.698 -0.1443  0.1438 -0.3114
  844POPE   PO412276  18.913   5.587   4.909 -0.1970 -0.5194  0.0926
  844POPE   GL112277  18.863   5.492   5.298 -0.3144  0.0434  0.1046
  844POPE   GL212278  19.252   5.417   5.518 -0.2283 -0.1093  0.1020
  844POPE   C1A12279  18.672   5.756   5.712  0.1204 -0.2833  0.1828
  844POPE   D2A12280  18.748   6.016   6.116 -0.1774  0.2296 -0.0398
  844POPE   C3A12281  19.070   5.978   6.507  0.2213 -0.0500  0.0944
  844POPE   C4A12282  19.277   6.138   6.772 -0.3210  0.0669  0.1224
  844POPE   C1B12283  19.202   5.786   5.755 -0.0049 -0.1852 -0.0147
  844POPE   C2B12284  19.497   5.941   6.177 -0.0780  0.1682 -0.2464
  844POPE   C3B12285  19.701   5.768   6.460 -0.2019  0.0776  0.4618
  844POPE   C4B12286  19.640   5.739   6.892 -0.0979  0.1327  0.0595
  845POPE   NH312287  11.933   0.271   5.810  0.1664 -0.0273 -0.1961
  845POPE   PO412288  11.586   0.541   5.805  0.0831 -0.2214 -0.0005
  845POPE   GL112289  11.567   0.762   6.077 -0.1250  0.2333 -0.1858
  845POPE   GL212290  11.866   0.584   6.218  0.2032 -0.2026 -0.1530
  845POPE   C1A12291  11.787   1.037   6.215  0.1067 -0.2582  0.0025
  845POPE   D2A12292  12.054   1.326   6.266 -0.2720  0.4847  0.0761
  845POPE   C3A12293  12.127   1.790   6.452 -0.2230  0.0076  0.2816
  845POPE   C4A12294  12.345   2.088   6.729 -0.2824 -0.1863  0.3423
  845POPE   C1B12295  11.686   0.500   6.517 -0.0978 -0.0971 -0.1645
  845POPE   C2B12296  11.445   0.536   6.904  0.0749 -0.0048  0.2324
  845POPE   C3B12297  11.241   0.740   7.072  0.1874 -0.3501  0.0969
  845POPE   C4B12298  11.057   1.079   7.363  0.1225  0.0255 -0.0931
  846POPE   NH312299  14.920   0.384   6.112  0.4036  0.0218  0.0927
  846POPE   PO412300  14.635   0.775   6.135 -0.4438 -0.0966 -0.0663
  846POPE   GL112301  14.924   0.870   6.387  0.2053 -0.0173  0.1635
  846POPE   GL212302  15.151   0.989   6.371 -0.0329 -0.0558  0.0266
  846POPE   C1A12303  14.807   0.980   6.775 -0.1658  0.0397  0.1323
  846POPE   D2A12304  14.934   1.007   7.149  0.1264  0.2458  0.1288
  846POPE   C3A12305  15.033   1.203   7.386  0.1656 -0.1087  0.1353
  846POPE   C4A12306  15.203   1.596   7.451  0.0306  0.2711  0.1194
  846POPE   C1B12307  15.287   0.907   6.802 -0.0844 -0.2085  0.1494
  846POPE   C2B12308  15.440   1.164   7.135  0.5314  0.3511  0.1682
  846POPE   C3B12309  15.705   1.285   7.570 -0.1837  0.1437 -0.2921
  846POPE   C4B12310  15.970   1.042   7.903  0.4748  0.0046 -0.1639
  847POPE   NH312311  11.297  15.342   5.982  0.0412 -0.1674  0.0382
  847POPE   PO412312  11.015  15.547   5.936  0.1624 -0.3248  0.1876
  847POPE   GL112313  11.186  15.472   6.432 -0.1957  0.1373 -0.0555
  847POPE   GL212314  10.928  15.216   6.642  0.5734  0.1447  0.1051
  847POPE   C1A12315  11.589  15.425   6.685 -0.1210 -0.1094  0.1913
  847POPE   D2A12316  11.923  15.638   6.837  0.0476 -0.0683 -0.2495
  847POPE   C3A12317  11.877  16.037   7.052  0.2378  0.1541 -0.3987
  847POPE   C4A12318  11.947  16.180   7.422 -0.0360 -0.1192  0.2276
  847POPE   C1B12319  10.907  15.172   7.065 -0.1434  0.1669 -0.4507
  847POPE   C2B12320  11.234  14.923   7.374 -0.0466  0.0390  0.1182
  847POPE   C3B12321  11.286  14.812   7.824  0.2795  0.1165  0.4872
  847POPE   C4B12322  11.388  15.014   8.179 -0.1081  0.1336 -0.3123
  848POPE   NH312323  11.184   4.742   4.900 -0.1901  0.2009 -0.0137
  848POPE   PO412324  10.919   4.391   5.133  0.3061  0.2561  0.1300
  848POPE   GL112325  10.897   4.253   5.521  0.0392 -0.0785 -0.0704
  848POPE   GL212326  11.269   4.283   5.714  0.0559  0.0884  0.0430
  848POPE   C1A12327  10.873   4.661   5.745 -0.2078 -0.2285  0.1673
  848POPE   D2A12328  10.697   4.729   6.135 -0.4181 -0.1544  0.0686
  848POPE   C3A12329  10.826   4.600   6.551  0.1879  0.2902  0.0380
  848POPE   C4A12330  10.466   4.330   6.774 -0.0364 -0.0809 -0.2358
  848POPE   C1B12331  11.098   4.395   6.078  0.0128 -0.3379  0.0983
  848POPE   C2B12332  10.866   4.110   6.469 -0.1331  0.0168 -0.1095
  848POPE   C3B12333  10.993   4.195   6.872 -0.2643  0.1986  0.1328
  848POPE   C4B12334  10.872   4.560   7.101 -0.1905 -0.1854  0.0046
  849POPE   NH312335   9.225  16.940   5.962 -0.1012 -0.1625  0.1050
  849POPE   PO412336   9.341  16.501   5.884 -0.1188  0.2205 -0.1017
  849POPE   GL112337   9.528  16.701   6.318 -0.0627  0.1549  0.1973
  849POPE   GL212338   9.330  16.927   6.474  0.0621 -0.2352 -0.2998
  849POPE   C1A12339   9.585  16.638   6.800  0.0266 -0.1681  0.2029
  849POPE   D2A12340   9.461  16.537   7.286  0.0822  0.0041 -0.1463
  849POPE   C3A12341   9.077  16.615   7.401 -0.0188 -0.1397 -0.3676
  849POPE   C4A12342   8.680  16.411   7.631  0.0642 -0.0906  0.5075
  849POPE   C1B12343   9.419  17.315   6.525  0.1656 -0.1509  0.0748
  849POPE   C2B12344   9.297  17.565   6.776  0.0231 -0.0298  0.1199
  849POPE   C3B12345   9.081  17.980   6.796  0.3572 -0.1213 -0.3060
  849POPE   C4B12346   8.883  18.270   6.959 -0.0906  0.0537 -0.3138
  850POPE   NH312347  19.244   7.469   4.870  0.0341 -0.0750 -0.1766
  850POPE   PO412348  19.401   7.828   5.023 -0.2901 -0.1412 -0.1556
  850POPE   GL112349  19.557   7.770   5.469 -0.3001  0.3104 -0.1124
  850POPE   GL212350  19.730   8.030   5.575 -0.2530 -0.0656  0.1224
  850POPE   C1A12351  19.443   7.919   5.973  0.0166  0.0444 -0.1514
  850POPE   D2A12352  19.555   8.044   6.352  0.0305 -0.0098  0.2021
  850POPE   C3A12353  19.600   7.858   6.809  0.1468 -0.0115  0.1409
  850POPE   C4A12354  19.547   7.631   7.226 -0.0150  0.2807  0.3049
  850POPE   C1B12355  19.925   8.054   5.973 -0.2232 -0.1307  0.2144
  850POPE   C2B12356  20.144   8.060   6.467 -0.0685 -0.1768 -0.0455
  850POPE   C3B12357  20.659   8.030   6.566  0.0390 -0.3872 -0.0565
  850POPE   C4B12358  21.003   7.796   6.403 -0.2188  0.0630 -0.1202
  851POPE   NH312359  18.732   1.556   5.747  0.3030  0.0361 -0.0602
  851POPE   PO412360  18.632   1.851   5.531  0.0204  0.0453  0.0525
  851POPE   GL112361  18.980   2.145   5.605 -0.0502  0.1241 -0.1401
  851POPE   GL212362  18.810   2.332   5.759 -0.0916 -0.0595  0.1397
  851POPE   C1A12363  19.306   2.249   5.849  0.2849 -0.2534  0.2325
  851POPE   D2A12364  19.713   2.381   5.925 -0.0564 -0.1579  0.1703
  851POPE   C3A12365  20.163   2.546   5.697 -0.2115 -0.1510  0.1658
  851POPE   C4A12366  20.465   2.942   5.657  0.1960  0.1718  0.0738
  851POPE   C1B12367  18.911   2.293   6.150 -0.1370 -0.2815 -0.0401
  851POPE   C2B12368  18.856   2.279   6.669  0.4070 -0.0994 -0.0500
  851POPE   C3B12369  18.766   2.427   7.062  0.5293  0.0575  0.2307
  851POPE   C4B12370  18.497   2.365   7.433  0.2756 -0.0895  0.2062
  852POPE   NH312371   6.373  16.649   5.637  0.1678 -0.0297 -0.1623
  852POPE   PO412372   6.484  16.233   5.647 -0.2350 -0.3119  0.1976
  852POPE   GL112373   6.610  16.333   5.991 -0.0569  0.2993  0.1943
  852POPE   GL212374   6.789  16.058   6.081  0.0022  0.2525  0.1085
  852POPE   C1A12375   6.537  16.391   6.426 -0.2568 -0.3794  0.1956
  852POPE   D2A12376   6.434  16.370   6.874  0.3789 -0.1488  0.2139
  852POPE   C3A12377   6.304  16.232   7.275  0.1436 -0.4148  0.2314
  852POPE   C4A12378   5.951  16.035   7.350  0.0872 -0.2338 -0.1287
  852POPE   C1B12379   6.762  15.955   6.462 -0.1125  0.0451  0.0203
  852POPE   C2B12380   6.841  15.983   6.940 -0.0936  0.0884 -0.1208
  852POPE   C3B12381   6.990  16.250   7.205 -0.0806 -0.1596  0.2169
  852POPE   C4B12382   7.339  16.401   7.492 -0.1820 -0.0709 -0.1334
  853POPE   NH312383  10.198   0.442   5.637  0.2733  0.0723 -0.2665
  853POPE   PO412384  10.238   0.860   5.851 -0.3358  0.1206  0.1410
  853POPE   GL112385  10.206   1.100   6.134 -0.1131 -0.1127  0.0115
  853POPE   GL212386   9.919   1.062   6.247 -0.0563 -0.4000 -0.0785
  853POPE   C1A12387  10.408   1.308   6.467  0.0347 -0.1710 -0.0501
  853POPE   D2A12388  10.403   1.600   6.777  0.0817 -0.1305  0.0064
  853POPE   C3A12389  10.382   1.675   7.246  0.2194  0.1255  0.1048
  853POPE   C4A12390  10.316   1.848   7.625 -0.1068  0.3120  0.0598
  853POPE   C1B12391   9.679   1.083   6.647  0.1703  0.1700  0.3813
  853POPE   C2B12392   9.596   0.958   7.015  0.2669 -0.1527 -0.1474
  853POPE   C3B12393   9.394   0.916   7.367  0.0070  0.0185 -0.0742
  853POPE   C4B12394   9.504   0.672   7.806  0.0194 -0.1402 -0.1171
  854POPE   NH312395  15.286  14.058   5.692 -0.2527  0.1280 -0.1464
  854POPE   PO412396  15.593  14.397   5.628 -0.0541 -0.2452 -0.1305
  854POPE   GL112397  15.750  14.134   5.903  0.1357 -0.1858  0.1547
  854POPE   GL212398  15.593  14.275   6.184  0.1353  0.0551 -0.2122
  854POPE   C1A12399  15.742  13.842   6.397  0.1295  0.0457 -0.0695
  854POPE   D2A12400  15.802  13.759   6.696 -0.1215 -0.0632 -0.1445
  854POPE   C3A12401  16.312  13.714   6.889  0.1339  0.0448  0.0801
  854POPE   C4A12402  16.569  13.670   7.223 -0.1811 -0.1839  0.1675
  854POPE   C1B12403  15.494  14.362   6.541  0.0897  0.0378 -0.0881
  854POPE   C2B12404  15.570  14.330   6.909 -0.1526 -0.0412  0.0342
  854POPE   C3B12405  15.423  14.331   7.358 -0.1442 -0.3492  0.2615
  854POPE   C4B12406  15.531  14.560   7.785  0.1027 -0.0762 -0.1735
  855POPE   NH312407   2.266   6.600   4.800 -0.0051 -0.1810 -0.0785
  855POPE   PO412408   2.033   6.238   4.910  0.0993  0.1380  0.1254
  855POPE   GL112409   2.035   6.023   5.329 -0.1626 -0.1837  0.1393
  855POPE   GL212410   2.020   5.617   5.523 -0.0710 -0.0175  0.1860
  855POPE   C1A12411   2.108   6.040   5.796 -0.1661  0.1759 -0.1943
  855POPE   D2A12412   2.178   5.946   6.235  0.1290 -0.0067 -0.2934
  855POPE   C3A12413   2.136   6.280   6.613  0.3216 -0.1033 -0.2447
  855POPE   C4A12414   1.724   6.319   6.805  0.0129 -0.2871  0.2584
  855POPE   C1B12415   1.687   5.252   5.670 -0.0797  0.1232 -0.1444
  855POPE   C2B12416   1.453   5.388   6.028 -0.0157  0.3104  0.1815
  855POPE   C3B12417   1.041   5.281   6.229 -0.1381 -0.1103 -0.0541
  855POPE   C4B12418   0.754   5.500   6.322  0.1693 -0.0827  0.0125
  856POPE   NH312419  14.874   1.122   5.897  0.3733  0.1023 -0.0737
  856POPE   PO412420  15.249   1.225   5.668 -0.0600  0.0578 -0.0931
  856POPE   GL112421  15.404   1.350   6.114 -0.0229  0.0367 -0.0655
  856POPE   GL212422  15.061   1.510   6.177  0.1857 -0.2655  0.0061
  856POPE   C1A12423  15.661   1.520   6.397 -0.0302 -0.0598  0.1528
  856POPE   D2A12424  15.640   1.531   6.798 -0.0150 -0.0979  0.0556
  856POPE   C3A12425  15.726   1.600   7.134 -0.1526  0.1519  0.0646
  856POPE   C4A12426  15.924   1.715   7.572  0.2106 -0.0247  0.0100
  856POPE   C1B12427  15.239   1.376   6.629  0.3140  0.0444  0.2793
  856POPE   C2B12428  15.052   1.536   6.863  0.0191  0.5311 -0.0946
  856POPE   C3B12429  14.789   1.668   7.254  0.4330  0.0376 -0.1536
  856POPE   C4B12430  14.493   1.742   7.583 -0.2669 -0.2559 -0.1004
  857POPE   NH312431   2.706   4.193   4.443 -0.1053 -0.1218  0.0175
  857POPE   PO412432   2.570   4.511   4.729 -0.0133  0.1068 -0.1027
  857POPE   GL112433   2.484   4.301   5.055  0.0771  0.2505  0.2649
  857POPE   GL212434   2.305   4.539   5.265 -0.0337  0.2977  0.0355
  857POPE   C1A12435   2.661   4.181   5.458 -0.0816 -0.1371 -0.0525
  857POPE   D2A12436   2.390   3.948   5.778 -0.0726  0.1363  0.2525
  857POPE   C3A12437   2.560   3.924   6.211 -0.2594 -0.0522 -0.0586
  857POPE   C4A12438   2.893   4.155   6.336 -0.1373  0.1886 -0.0590
  857POPE   C1B12439   2.339   4.466   5.715  0.1390 -0.1088  0.1139
  857POPE   C2B12440   2.437   4.391   6.073  0.0715 -0.1545 -0.3042
  857POPE   C3B12441   2.455   4.267   6.586 -0.2028 -0.0155 -0.3376
  857POPE   C4B12442   2.641   3.996   6.799  0.5605 -0.1625  0.0604
  858POPE   NH312443  16.480  11.649   4.630  0.4541 -0.0655  0.2224
  858POPE   PO412444  16.624  11.210   4.839  0.1283 -0.0563 -0.2186
  858POPE   GL112445  16.509  11.247   5.268 -0.2835 -0.0898 -0.0538
  858POPE   GL212446  16.819  11.273   5.349  0.3631  0.2237  0.0231
  858POPE   C1A12447  16.337  11.198   5.699  0.1841  0.1320 -0.0410
  858POPE   D2A12448  16.077  10.890   5.836  0.1142  0.0248 -0.0993
  858POPE   C3A12449  16.188  10.524   5.954 -0.0814  0.0264 -0.3043
  858POPE   C4A12450  15.966  10.271   6.076  0.0179 -0.0977 -0.1089
  858POPE   C1B12451  16.753  11.422   5.849  0.0996 -0.3844  0.2488
  858POPE   C2B12452  16.788  11.745   6.010 -0.0808  0.2051  0.0129
  858POPE   C3B12453  16.480  12.036   6.217  0.0762 -0.2122 -0.0505
  858POPE   C4B12454  16.341  12.071   6.630  0.0990  0.2589 -0.0843
  859POPE   NH312455   4.121   0.826   4.836 -0.3720  0.0567  0.5675
  859POPE   PO412456   3.872   0.955   5.153  0.2280  0.1388 -0.1782
  859POPE   GL112457   3.597   1.093   5.490 -0.0804  0.2176 -0.1336
  859POPE   GL212458   3.405   1.007   5.643  0.0717 -0.3865 -0.0616
  859POPE   C1A12459   3.482   1.523   5.540  0.0230 -0.1524  0.2320
  859POPE   D2A12460   3.598   2.031   5.619 -0.3270  0.0802  0.1598
  859POPE   C3A12461   4.024   1.964   5.844  0.2395 -0.1875  0.1019
  859POPE   C4A12462   4.097   2.040   6.249  0.0138 -0.2312  0.1468
  859POPE   C1B12463   3.317   0.838   6.032  0.2226  0.1844 -0.1050
  859POPE   C2B12464   3.370   0.710   6.458 -0.0416  0.0315 -0.2137
  859POPE   C3B12465   3.501   0.484   6.855  0.6085 -0.1267  0.1984
  859POPE   C4B12466   3.335   0.430   7.308  0.0965 -0.0529  0.0366
  860POPE   NH312467   4.941   0.743   5.128  0.0560 -0.1613  0.1522
  860POPE   PO412468   4.636   0.869   4.955  0.4232 -0.0322 -0.0250
  860POPE   GL112469   4.366   1.160   5.237  0.0876 -0.1449 -0.1584
  860POPE   GL212470   4.096   1.108   5.605 -0.1407  0.0344  0.1390
  860POPE   C1A12471   4.420   1.469   5.613 -0.2376  0.0298  0.1833
  860POPE   D2A12472   4.556   1.485   5.985 -0.0776  0.0907  0.0807
  860POPE   C3A12473   4.827   1.138   6.128 -0.1388 -0.1668  0.0958
  860POPE   C4A12474   5.119   1.104   6.410 -0.1038  0.2451  0.2771
  860POPE   C1B12475   4.363   0.964   5.883  0.0171  0.2152 -0.2300
  860POPE   C2B12476   4.353   1.097   6.381  0.0502  0.1190  0.1771
  860POPE   C3B12477   4.192   1.286   6.686 -0.3273  0.1043 -0.0736
  860POPE   C4B12478   3.930   1.281   6.979  0.1569  0.2826 -0.0284
  861POPE   NH312479  13.533   4.830   5.715 -0.0474 -0.0960  0.0170
  861POPE   PO412480  13.333   4.426   5.836  0.0131  0.2319 -0.3707
  861POPE   GL112481  13.297   4.097   6.158  0.1553 -0.1726  0.0557
  861POPE   GL212482  13.600   3.963   6.026  0.1113  0.2077  0.0013
  861POPE   C1A12483  13.372   3.950   6.512  0.0363  0.0807 -0.2151
  861POPE   D2A12484  13.561   4.197   6.933  0.2075  0.1417  0.1046
  861POPE   C3A12485  13.921   4.588   6.809 -0.1549  0.1756 -0.1584
  861POPE   C4A12486  14.016   5.029   6.696 -0.3550  0.2546 -0.0407
  861POPE   C1B12487  13.507   3.546   6.319 -0.1382 -0.2661  0.1201
  861POPE   C2B12488  13.443   3.287   6.586 -0.1117 -0.0822  0.0851
  861POPE   C3B12489  13.568   3.172   6.997 -0.0194  0.3064 -0.0038
  861POPE   C4B12490  13.681   3.063   7.396  0.1927 -0.4441  0.1640
  862POPE   NH312491  13.198   9.159   5.576 -0.2799 -0.0763 -0.0219
  862POPE   PO412492  13.666   9.226   5.564  0.1162  0.0633  0.0797
  862POPE   GL112493  13.944   8.880   5.766  0.0175 -0.0241  0.3017
  862POPE   GL212494  13.881   8.540   5.771  0.1032  0.0542  0.2195
  862POPE   C1A12495  14.168   8.867   6.166 -0.1940 -0.0451  0.0302
  862POPE   D2A12496  14.208   9.089   6.638  0.2824  0.3098  0.2150
  862POPE   C3A12497  14.110   8.930   6.989  0.1044  0.1178 -0.1667
  862POPE   C4A12498  13.924   8.919   7.332 -0.1654  0.2631  0.2423
  862POPE   C1B12499  13.922   8.359   6.220 -0.0800  0.1308 -0.3185
  862POPE   C2B12500  14.058   8.268   6.550  0.2094 -0.3837 -0.1891
  862POPE   C3B12501  14.136   8.369   7.020 -0.0012 -0.1130  0.3511
  862POPE   C4B12502  14.516   8.547   7.177 -0.2299  0.3602 -0.4045
  863POPE   NH312503  10.153   6.923   5.335 -0.1325 -0.0153  0.1586
  863POPE   PO412504  10.495   7.329   5.164 -0.1046  0.1242  0.2531
  863POPE   GL112505  10.542   7.275   5.597  0.1228 -0.0608 -0.0187
  863POPE   GL212506  10.237   7.376   5.644  0.2204  0.0590 -0.0470
  863POPE   C1A12507  10.555   7.209   6.014 -0.2217  0.1917 -0.4940
  863POPE   D2A12508  10.741   6.953   6.366  0.0395 -0.1854  0.0299
  863POPE   C3A12509  10.941   7.177   6.714  0.0171 -0.0893  0.2520
  863POPE   C4A12510  11.085   7.294   7.104 -0.0464 -0.2521 -0.4259
  863POPE   C1B12511   9.964   7.508   5.923 -0.0632 -0.2567  0.2056
  863POPE   C2B12512   9.806   7.616   6.373 -0.1120  0.1631 -0.1741
  863POPE   C3B12513   9.974   7.767   6.838 -0.1452  0.0531  0.0447
  863POPE   C4B12514  10.089   7.542   7.148  0.0939  0.0149  0.1094
  864POPE   NH312515   2.106  10.753   4.707 -0.0434  0.0579  0.0808
  864POPE   PO412516   2.005  11.226   4.746  0.2938 -0.2706 -0.0588
  864POPE   GL112517   1.906  11.569   5.050  0.2586 -0.3171 -0.0730
  864POPE   GL212518   2.002  11.692   5.406  0.0171  0.0492  0.1855
  864POPE   C1A12519   1.491  11.807   5.287 -0.0582 -0.0185  0.0409
  864POPE   D2A12520   1.087  12.049   5.450  0.1891  0.1498  0.1461
  864POPE   C3A12521   1.145  11.960   5.832  0.2135 -0.2175 -0.1702
  864POPE   C4A12522   0.877  11.995   6.292 -0.1053 -0.1203 -0.2553
  864POPE   C1B12523   2.090  11.791   5.855  0.1122 -0.1274  0.2709
  864POPE   C2B12524   2.028  11.780   6.273  0.1977  0.1677  0.2476
  864POPE   C3B12525   1.797  11.939   6.623  0.4998  0.1574 -0.1511
  864POPE   C4B12526   1.549  12.029   6.925  0.1699 -0.1486  0.2037
  865POPE   NH312527   7.658  10.847   5.367 -0.1488  0.2233  0.0428
  865POPE   PO412528   7.864  11.216   5.361  0.3134 -0.1289 -0.6165
  865POPE   GL112529   7.821  11.142   5.863 -0.1092  0.2761 -0.1468
  865POPE   GL212530   7.536  11.352   5.894  0.0729 -0.2396  0.0403
  865POPE   C1A12531   7.978  10.952   6.216  0.1767 -0.1198 -0.0419
  865POPE   D2A12532   8.255  10.865   6.574  0.1228 -0.3142  0.4099
  865POPE   C3A12533   8.333  10.716   6.954  0.2342 -0.2259  0.2518
  865POPE   C4A12534   8.349  10.930   7.330 -0.0323 -0.2269 -0.0817
  865POPE   C1B12535   7.536  11.298   6.438  0.1777  0.0784 -0.0434
  865POPE   C2B12536   7.549  11.257   6.886 -0.1035  0.2880  0.1303
  865POPE   C3B12537   7.406  11.462   7.209  0.3014 -0.2065 -0.1935
  865POPE   C4B12538   7.603  11.728   7.409  0.1466 -0.0393  0.2243
  866POPE   NH312539   3.353  16.691   5.508 -0.1068  0.0220 -0.2826
  866POPE   PO412540   3.208  17.062   5.409 -0.0312 -0.1227  0.1704
  866POPE   GL112541   3.069  16.932   5.810 -0.0890 -0.0648 -0.3299
  866POPE   GL212542   2.950  16.587   5.891  0.1411 -0.0284  0.1376
  866POPE   C1A12543   2.765  16.983   6.181  0.2860 -0.0184  0.0581
  866POPE   D2A12544   2.709  17.129   6.636 -0.0481 -0.0637  0.0298
  866POPE   C3A12545   2.639  17.589   6.900 -0.1104 -0.0370  0.1212
  866POPE   C4A12546   2.300  17.808   6.829 -0.1160  0.0913 -0.1794
  866POPE   C1B12547   2.591  16.430   6.230 -0.1786  0.1484 -0.0975
  866POPE   C2B12548   2.191  16.194   6.243 -0.0371 -0.2525  0.1018
  866POPE   C3B12549   1.773  16.259   6.425  0.2530 -0.2731  0.0350
  866POPE   C4B12550   1.430  16.229   6.670 -0.0808 -0.2995  0.1364
  867POPE   NH312551   1.362  15.245   5.281  0.0380 -0.2217  0.2934
  867POPE   PO412552   1.716  15.012   5.012  0.1341 -0.0640  0.2596
  867POPE   GL112553   1.709  14.871   5.432  0.2325  0.2240 -0.5005
  867POPE   GL212554   1.984  15.026   5.561  0.1362  0.2408 -0.1739
  867POPE   C1A12555   1.675  14.593   5.836 -0.1965  0.4804  0.1002
  867POPE   D2A12556   1.536  14.296   6.176 -0.1733 -0.1704 -0.2623
  867POPE   C3A12557   1.689  13.842   6.196 -0.0682  0.1819 -0.3105
  867POPE   C4A12558   2.008  13.546   6.220  0.0139 -0.0265  0.2897
  867POPE   C1B12559   1.823  14.999   5.999 -0.1276  0.0570 -0.1932
  867POPE   C2B12560   1.865  14.679   6.331  0.0860  0.2549  0.0862
  867POPE   C3B12561   1.883  14.432   6.615  0.1847  0.2457  0.0492
  867POPE   C4B12562   1.588  14.075   6.680 -0.0455 -0.0240  0.2238
  868POPE   NH312563  15.587   0.592   5.593 -0.1267  0.1176 -0.0021
  868POPE   PO412564  15.423   0.701   6.076 -0.1903  0.0793  0.0474
  868POPE   GL112565  15.380   0.550   6.429 -0.2868 -0.0351 -0.0692
  868POPE   GL212566  15.134   0.473   6.600  0.4204  0.0979  0.0446
  868POPE   C1A12567  15.623   0.599   6.855  0.0812  0.1346  0.1022
  868POPE   D2A12568  15.641   0.363   7.241  0.1168  0.1326  0.0895
  868POPE   C3A12569  15.955   0.119   7.385  0.1352  0.0144  0.0789
  868POPE   C4A12570  15.937  -0.183   7.704 -0.0463 -0.0896  0.1458
  868POPE   C1B12571  15.132   0.510   6.976  0.1290  0.0416  0.2787
  868POPE   C2B12572  14.982   0.373   7.337 -0.0216 -0.2912  0.1696
  868POPE   C3B12573  15.230   0.079   7.535 -0.0512  0.0761 -0.0471
  868POPE   C4B12574  15.483  -0.025   7.766  0.0606  0.2647  0.2653
  869POPE   NH312575  12.469   3.860   5.575 -0.1837  0.1795 -0.3051
  869POPE   PO412576  12.821   3.812   5.813 -0.0104 -0.3231 -0.1205
  869POPE   GL112577  12.739   4.150   6.168 -0.0400  0.2003  0.2807
  869POPE   GL212578  12.544   4.219   6.192  0.0696  0.0813 -0.1749
  869POPE   C1A12579  12.966   4.304   6.424  0.3093 -0.2989  0.0146
  869POPE   D2A12580  13.063   4.227   6.832  0.0390 -0.0416 -0.0397
  869POPE   C3A12581  13.059   4.363   7.240  0.0957 -0.0317  0.1075
  869POPE   C4A12582  13.097   4.623   7.599 -0.0305  0.2500 -0.2062
  869POPE   C1B12583  12.403   4.521   6.318 -0.1292  0.0771 -0.3077
  869POPE   C2B12584  12.215   4.454   6.768  0.1878  0.1356  0.1376
  869POPE   C3B12585  11.814   4.529   6.985 -0.0242 -0.0659 -0.1796
  869POPE   C4B12586  11.394   4.495   7.046 -0.0583  0.0912  0.0299
  870POPE   NH312587  12.358  14.017   5.662 -0.1653 -0.0540  0.0097
  870POPE   PO412588  12.043  14.377   5.680 -0.2812 -0.0949  0.3893
  870POPE   GL112589  12.110  14.302   6.102 -0.3253  0.1057 -0.0632
  870POPE   GL212590  12.412  14.510   6.241 -0.1119  0.0857  0.1776
  870POPE   C1A12591  12.229  14.103   6.535  0.0905 -0.2507 -0.2304
  870POPE   D2A12592  12.266  14.202   6.930  0.0771 -0.0042  0.2785
  870POPE   C3A12593  12.225  14.047   7.265  0.3395 -0.0060  0.0126
  870POPE   C4A12594  12.037  14.120   7.523 -0.1692  0.3238 -0.0773
  870POPE   C1B12595  12.649  14.550   6.681  0.0045 -0.2621  0.0646
  870POPE   C2B12596  12.746  14.539   7.097  0.0660  0.0815 -0.0829
  870POPE   C3B12597  12.973  14.742   7.297 -0.1287  0.1470 -0.1111
  870POPE   C4B12598  13.245  15.111   7.355  0.1398 -0.2613  0.4120
  871YOPE   NH312599  12.463  15.755   5.692  0.1525 -0.0354 -0.0960
  871YOPE   PO412600  12.610  15.277   5.691 -0.2634  0.0187  0.0509
  871YOPE   GL112601  12.880  15.124   6.058  0.3274  0.1207 -0.0012
  871YOPE   GL212602  12.798  14.904   6.265 -0.0610  0.3555 -0.2311
  871YOPE   C1A12603  12.967  15.377   6.420 -0.1587  0.2149 -0.1929
  871YOPE   D2A12604  12.735  15.625   6.612 -0.0080  0.0435  0.1895
  871YOPE   C3A12605  12.338  15.491   6.694  0.0139  0.5972 -0.1763
  871YOPE   C4A12606  12.049  15.492   6.380 -0.1288 -0.0322 -0.1744
  871YOPE   C1B12607  12.599  15.029   6.624  0.1718  0.2691 -0.0485
  871YOPE   C2B12608  12.686  15.095   7.079 -0.0776 -0.0693 -0.1835
  871YOPE   D3B12609  12.838  15.396   7.327 -0.1925  0.0010  0.2327
  871YOPE   C4B12610  13.172  15.594   7.594 -0.0408 -0.0912  0.1516
  872YOPE   NH312611  13.932   7.110   5.212  0.0221  0.1020 -0.2964
  872YOPE   PO412612  13.740   7.437   5.391 -0.2197 -0.0092 -0.3100
  872YOPE   GL112613  13.903   7.330   5.768 -0.1697  0.1949  0.0224
  872YOPE   GL212614  14.128   7.493   5.877  0.1510 -0.4020  0.2834
  872YOPE   C1A12615  13.695   7.158   6.027  0.0964 -0.1545  0.0407
  872YOPE   D2A12616  13.905   7.020   6.415  0.0918 -0.1714 -0.1926
  872YOPE   C3A12617  13.935   7.254   6.856 -0.4205  0.1112 -0.0011
  872YOPE   C4A12618  13.690   7.219   7.120  0.0002  0.2480 -0.0450
  872YOPE   C1B12619  14.331   7.439   6.110  0.3109  0.1413  0.2103
  872YOPE   C2B12620  14.745   7.341   6.305 -0.2025 -0.1529 -0.0990
  872YOPE   D3B12621  15.087   7.428   6.499  0.3333 -0.4393  0.0189
  872YOPE   C4B12622  15.368   7.606   6.713  0.1052  0.3896 -0.1523
  873YOPE   NH312623  15.472   2.659   5.601  0.0633 -0.0909  0.3535
  873YOPE   PO412624  15.919   2.766   5.673  0.0896  0.0719 -0.2056
  873YOPE   GL112625  15.697   2.952   6.029 -0.1517  0.1076  0.0346
  873YOPE   GL212626  15.372   3.078   5.912 -0.1293  0.1944 -0.0101
  873YOPE   C1A12627  15.691   2.942   6.421 -0.1111 -0.1329  0.2104
  873YOPE   D2A12628  15.729   2.925   6.832  0.0055 -0.0232  0.0122
  873YOPE   C3A12629  15.963   3.035   7.143 -0.3526 -0.0461  0.3113
  873YOPE   C4A12630  15.675   2.686   7.382 -0.4470  0.2475  0.3963
  873YOPE   C1B12631  15.241   3.192   6.340 -0.3164 -0.0557 -0.0134
  873YOPE   C2B12632  15.309   3.257   6.784 -0.3042  0.2020  0.2246
  873YOPE   D3B12633  15.266   3.097   7.195  0.0306 -0.3049  0.2114
  873YOPE   C4B12634  15.176   3.103   7.630 -0.0681  0.1010 -0.0578
  874YOPE   NH312635  10.152  10.804   5.525  0.0250 -0.1774  0.1968
  874YOPE   PO412636  10.653  10.989   5.610  0.2034 -0.1659  0.1286
  874YOPE   GL112637  10.891  10.842   5.886  0.1778  0.1942 -0.1013
  874YOPE   GL212638  10.975  10.523   5.875  0.1333  0.1265  0.0574
  874YOPE   C1A12639  10.684  10.718   6.297  0.1395  0.2449  0.1897
  874YOPE   D2A12640  10.813  10.577   6.737  0.2343 -0.1112  0.3873
  874YOPE   C3A12641  10.726  10.105   6.888  0.5163 -0.0880  0.1642
  874YOPE   C4A12642  10.940   9.714   7.049 -0.0746  0.2340  0.2000
  874YOPE   C1B12643  11.051  10.339   6.274 -0.3626 -0.0796  0.0253
  874YOPE   C2B12644  11.143  10.206   6.671 -0.1510  0.1519 -0.0948
  874YOPE   D3B12645  11.401   9.932   6.928  0.0185  0.2659  0.0957
  874YOPE   C4B12646  11.811   9.868   6.877 -0.0672  0.0353  0.2189
  875YOPE   NH312647  16.621  11.674   5.101 -0.4814 -0.3236 -0.0299
  875YOPE   PO412648  16.406  12.061   4.992 -0.4239  0.2950 -0.0219
  875YOPE   GL112649  16.284  11.936   5.421 -0.0157  0.5457 -0.1534
  875YOPE   GL212650  16.491  11.770   5.556  0.0800 -0.2238  0.0454
  875YOPE   C1A12651  16.155  12.131   5.804  0.1840 -0.1682  0.0956
  875YOPE   D2A12652  15.917  12.233   6.165  0.1864  0.2582 -0.2637
  875YOPE   C3A12653  16.006  12.570   6.465  0.1118 -0.0231  0.1828
  875YOPE   C4A12654  15.731  12.902   6.558  0.0234  0.0703 -0.0036
  875YOPE   C1B12655  16.243  11.694   5.986 -0.3840  0.1002  0.1956
  875YOPE   C2B12656  16.433  11.565   6.389 -0.3149  0.2759 -0.1329
  875YOPE   D3B12657  16.572  11.559   6.821  0.1339 -0.0366 -0.3119
  875YOPE   C4B12658  16.760  11.785   7.163 -0.3298 -0.3114 -0.0595
  876YOPE   NH312659   9.373   3.242   5.169  0.2764 -0.1221 -0.0892
  876YOPE   PO412660   9.849   3.179   5.150 -0.0081 -0.0957 -0.1016
  876YOPE   GL112661   9.754   3.438   5.502  0.2575 -0.0167  0.3136
  876YOPE   GL212662   9.418   3.616   5.581  0.1417  0.2557 -0.0849
  876YOPE   C1A12663   9.916   3.547   5.942  0.0269  0.0539  0.1422
  876YOPE   D2A12664   9.906   3.527   6.317 -0.0746 -0.0754  0.3471
  876YOPE   C3A12665  10.133   3.518   6.786 -0.0769 -0.1340  0.0623
  876YOPE   C4A12666  10.278   3.496   7.246  0.0550 -0.2120 -0.1269
  876YOPE   C1B12667   9.268   3.892   5.834  0.4771  0.1330 -0.2327
  876YOPE   C2B12668   9.135   3.926   6.213 -0.1322  0.1516  0.0578
  876YOPE   D3B12669   9.257   3.947   6.634  0.0360 -0.1571  0.0840
  876YOPE   C4B12670   9.262   3.911   7.050 -0.1425  0.1116  0.0469
  877YOPE   NH312671  19.139  19.082   5.322  0.0157 -0.0056 -0.1721
  877YOPE   PO412672  18.778  19.067   5.232 -0.0465 -0.1810  0.0214
  877YOPE   GL112673  18.782  19.140   5.699  0.2455  0.1660 -0.1734
  877YOPE   GL212674  18.555  19.344   5.876  0.0829  0.0953  0.0280
  877YOPE   C1A12675  18.900  18.873   6.013  0.1083  0.1736 -0.1315
  877YOPE   D2A12676  19.105  18.653   6.390  0.1002 -0.1693  0.2905
  877YOPE   C3A12677  19.109  18.515   6.870 -0.2068 -0.0596  0.3095
  877YOPE   C4A12678  19.188  18.354   7.323  0.1433  0.1304  0.1410
  877YOPE   C1B12679  18.674  19.179   6.385  0.0200 -0.1806  0.2582
  877YOPE   C2B12680  18.370  19.139   6.637  0.0754 -0.2053 -0.0756
  877YOPE   D3B12681  18.354  19.063   7.044 -0.3015  0.1508 -0.0399
  877YOPE   C4B12682  18.161  18.926   7.426 -0.0317 -0.4555  0.0552
  878YOPE   NH312683  17.620  19.032   5.930  0.2008 -0.1819 -0.1861
  878YOPE   PO412684  17.148  19.262   5.991 -0.2802  0.0635  0.0755
  878YOPE   GL112685  17.019  19.613   6.324 -0.0267 -0.0163  0.0321
  878YOPE   GL212686  16.794  19.349   6.376  0.0350 -0.2716  0.1066
  878YOPE   C1A12687  16.908  19.710   6.774 -0.3356  0.1192  0.0076
  878YOPE   D2A12688  16.925  19.805   7.199 -0.1804  0.0304  0.1309
  878YOPE   C3A12689  16.761  19.634   7.613 -0.0581  0.4091 -0.1088
  878YOPE   C4A12690  17.072  19.316   7.821  0.0503  0.2335 -0.0242
  878YOPE   C1B12691  16.946  19.185   6.775 -0.2645 -0.0042  0.0848
  878YOPE   C2B12692  17.006  18.881   7.137  0.2989 -0.0665  0.3121
  878YOPE   D3B12693  17.302  18.962   7.491 -0.0494  0.2176  0.3649
  878YOPE   C4B12694  17.418  18.592   7.764  0.0768 -0.1455  0.2367
  879YOPE   NH312695   4.023   0.148   5.223 -0.5171  0.2389  0.0544
  879YOPE   PO412696   3.851   0.412   5.048 -0.0877  0.0035  0.1778
  879YOPE   GL112697   3.560   0.572   5.337  0.0378 -0.3095  0.2003
  879YOPE   GL212698   3.485   0.190   5.342  0.1574  0.0552  0.5015
  879YOPE   C1A12699   3.112   0.589   5.545 -0.1587 -0.4826  0.0568
  879YOPE   D2A12700   2.838   0.778   5.924 -0.0872 -0.2706  0.0882
  879YOPE   C3A12701   2.806   0.740   6.411  0.1096 -0.0232 -0.3347
  879YOPE   C4A12702   3.002   0.890   6.763  0.2346 -0.0568 -0.1745
  879YOPE   C1B12703   3.441   0.276   5.797  0.2649  0.3441  0.2288
  879YOPE   C2B12704   3.374   0.257   6.190 -0.3376 -0.0510  0.3533
  879YOPE   D3B12705   3.481  -0.001   6.556 -0.0918 -0.1097  0.1723
  879YOPE   C4B12706   3.488  -0.022   6.943 -0.0322 -0.0867  0.0875
  880YOPE   NH312707   9.025  18.335   5.783  0.4212  0.1914 -0.6248
  880YOPE   PO412708   8.969  17.787   5.723  0.0169 -0.0134  0.0235
  880YOPE   GL112709   9.024  17.965   6.149 -0.1153 -0.0476  0.0558
  880YOPE   GL212710   9.372  17.977   6.199  0.0539 -0.1012  0.3723
  880YOPE   C1A12711   8.762  18.273   6.401 -0.1621  0.4292  0.1508
  880YOPE   D2A12712   8.530  18.527   6.733  0.0982  0.2967 -0.0054
  880YOPE   C3A12713   8.678  18.696   7.191  0.4889 -0.0206  0.1531
  880YOPE   C4A12714   8.908  18.560   7.533 -0.0657  0.2373 -0.0117
  880YOPE   C1B12715   9.556  17.986   6.621 -0.1067 -0.0348 -0.2894
  880YOPE   C2B12716   9.531  17.973   7.037 -0.1648 -0.0427 -0.0986
  880YOPE   D3B12717   9.676  18.081   7.381 -0.1543 -0.0998 -0.3485
  880YOPE   C4B12718   9.791  17.757   7.648 -0.3322 -0.0412  0.1622
  881YOPE   NH312719   9.672   6.057   5.250  0.0815 -0.0437 -0.0025
  881YOPE   PO412720   9.439   6.412   5.496 -0.0704 -0.1316 -0.4448
  881YOPE   GL112721   9.343   6.181   5.876 -0.0985 -0.2662 -0.2433
  881YOPE   GL212722   9.078   6.318   5.809  0.2324  0.0471  0.0617
  881YOPE   C1A12723   9.232   5.956   6.174  0.1467 -0.1078  0.0497
  881YOPE   D2A12724   9.027   6.000   6.535 -0.2674 -0.0791  0.1809
  881YOPE   C3A12725   8.757   6.378   6.584 -0.2179  0.0892  0.1987
  881YOPE   C4A12726   8.533   6.796   6.702 -0.2073 -0.1355  0.0106
  881YOPE   C1B12727   9.146   6.494   6.185 -0.2734 -0.3566 -0.0570
  881YOPE   C2B12728   9.057   6.797   6.549 -0.1693  0.0874 -0.2005
  881YOPE   D3B12729   9.374   6.784   7.015 -0.0656  0.1044  0.1514
  881YOPE   C4B12730   9.722   6.987   7.169  0.2469 -0.1923 -0.1104
  882YOPE   NH312731  10.838  13.359   5.683  0.0636 -0.0891  0.1013
  882YOPE   PO412732  10.514  13.566   5.880  0.1210  0.1087 -0.1880
  882YOPE   GL112733  10.562  13.215   6.166  0.2527  0.2136  0.5492
  882YOPE   GL212734  10.661  13.422   6.379  0.1394  0.1078 -0.0520
  882YOPE   C1A12735  10.420  13.040   6.619 -0.2777 -0.0127  0.0524
  882YOPE   D2A12736  10.420  13.181   7.007  0.4202 -0.0503 -0.0015
  882YOPE   C3A12737  10.439  12.987   7.329 -0.0041  0.0120  0.3455
  882YOPE   C4A12738  10.659  12.839   7.698 -0.0418  0.1380 -0.1198
  882YOPE   C1B12739  10.909  13.146   6.713  0.1154  0.3759  0.3176
  882YOPE   C2B12740  10.997  12.969   7.058  0.1922 -0.0109 -0.0456
  882YOPE   D3B12741  10.877  12.678   7.319 -0.0121  0.1514 -0.1838
  882YOPE   C4B12742  10.927  12.448   7.657  0.0414  0.3324 -0.1760
  883YOPE   NH312743   6.009   3.716   4.318 -0.3143  0.0344  0.0040
  883YOPE   PO412744   5.935   3.641   4.731 -0.1461 -0.1348 -0.1244
  883YOPE   GL112745   6.095   3.648   5.153  0.0801  0.1495  0.2706
  883YOPE   GL212746   6.513   3.617   5.040  0.0941  0.0961  0.1707
  883YOPE   C1A12747   6.080   3.310   5.522  0.2420  0.0227 -0.3328
  883YOPE   D2A12748   6.110   3.289   5.926 -0.4449 -0.0632  0.0959
  883YOPE   C3A12749   6.459   3.098   6.126  0.3277  0.2524  0.2194
  883YOPE   C4A12750   6.487   3.179   6.584  0.2192  0.1699  0.2722
  883YOPE   C1B12751   6.572   3.708   5.537 -0.1601  0.0617  0.2946
  883YOPE   C2B12752   6.486   3.613   5.880 -0.0755  0.2879 -0.1093
  883YOPE   D3B12753   6.238   3.559   6.307  0.0184  0.0395  0.2266
  883YOPE   C4B12754   6.307   3.636   6.799 -0.2913 -0.0121  0.0314
  884YOPE   NH312755  11.075  10.667   5.413  0.2296  0.0125  0.1898
  884YOPE   PO412756  11.452  10.836   5.312  0.0090 -0.0636  0.3687
  884YOPE   GL112757  11.403  10.837   5.748 -0.1778  0.0363 -0.1214
  884YOPE   GL212758  11.478  10.522   5.724 -0.1586 -0.0308 -0.0153
  884YOPE   C1A12759  11.755  10.937   6.067  0.2476 -0.0530  0.0720
  884YOPE   D2A12760  11.845  11.142   6.599 -0.4621 -0.0329  0.2336
  884YOPE   C3A12761  11.544  10.985   6.906 -0.0376  0.3638 -0.0933
  884YOPE   C4A12762  11.273  10.949   7.266  0.1320  0.0213  0.2241
  884YOPE   C1B12763  11.540  10.246   6.052 -0.2650  0.1407  0.3754
  884YOPE   C2B12764  11.610  10.094   6.469 -0.1908  0.0957 -0.1502
  884YOPE   D3B12765  11.721  10.328   6.947  0.1091 -0.2120 -0.1128
  884YOPE   C4B12766  11.670  10.575   7.232 -0.4569  0.1455  0.1076
  885YOPE   NH312767  11.971   6.738   5.293  0.2797 -0.0371  0.1047
  885YOPE   PO412768  12.362   6.462   5.290  0.2177  0.1751  0.0567
  885YOPE   GL112769  12.289   6.678   5.725  0.2088  0.3104 -0.1724
  885YOPE   GL212770  11.949   6.871   5.826 -0.2324  0.0613 -0.2810
  885YOPE   C1A12771  12.384   6.997   6.110 -0.1032 -0.1156 -0.2259
  885YOPE   D2A12772  12.410   7.389   6.353 -0.3176 -0.0881 -0.0259
  885YOPE   C3A12773  12.426   7.444   6.840  0.0802 -0.0086  0.1211
  885YOPE   C4A12774  12.474   7.717   7.277  0.0189  0.2536  0.2351
  885YOPE   C1B12775  11.891   7.025   6.191 -0.2323  0.1302  0.2246
  885YOPE   C2B12776  11.830   7.213   6.458 -0.0606  0.4297 -0.0173
  885YOPE   D3B12777  11.903   7.376   6.916  0.0347  0.0854  0.1086
  885YOPE   C4B12778  11.810   7.470   7.386  0.4105  0.0304  0.0751
  886YOPE   NH312779  16.240  14.851   5.144  0.0262 -0.1048 -0.0040
  886YOPE   PO412780  16.635  14.783   5.305 -0.0171 -0.0928 -0.0267
  886YOPE   GL112781  16.743  14.955   5.636  0.0420  0.5255 -0.1413
  886YOPE   GL212782  16.638  15.274   5.783 -0.1862 -0.1464 -0.0961
  886YOPE   C1A12783  17.109  15.119   5.761 -0.1691 -0.0515  0.0696
  886YOPE   D2A12784  17.396  15.061   6.178  0.0054  0.1470  0.2333
  886YOPE   C3A12785  17.753  15.399   6.177  0.1194 -0.1108 -0.0445
  886YOPE   C4A12786  18.035  15.495   6.483 -0.2588  0.0073 -0.1990
  886YOPE   C1B12787  16.809  15.187   6.147 -0.1419 -0.0857  0.1691
  886YOPE   C2B12788  16.733  15.307   6.536  0.0704  0.0783 -0.3073
  886YOPE   D3B12789  16.595  15.375   6.912 -0.2720  0.2407 -0.0790
  886YOPE   C4B12790  16.370  15.622   7.218 -0.1468 -0.2118  0.2523
  887YOPE   NH312791  15.521   7.305   5.070  0.4086 -0.3075 -0.2973
  887YOPE   PO412792  15.465   7.648   5.298  0.1171  0.2053  0.1043
  887YOPE   GL112793  15.370   7.458   5.674  0.0654 -0.2968 -0.1193
  887YOPE   GL212794  15.555   7.155   5.727  0.2723 -0.3443 -0.1061
  887YOPE   C1A12795  15.120   7.210   5.922 -0.1067 -0.0753  0.0837
  887YOPE   D2A12796  14.986   6.848   6.326  0.2655 -0.1726  0.2410
  887YOPE   C3A12797  15.256   6.516   6.623  0.4688  0.0321 -0.1890
  887YOPE   C4A12798  15.605   6.146   6.819 -0.0127  0.0376 -0.0639
  887YOPE   C1B12799  15.539   6.991   6.168 -0.0583  0.0603  0.0638
  887YOPE   C2B12800  15.412   7.017   6.528 -0.3975  0.2187  0.1071
  887YOPE   D3B12801  15.453   7.144   6.975 -0.1216 -0.3563 -0.0658
  887YOPE   C4B12802  15.267   7.207   7.363 -0.0128 -0.0641 -0.0288
  888YOPE   NH312803   2.970  13.119   5.037 -0.1074  0.0355  0.0447
  888YOPE   PO412804   2.932  13.548   5.155  0.0030  0.1031  0.0045
  888YOPE   GL112805   2.856  13.822   5.411 -0.1791 -0.0728  0.0516
  888YOPE   GL212806   3.100  14.087   5.349 -0.1168 -0.0316 -0.0702
  888YOPE   C1A12807   2.919  13.910   5.794  0.1803  0.2204  0.1573
  888YOPE   D2A12808   3.252  13.822   6.079 -0.0675  0.2024  0.1815
  888YOPE   C3A12809   3.292  13.961   6.323 -0.0875  0.2190  0.1325
  888YOPE   C4A12810   3.421  14.209   6.720  0.0128 -0.2993  0.1071
  888YOPE   C1B12811   3.430  14.103   5.668 -0.0256 -0.1962 -0.2461
  888YOPE   C2B12812   3.697  14.006   5.975 -0.0157 -0.1213  0.1453
  888YOPE   D3B12813   3.830  13.755   6.392  0.1152  0.1051 -0.3108
  888YOPE   C4B12814   3.990  13.915   6.790 -0.3407  0.0481  0.2218
  889YOPE   NH312815  18.584   6.958   4.977 -0.2538 -0.1138  0.1265
  889YOPE   PO412816  18.717   7.327   5.163  0.0374  0.1020  0.0023
  889YOPE   GL112817  18.666   7.538   5.551 -0.2390 -0.1254  0.0930
  889YOPE   GL212818  18.576   7.825   5.542 -0.1776 -0.4244  0.2435
  889YOPE   C1A12819  18.579   7.642   6.058 -0.0951  0.1992  0.1590
  889YOPE   D2A12820  18.212   7.643   6.436 -0.2781 -0.1240  0.0279
  889YOPE   C3A12821  18.009   7.942   6.654 -0.1217 -0.1033 -0.1572
  889YOPE   C4A12822  17.815   8.131   7.076 -0.0321 -0.0304  0.2173
  889YOPE   C1B12823  18.089   7.725   5.824 -0.2144 -0.0035  0.1183
  889YOPE   C2B12824  17.834   7.771   6.117  0.0078 -0.3658  0.0430
  889YOPE   D3B12825  17.707   7.620   6.447  0.0882 -0.1229 -0.0391
  889YOPE   C4B12826  17.694   7.517   6.833 -0.1973 -0.0401 -0.0642
  890YOPE   NH312827   9.237   7.209   5.295 -0.1452 -0.0973 -0.1181
  890YOPE   PO412828   8.795   7.112   5.054  0.3465 -0.4423  0.3780
  890YOPE   GL112829   8.765   6.997   5.442  0.1166 -0.1831 -0.0955
  890YOPE   GL212830   8.792   7.313   5.638 -0.0979  0.2639 -0.3897
  890YOPE   C1A12831   8.459   6.958   5.767 -0.0118  0.2537  0.0275
  890YOPE   D2A12832   8.277   6.953   6.151 -0.0831  0.0725  0.1982
  890YOPE   C3A12833   8.050   7.013   6.592 -0.0014  0.1958 -0.0206
  890YOPE   C4A12834   8.153   6.947   6.997  0.1741  0.1712 -0.0471
  890YOPE   C1B12835   8.871   7.641   5.905 -0.2946 -0.1282  0.1630
  890YOPE   C2B12836   9.075   7.649   6.253  0.0114 -0.0382  0.1610
  890YOPE   D3B12837   9.417   7.843   6.489  0.1224  0.1661 -0.1878
  890YOPE   C4B12838   9.633   8.211   6.620 -0.0523 -0.0620 -0.0826
  891YOPE   NH312839  14.524  16.754   6.158  0.4091  0.4446 -0.0206
  891YOPE   PO412840  14.174  17.031   5.936 -0.1908 -0.0583 -0.3506
  891YOPE   GL112841  14.461  17.219   6.311  0.3605  0.1817  0.0817
  891YOPE   GL212842  14.684  17.590   6.297 -0.2266  0.0184 -0.0478
  891YOPE   C1A12843  14.671  17.101   6.703 -0.0926  0.2533  0.0944
  891YOPE   D2A12844  14.866  17.192   7.031 -0.0450  0.0829 -0.1326
  891YOPE   C3A12845  14.668  17.139   7.394  0.3402  0.2013  0.1978
  891YOPE   C4A12846  14.405  16.913   7.690 -0.0993 -0.2947  0.2028
  891YOPE   C1B12847  14.579  17.609   6.709  0.5091  0.1354  0.0591
  891YOPE   C2B12848  14.680  17.683   7.065  0.0210 -0.0735 -0.3044
  891YOPE   D3B12849  14.954  17.677   7.309  0.2189  0.0930  0.0617
  891YOPE   C4B12850  14.792  17.514   7.751 -0.0128 -0.0086 -0.0415
  892YOPE   NH312851   4.172   4.066   4.389  0.2032 -0.1338  0.2587
  892YOPE   PO412852   3.876   4.306   4.642 -0.0638 -0.2416 -0.0051
  892YOPE   GL112853   3.840   4.285   5.073  0.0207 -0.3086 -0.0957
  892YOPE   GL212854   4.130   4.483   5.210 -0.1402  0.1715 -0.0927
  892YOPE   C1A12855   3.710   4.153   5.538  0.2425 -0.1277 -0.1618
  892YOPE   D2A12856   3.752   4.177   6.014 -0.0176 -0.0674 -0.0587
  892YOPE   C3A12857   4.153   4.247   6.126 -0.0140  0.1880 -0.1939
  892YOPE   C4A12858   4.434   4.037   6.453 -0.0638 -0.0897  0.0868
  892YOPE   C1B12859   4.088   4.930   5.378 -0.1699  0.2212  0.2628
  892YOPE   C2B12860   3.710   5.030   5.598 -0.0103  0.0565 -0.1615
  892YOPE   D3B12861   3.455   5.057   5.935  0.0609 -0.2657 -0.0785
  892YOPE   C4B12862   3.241   5.000   6.305 -0.1833  0.0024  0.0746
  893YOPE   NH312863  12.649   0.217   6.084 -0.0786 -0.1342  0.0942
  893YOPE   PO412864  12.330   0.512   6.154  0.0917  0.1346 -0.2194
  893YOPE   GL112865  12.257   0.360   6.459 -0.0025 -0.3408  0.2522
  893YOPE   GL212866  12.440   0.042   6.516 -0.0248 -0.0024 -0.1440
  893YOPE   C1A12867  12.103   0.288   6.900  0.1131  0.0581  0.0306
  893YOPE   D2A12868  12.035   0.211   7.274 -0.1608  0.3025  0.0054
  893YOPE   C3A12869  12.384  -0.003   7.297  0.0466 -0.0294  0.0675
  893YOPE   C4A12870  12.712  -0.236   7.134 -0.1776 -0.2557  0.0032
  893YOPE   C1B12871  12.193  -0.247   6.866 -0.0236  0.0128  0.1269
  893YOPE   C2B12872  11.748  -0.081   7.021 -0.1043 -0.1835 -0.1849
  893YOPE   D3B12873  11.534   0.076   7.452 -0.0142  0.0749 -0.3337
  893YOPE   C4B12874  11.273   0.449   7.489 -0.1013 -0.0258  0.0391
  894YOPE   NH312875   9.579  11.213   5.369  0.2004  0.0628  0.2742
  894YOPE   PO412876   9.940  11.244   5.579 -0.3072 -0.1653  0.1106
  894YOPE   GL112877   9.900  11.190   5.919  0.0678  0.1526 -0.0839
  894YOPE   GL212878   9.939  11.383   6.061  0.1164 -0.1752 -0.0678
  894YOPE   C1A12879   9.805  11.010   6.404 -0.0163  0.0706 -0.2686
  894YOPE   D2A12880   9.761  11.057   6.729  0.2356 -0.3308 -0.1511
  894YOPE   C3A12881   9.520  10.872   6.851 -0.1969  0.1097  0.0321
  894YOPE   C4A12882   9.291  11.036   7.096 -0.1231 -0.1716 -0.0037
  894YOPE   C1B12883  10.016  11.443   6.507  0.4969 -0.1961 -0.4577
  894YOPE   C2B12884  10.133  11.493   6.903  0.0382  0.3007 -0.1021
  894YOPE   D3B12885  10.435  11.567   7.089  0.3369  0.1576  0.4556
  894YOPE   C4B12886  10.442  11.940   7.259 -0.0209 -0.0225 -0.1119
  895YOPE   NH312887   0.110   8.923   5.016 -0.2793 -0.0250  0.0822
  895YOPE   PO412888   0.593   8.742   5.043  0.4903 -0.1836  0.1013
  895YOPE   GL112889   0.552   9.035   5.357 -0.2333 -0.0033 -0.1491
  895YOPE   GL212890   0.210   9.183   5.487  0.0446  0.4629 -0.1312
  895YOPE   C1A12891   0.577   9.177   5.744 -0.2428 -0.3071  0.0183
  895YOPE   D2A12892   0.559   9.169   6.139 -0.0322 -0.0362  0.4160
  895YOPE   C3A12893   0.217   9.206   6.540  0.0068 -0.4774  0.0997
  895YOPE   C4A12894   0.184   9.203   6.983  0.0781  0.2242  0.0472
  895YOPE   C1B12895   0.118   9.155   5.985  0.0681 -0.1142  0.0500
  895YOPE   C2B12896  -0.166   8.919   6.225  0.3851  0.0855 -0.0438
  895YOPE   D3B12897  -0.348   9.013   6.665 -0.0314 -0.1961  0.0804
  895YOPE   C4B12898  -0.421   9.305   6.985  0.1948 -0.3218  0.0803
  896YOPE   NH312899  15.509  18.031   6.031 -0.3468  0.4001 -0.3050
  896YOPE   PO412900  15.501  18.507   6.021 -0.0324 -0.2824 -0.0532
  896YOPE   GL112901  15.415  18.445   6.508  0.1147  0.2110  0.1006
  896YOPE   GL212902  15.313  18.193   6.557  0.0800  0.1288 -0.2140
  896YOPE   C1A12903  15.432  18.417   6.949 -0.1138  0.1810 -0.2743
  896YOPE   D2A12904  15.404  18.313   7.279  0.1008 -0.3780 -0.5129
  896YOPE   C3A12905  15.391  18.533   7.655  0.5011 -0.0787  0.2408
  896YOPE   C4A12906  15.492  18.872   7.921 -0.1637  0.2639  0.4054
  896YOPE   C1B12907  15.244  17.966   6.922 -0.1926 -0.2478  0.0539
  896YOPE   C2B12908  15.436  17.712   7.259 -0.1660 -0.3085 -0.1393
  896YOPE   D3B12909  15.551  17.496   7.566  0.2618  0.1715  0.0738
  896YOPE   C4B12910  15.738  17.351   7.886  0.1803  0.0635  0.1196
  897YOPE   NH312911   8.592  12.702   5.389  0.3512  0.0693 -0.1893
  897YOPE   PO412912   8.456  12.913   5.745  0.3851  0.1556  0.3574
  897YOPE   GL112913   8.828  12.755   5.957  0.1530  0.1184 -0.1715
  897YOPE   GL212914   9.102  12.491   5.855 -0.1795 -0.0371  0.0770
  897YOPE   C1A12915   9.000  12.712   6.296 -0.2203 -0.0508  0.1703
  897YOPE   D2A12916   8.881  12.696   6.655 -0.1088 -0.1422  0.0983
  897YOPE   C3A12917   8.988  12.729   7.080  0.3353  0.2435  0.0654
  897YOPE   C4A12918   9.104  12.487   7.418  0.2815  0.0895  0.4009
  897YOPE   C1B12919   8.935  12.249   6.149  0.1505  0.0234  0.1753
  897YOPE   C2B12920   8.888  12.202   6.492  0.0957 -0.0218 -0.0488
  897YOPE   D3B12921   8.770  12.308   6.942 -0.1103 -0.4343  0.4265
  897YOPE   C4B12922   8.461  12.320   7.235 -0.1143 -0.0316 -0.1667
  898YOPE   NH312923  16.808  12.437   5.019 -0.0395  0.1038 -0.3509
  898YOPE   PO412924  17.249  12.364   4.727  0.0432 -0.4808  0.1091
  898YOPE   GL112925  17.347  12.456   5.207 -0.2495 -0.0116 -0.1187
  898YOPE   GL212926  17.392  12.224   5.276 -0.0065 -0.1409 -0.3337
  898YOPE   C1A12927  17.762  12.540   5.397 -0.2106  0.0358 -0.0313
  898YOPE   D2A12928  18.114  12.859   5.461 -0.2742  0.1365  0.0229
  898YOPE   C3A12929  18.523  12.779   5.671  0.0043  0.2687 -0.1398
  898YOPE   C4A12930  18.777  12.908   5.918 -0.4162 -0.0031  0.2191
  898YOPE   C1B12931  17.631  12.070   5.562 -0.1940 -0.0767  0.2569
  898YOPE   C2B12932  17.922  12.003   5.939 -0.0821  0.1575  0.0969
  898YOPE   D3B12933  18.040  11.784   6.302 -0.0059 -0.2062  0.0142
  898YOPE   C4B12934  17.991  11.274   6.331 -0.3405 -0.1930 -0.0699
  899YOPE   NH312935  16.471   6.290   4.611 -0.0538  0.1360 -0.3096
  899YOPE   PO412936  16.233   6.582   4.887  0.1113  0.0584 -0.1443
  899YOPE   GL112937  16.191   6.507   5.362 -0.2189  0.1193 -0.1803
  899YOPE   GL212938  16.066   6.378   5.533  0.1942 -0.0004  0.6297
  899YOPE   C1A12939  16.248   6.774   5.680 -0.3022  0.2310  0.0160
  899YOPE   D2A12940  16.398   6.938   6.117 -0.1100  0.1438 -0.1535
  899YOPE   C3A12941  16.576   6.607   6.340 -0.2438  0.1071 -0.0973
  899YOPE   C4A12942  16.642   6.329   6.672 -0.0722 -0.4427 -0.0278
  899YOPE   C1B12943  15.885   5.938   5.755 -0.2719 -0.2514 -0.2018
  899YOPE   C2B12944  15.871   5.504   6.045  0.0924  0.0896  0.0849
  899YOPE   D3B12945  15.769   5.222   6.467 -0.3325  0.3588  0.4809
  899YOPE   C4B12946  15.859   5.312   6.792  0.0962 -0.2332  0.1851
  900YOPE   NH312947  16.192  16.583   5.878 -0.0270 -0.0148 -0.2627
  900YOPE   PO412948  16.422  16.145   5.706 -0.0516  0.0949  0.2505
  900YOPE   GL112949  16.019  16.120   6.028 -0.0505 -0.1063  0.1244
  900YOPE   GL212950  16.008  16.425   6.315  0.0639  0.0819  0.2588
  900YOPE   C1A12951  15.865  15.838   6.398 -0.2551  0.0082 -0.0402
  900YOPE   D2A12952  15.571  15.636   6.588  0.4458 -0.0496  0.0408
  900YOPE   C3A12953  15.493  15.739   7.020  0.0378  0.1899 -0.3978
  900YOPE   C4A12954  15.570  16.142   7.345  0.0035 -0.0603 -0.1682
  900YOPE   C1B12955  16.122  16.459   6.686  0.0111 -0.1354  0.4934
  900YOPE   C2B12956  16.353  16.661   6.900 -0.1961  0.1949 -0.0358
  900YOPE   D3B12957  16.812  16.638   7.096 -0.0114  0.1170  0.2050
  900YOPE   C4B12958  17.220  16.544   7.254  0.0414 -0.3122 -0.1460
  901YOPE   NH312959   4.210  19.125   5.453  0.2209 -0.0017  0.1598
  901YOPE   PO412960   3.772  19.146   5.424  0.1348 -0.0256 -0.1094
  901YOPE   GL112961   3.721  19.061   5.832 -0.1509 -0.1446 -0.0643
  901YOPE   GL212962   3.853  18.742   5.778  0.0798  0.3269 -0.3963
  901YOPE   C1A12963   3.680  19.158   6.141  0.1783 -0.3112 -0.2108
  901YOPE   D2A12964   3.632  18.907   6.484 -0.1705  0.0704  0.1713
  901YOPE   C3A12965   3.806  18.912   6.963  0.0011  0.0280 -0.0858
  901YOPE   C4A12966   3.722  19.387   7.401 -0.0374  0.2968  0.1122
  901YOPE   C1B12967   3.953  18.709   6.119  0.3074  0.0011  0.1417
  901YOPE   C2B12968   4.095  18.589   6.542 -0.1679  0.0069 -0.0025
  901YOPE   D3B12969   4.033  18.438   6.929 -0.0398  0.2074 -0.2035
  901YOPE   C4B12970   4.204  18.333   7.320  0.0980 -0.3507 -0.3543
  902YOPE   NH312971  15.091  16.254   5.705  0.4570  0.2414 -0.3742
  902YOPE   PO412972  15.504  16.157   5.915  0.0129 -0.3179  0.1757
  902YOPE   GL112973  15.521  16.221   6.340  0.1943 -0.3339 -0.0355
  902YOPE   GL212974  15.493  16.500   6.484  0.2530  0.1142 -0.0834
  902YOPE   C1A12975  15.746  16.133   6.825  0.1143 -0.3110 -0.1575
  902YOPE   D2A12976  15.932  16.418   7.108 -0.1807  0.1369 -0.2029
  902YOPE   C3A12977  15.959  16.369   7.561  0.3434 -0.0396  0.0205
  902YOPE   C4A12978  16.287  16.329   7.903  0.1333 -0.0447  0.0221
  902YOPE   C1B12979  15.586  16.577   6.838 -0.1424 -0.2063  0.2744
  902YOPE   C2B12980  15.806  16.924   7.020  0.0542 -0.3162  0.0837
  902YOPE   D3B12981  15.957  17.123   7.396 -0.2640  0.0094  0.0340
  902YOPE   C4B12982  16.265  17.280   7.759 -0.2745  0.4415 -0.5204
  903YOPE   NH312983   0.128   6.953   5.208  0.1101  0.0408  0.0842
  903YOPE   PO412984  -0.282   6.984   5.011 -0.0188 -0.1049  0.4088
  903YOPE   GL112985  -0.370   6.928   5.452 -0.0385  0.1700  0.0636
  903YOPE   GL212986  -0.530   7.008   5.510 -0.1209  0.2311 -0.1175
  903YOPE   C1A12987  -0.620   6.486   5.623 -0.1746  0.3268  0.0067
  903YOPE   D2A12988  -0.927   6.308   5.832  0.0631  0.0828 -0.0760
  903YOPE   C3A12989  -0.978   6.259   6.269  0.1973  0.0168 -0.1738
  903YOPE   C4A12990  -1.104   6.203   6.674  0.0155  0.0987 -0.0080
  903YOPE   C1B12991  -0.600   7.195   5.885 -0.1692  0.1907  0.0807
  903YOPE   C2B12992  -0.828   7.251   6.316 -0.5363  0.0992 -0.0755
  903YOPE   D3B12993  -0.890   7.048   6.705  0.1270 -0.2555 -0.1871
  903YOPE   C4B12994  -0.924   7.088   7.145 -0.2991  0.3674 -0.0208
  904YOPE   NH312995   5.340  14.276   5.702  0.1394 -0.1259 -0.0739
  904YOPE   PO412996   5.490  14.709   5.900  0.2097  0.1644  0.0136
  904YOPE   GL112997   5.772  14.719   6.267 -0.3260  0.2350  0.0614
  904YOPE   GL212998   5.712  15.119   6.257 -0.1082 -0.0800 -0.3541
  904YOPE   C1A12999   5.968  14.468   6.540 -0.1287  0.3557 -0.1615
  904YOPE   D2A13000   6.012  14.020   6.802 -0.1090  0.1965  0.3544
  904YOPE   C3A13001   6.286  14.088   7.010 -0.2089 -0.1928  0.0428
  904YOPE   C4A13002   6.711  14.128   7.296 -0.3406  0.0517 -0.0484
  904YOPE   C1B13003   5.727  14.995   6.676 -0.0121 -0.0171 -0.2302
  904YOPE   C2B13004   5.883  15.289   7.026  0.3828 -0.1599 -0.1462
  904YOPE   D3B13005   5.746  15.602   7.403 -0.0013 -0.1180  0.2413
  904YOPE   C4B13006   5.910  15.778   7.804 -0.2649 -0.0853  0.0501
  905YOPE   NH313007   7.913   2.247   5.103  0.2681 -0.0623  0.2982
  905YOPE   PO413008   8.092   2.263   5.478 -0.0385  0.0745 -0.1249
  905YOPE   GL113009   8.212   2.065   5.859 -0.1124  0.1641 -0.1325
  905YOPE   GL213010   7.938   2.001   5.888 -0.0301 -0.0185 -0.2745
  905YOPE   C1A13011   8.273   1.697   6.055 -0.1100  0.0836 -0.2137
  905YOPE   D2A13012   8.077   1.349   6.352 -0.4212  0.0411  0.1444
  905YOPE   C3A13013   8.388   1.086   6.332  0.1481 -0.4671 -0.2405
  905YOPE   C4A13014   8.786   0.981   6.116  0.0272 -0.1715  0.2453
  905YOPE   C1B13015   7.877   1.823   6.293  0.0290  0.1358  0.0230
  905YOPE   C2B13016   8.008   1.729   6.740 -0.3151 -0.2791  0.0158
  905YOPE   D3B13017   8.015   1.752   7.171 -0.1724  0.2493  0.0612
  905YOPE   C4B13018   8.156   1.565   7.499 -0.1955 -0.0602  0.0731
  906YOPE   NH313019   4.120  12.256   5.222 -0.1467  0.0832 -0.0990
  906YOPE   PO413020   4.023  12.680   5.418 -0.2372  0.0673 -0.1737
  906YOPE   GL113021   4.231  12.850   5.853 -0.0955 -0.1390  0.0952
  906YOPE   GL213022   4.247  13.226   5.841  0.1981  0.0959 -0.0234
  906YOPE   C1A13023   4.290  13.008   6.371  0.1328  0.1263 -0.1758
  906YOPE   D2A13024   4.433  12.991   6.871 -0.3690 -0.0779  0.3956
  906YOPE   C3A13025   4.790  13.156   7.115  0.1199  0.2228 -0.2196
  906YOPE   C4A13026   4.778  13.240   7.502  0.1369 -0.0382 -0.1504
  906YOPE   C1B13027   4.328  13.497   6.117  0.1583  0.0989  0.0547
  906YOPE   C2B13028   4.493  13.864   6.233  0.2645 -0.0174 -0.1296
  906YOPE   D3B13029   4.251  14.084   6.389  0.0321 -0.1517 -0.0880
  906YOPE   C4B13030   3.824  14.264   6.463 -0.0303 -0.1818 -0.0538
  907YOPE   NH313031  13.455   6.729   5.162 -0.0577  0.5339  0.2823
  907YOPE   PO413032  13.909   6.550   5.253 -0.3806  0.0325  0.0658
  907YOPE   GL113033  13.934   6.447   5.717 -0.1495  0.0926  0.2626
  907YOPE   GL213034  13.840   6.645   5.971  0.2006 -0.0479 -0.0240
  907YOPE   C1A13035  14.184   6.202   5.918 -0.0119 -0.0283  0.0069
  907YOPE   D2A13036  14.124   5.730   6.097  0.1208 -0.0986 -0.1344
  907YOPE   C3A13037  13.841   5.575   6.566  0.1559 -0.0786 -0.1064
  907YOPE   C4A13038  13.880   5.718   6.894  0.0085 -0.3101 -0.0618
  907YOPE   C1B13039  13.558   6.654   6.288 -0.2562 -0.1423 -0.1698
  907YOPE   C2B13040  13.643   6.802   6.787  0.0934  0.0359  0.0536
  907YOPE   D3B13041  13.975   6.747   7.213  0.0390  0.1824 -0.0803
  907YOPE   C4B13042  14.033   6.499   7.587  0.1815  0.0821 -0.0203
  908YOPE   NH313043   5.709   9.593   4.840 -0.1468  0.3466 -0.0912
  908YOPE   PO413044   5.279   9.701   4.916  0.1653 -0.0470  0.1670
  908YOPE   GL113045   5.087   9.322   5.170 -0.1042  0.0201  0.2720
  908YOPE   GL213046   4.879   9.158   5.308  0.0207  0.1111  0.2395
  908YOPE   C1A13047   5.248   8.986   5.538  0.4629  0.2044 -0.1651
  908YOPE   D2A13048   5.277   8.970   5.947  0.0792  0.3000  0.0354
  908YOPE   C3A13049   4.892   8.874   6.291 -0.0704  0.0429  0.0653
  908YOPE   C4A13050   4.531   9.017   6.150 -0.1564  0.1064 -0.1450
  908YOPE   C1B13051   4.816   9.165   5.793 -0.3730 -0.0176  0.0342
  908YOPE   C2B13052   4.974   9.344   6.188  0.1633 -0.0529  0.0819
  908YOPE   D3B13053   4.992   9.720   6.380 -0.0804 -0.2626 -0.2443
  908YOPE   C4B13054   5.359  10.057   6.626 -0.1518  0.0281  0.2934
  909YOPE   NH313055   0.824  19.282   5.505 -0.0834  0.1973  0.4916
  909YOPE   PO413056   0.723  19.673   5.530 -0.0773 -0.1991  0.0480
  909YOPE   GL113057   0.608  19.657   5.926  0.0521  0.0787 -0.0964
  909YOPE   GL213058   0.925  19.486   5.942  0.2442  0.1339  0.0535
  909YOPE   C1A13059   0.728  19.662   6.389  0.1785  0.0096 -0.0062
  909YOPE   D2A13060   0.854  20.083   6.622 -0.1263 -0.0271  0.0259
  909YOPE   C3A13061   0.760  20.464   6.741 -0.4497  0.1924  0.0157
  909YOPE   C4A13062   0.644  20.877   6.895  0.1560 -0.2889 -0.1541
  909YOPE   C1B13063   1.198  19.726   6.155 -0.2528  0.2670 -0.1967
  909YOPE   C2B13064   1.384  19.896   6.449  0.2100  0.2166  0.1715
  909YOPE   D3B13065   1.886  19.846   6.594 -0.0875 -0.2492 -0.1747
  909YOPE   C4B13066   2.051  19.465   6.530  0.1304  0.2175  0.1643
  910YOPE   NH313067   4.778   4.095   4.711  0.4135 -0.3297  0.0180
  910YOPE   PO413068   4.976   3.711   4.819  0.1862  0.1609 -0.4013
  910YOPE   GL113069   4.983   4.064   5.217 -0.0534  0.0582 -0.0816
  910YOPE   GL213070   5.158   4.319   5.150 -0.0915 -0.5656 -0.2488
  910YOPE   C1A13071   5.148   3.999   5.619  0.3612  0.0767 -0.2231
  910YOPE   D2A13072   5.305   4.015   5.950 -0.1539 -0.2394 -0.0744
  910YOPE   C3A13073   5.512   3.799   6.272  0.3589  0.0111  0.0061
  910YOPE   C4A13074   5.717   3.475   6.237 -0.1303  0.0371 -0.0699
  910YOPE   C1B13075   4.989   4.638   5.362 -0.4254 -0.0332 -0.1167
  910YOPE   C2B13076   4.863   4.917   5.688 -0.1523 -0.3927 -0.1742
  910YOPE   D3B13077   4.793   5.111   5.976  0.1645 -0.0993 -0.1285
  910YOPE   C4B13078   4.677   5.215   6.383  0.0820 -0.1134 -0.2388
  911YOPE   NH313079   0.779  14.664   5.119  0.0826 -0.2524 -0.2053
  911YOPE   PO413080   1.184  14.803   5.140 -0.2349  0.1376  0.1264
  911YOPE   GL113081   1.224  14.709   5.486  0.0038  0.0306  0.2378
  911YOPE   GL213082   1.198  14.976   5.861 -0.0767 -0.1072 -0.1888
  911YOPE   C1A13083   1.190  14.444   5.814  0.1701 -0.0855 -0.1994
  911YOPE   D2A13084   0.882  14.311   5.979  0.3878  0.0661 -0.0213
  911YOPE   C3A13085   0.869  14.133   6.400 -0.5022  0.0642  0.0623
  911YOPE   C4A13086   1.182  14.399   6.591  0.0411  0.1381 -0.0005
  911YOPE   C1B13087   1.370  14.782   6.213  0.3467  0.1613 -0.1835
  911YOPE   C2B13088   1.471  14.796   6.648  0.0923 -0.1918 -0.0274
  911YOPE   D3B13089   1.099  14.856   6.813  0.1388  0.2166  0.1482
  911YOPE   C4B13090   0.625  14.915   6.994 -0.1238  0.0002 -0.0022
  912YOPE   NH313091  10.373   6.108   4.691 -0.1343 -0.0086  0.0113
  912YOPE   PO413092  10.127   6.110   5.107  0.0728 -0.1703 -0.3266
  912YOPE   GL113093  10.073   6.164   5.605  0.1736 -0.0393  0.1374
  912YOPE   GL213094  10.060   6.532   5.730  0.0593 -0.1523 -0.3323
  912YOPE   C1A13095   9.908   6.033   6.000 -0.1992  0.0938 -0.0523
  912YOPE   D2A13096   9.668   5.754   6.175  0.2856  0.1216 -0.1402
  912YOPE   C3A13097   9.505   5.829   6.571 -0.0364 -0.2755  0.0578
  912YOPE   C4A13098   9.695   6.037   7.017 -0.0838  0.1927 -0.1526
  912YOPE   C1B13099   9.906   6.576   6.222  0.2139  0.3364  0.0567
  912YOPE   C2B13100   9.544   6.328   6.444 -0.2020 -0.1220  0.0405
  912YOPE   D3B13101   9.216   6.385   6.779  0.1160  0.0298  0.1526
  912YOPE   C4B13102   9.131   6.403   7.240 -0.1677 -0.2509 -0.0396
  913YOPE   NH313103   7.158   4.775   4.993  0.1562  0.1916 -0.0760
  913YOPE   PO413104   6.820   4.874   5.042 -0.1054  0.1850 -0.0797
  913YOPE   GL113105   6.770   4.571   5.418 -0.0471  0.2475  0.0183
  913YOPE   GL213106   6.497   4.250   5.394 -0.0112 -0.0699 -0.0716
  913YOPE   C1A13107   6.576   4.585   5.823 -0.2998 -0.2798 -0.0507
  913YOPE   D2A13108   6.336   4.877   6.027  0.1646 -0.1329  0.0410
  913YOPE   C3A13109   6.123   4.943   6.484  0.0896  0.0412  0.1418
  913YOPE   C4A13110   6.169   5.134   6.902 -0.3189 -0.0655 -0.0257
  913YOPE   C1B13111   6.371   4.146   5.866 -0.0283 -0.1231  0.0176
  913YOPE   C2B13112   6.106   4.000   6.214  0.3695  0.2602  0.0927
  913YOPE   D3B13113   5.891   3.847   6.548 -0.0265 -0.2137  0.2427
  913YOPE   C4B13114   5.677   3.670   6.802 -0.0303 -0.0420  0.1229
  914YOPE   NH313115  15.003  18.506   6.228 -0.3250  0.0215  0.1630
  914YOPE   PO413116  14.655  18.284   5.971  0.3829 -0.0228 -0.0231
  914YOPE   GL113117  14.480  18.490   6.314 -0.1964 -0.0420  0.2045
  914YOPE   GL213118  14.582  18.249   6.503 -0.1905  0.4205 -0.0734
  914YOPE   C1A13119  14.543  18.740   6.641  0.0955 -0.2880  0.0355
  914YOPE   D2A13120  14.487  18.922   7.048  0.1552 -0.0381 -0.0787
  914YOPE   C3A13121  14.435  18.995   7.524  0.1198  0.0040  0.3662
  914YOPE   C4A13122  14.481  18.712   7.857 -0.0443  0.1462 -0.1064
  914YOPE   C1B13123  14.815  18.243   6.863  0.1117  0.0669  0.1511
  914YOPE   C2B13124  14.962  18.158   7.285 -0.2687 -0.0375  0.4140
  914YOPE   D3B13125  15.090  17.980   7.658 -0.1314  0.2454 -0.1754
  914YOPE   C4B13126  14.939  17.913   8.150  0.2232  0.0611 -0.1960
  915YOPE   NH313127   5.244  10.136   5.235  0.0816 -0.1259  0.3723
  915YOPE   PO413128   4.906  10.236   5.455 -0.1738  0.1996  0.3626
  915YOPE   GL113129   4.785  10.495   5.858  0.0729 -0.1906 -0.2623
  915YOPE   GL213130   4.615  10.777   5.855 -0.1057  0.2814  0.1000
  915YOPE   C1A13131   4.830  10.441   6.278  0.1014 -0.0107 -0.0244
  915YOPE   D2A13132   4.794  10.506   6.758 -0.1957  0.3073 -0.0024
  915YOPE   C3A13133   4.874  10.050   6.959 -0.0399  0.1405  0.3569
  915YOPE   C4A13134   5.304   9.896   7.162  0.1111  0.2449  0.0371
  915YOPE   C1B13135   4.558  10.963   6.236 -0.2350  0.0935 -0.3073
  915YOPE   C2B13136   4.294  11.074   6.549  0.1146 -0.2763 -0.0156
  915YOPE   D3B13137   4.320  11.444   6.884 -0.0087  0.1534 -0.1430
  915YOPE   C4B13138   4.238  11.853   7.109 -0.2448 -0.0987 -0.1055
  916YOPE   NH313139  10.090  11.763   5.727 -0.0172  0.0882 -0.0015
  916YOPE   PO413140  10.418  11.660   5.450  0.2951 -0.3250  0.0743
  916YOPE   GL113141  10.418  11.391   5.858 -0.2248  0.2665 -0.0586
  916YOPE   GL213142  10.851  11.505   5.763 -0.0690  0.1623 -0.1475
  916YOPE   C1A13143  10.441  11.456   6.366 -0.0140  0.4698  0.0947
  916YOPE   D2A13144  10.694  11.686   6.698 -0.1334 -0.0478  0.1998
  916YOPE   C3A13145  10.777  12.156   6.766  0.1381  0.1316  0.1051
  916YOPE   C4A13146  10.645  12.546   6.699  0.1540 -0.0873 -0.0908
  916YOPE   C1B13147  10.911  11.559   6.221  0.0704 -0.4245  0.1420
  916YOPE   C2B13148  10.864  11.224   6.419  0.2012  0.1034  0.0772
  916YOPE   D3B13149  11.041  11.162   6.803  0.2430 -0.1432 -0.1071
  916YOPE   C4B13150  11.401  11.410   7.039 -0.2053  0.0852  0.0447
  917YOPE   NH313151  12.887   2.965   5.638 -0.0977  0.1436  0.0035
  917YOPE   PO413152  12.543   3.212   5.626  0.1237 -0.3958  0.2449
  917YOPE   GL113153  12.253   3.084   5.870  0.1628 -0.4492 -0.4150
  917YOPE   GL213154  12.496   3.015   6.135 -0.1585  0.1693 -0.1374
  917YOPE   C1A13155  12.023   3.264   6.178  0.0193 -0.2182  0.0145
  917YOPE   D2A13156  12.020   3.509   6.499 -0.2827 -0.2167 -0.0915
  917YOPE   C3A13157  12.142   3.504   6.807  0.0276  0.0741 -0.0820
  917YOPE   C4A13158  12.386   3.710   7.014  0.0000 -0.3245 -0.3903
  917YOPE   C1B13159  12.522   3.205   6.503 -0.0307  0.2981 -0.2821
  917YOPE   C2B13160  12.450   3.148   6.971  0.4503 -0.0058  0.2662
  917YOPE   D3B13161  12.277   3.290   7.424  0.3059  0.1555  0.5163
  917YOPE   C4B13162  12.263   3.049   7.840 -0.0692  0.1376  0.1484
  918YOPE   NH313163   1.084   6.422   4.634  0.1170 -0.2256  0.0743
  918YOPE   PO413164   0.935   6.640   5.024  0.0589 -0.4110  0.1224
  918YOPE   GL113165   0.900   6.505   5.485  0.0148 -0.3357  0.2835
  918YOPE   GL213166   0.897   6.183   5.571 -0.0100  0.1398 -0.1740
  918YOPE   C1A13167   0.862   6.532   5.884 -0.2201 -0.0263  0.0592
  918YOPE   D2A13168   0.651   6.582   6.137 -0.0772 -0.0732 -0.1445
  918YOPE   C3A13169   0.581   6.692   6.484 -0.1815  0.1316  0.0969
  918YOPE   C4A13170   0.328   6.648   6.887 -0.0082  0.1714 -0.0980
  918YOPE   C1B13171   1.244   6.159   5.856  0.0783  0.3930 -0.3819
  918YOPE   C2B13172   1.606   5.854   5.945  0.0368  0.0489 -0.3153
  918YOPE   D3B13173   1.922   5.557   6.030 -0.2789 -0.0025  0.1850
  918YOPE   C4B13174   2.264   5.365   5.843 -0.2052 -0.0103  0.0278
  919YOPE   NH313175   4.146   4.754   4.763 -0.3305 -0.1327 -0.0418
  919YOPE   PO413176   4.506   4.451   4.475  0.0685 -0.0719 -0.1834
  919YOPE   GL113177   4.328   4.134   4.886 -0.0184  0.3511 -0.1465
  919YOPE   GL213178   4.477   4.120   5.141  0.1317 -0.1609  0.3654
  919YOPE   C1A13179   4.095   3.842   5.256 -0.0148 -0.3274  0.3471
  919YOPE   D2A13180   3.888   3.540   5.281 -0.0929 -0.1221  0.1049
  919YOPE   C3A13181   4.047   3.133   5.194 -0.0293 -0.4731 -0.1268
  919YOPE   C4A13182   3.962   2.766   5.457 -0.0814  0.3357 -0.0259
  919YOPE   C1B13183   4.316   4.181   5.589  0.2079  0.2726  0.1861
  919YOPE   C2B13184   4.136   3.844   5.773 -0.3028 -0.3672  0.0543
  919YOPE   D3B13185   4.139   3.735   6.122  0.1655  0.1252  0.4257
  919YOPE   C4B13186   3.879   3.806   6.563 -0.0066  0.1269 -0.2680
  920YOPE   NH313187  11.921   9.000   4.918 -0.1742 -0.1953  0.3662
  920YOPE   PO413188  12.324   9.196   4.914  0.1752 -0.4134 -0.1649
  920YOPE   GL113189  12.449   9.187   5.353  0.2331  0.0352 -0.2878
  920YOPE   GL213190  12.733   9.360   5.537 -0.0663 -0.2766  0.1000
  920YOPE   C1A13191  12.457   8.832   5.684  0.3798 -0.0579 -0.0700
  920YOPE   D2A13192  12.468   8.426   5.725 -0.3499  0.2028 -0.0412
  920YOPE   C3A13193  12.425   8.303   6.139 -0.1264 -0.1188 -0.3576
  920YOPE   C4A13194  12.487   8.367   6.575  0.0582 -0.0131  0.0463
  920YOPE   C1B13195  12.770   9.322   5.940 -0.1461  0.0664 -0.0097
  920YOPE   C2B13196  12.559   9.366   6.373  0.1913  0.2080 -0.0019
  920YOPE   D3B13197  12.509   9.450   6.830 -0.5005 -0.0390  0.3650
  920YOPE   C4B13198  12.264   9.757   7.053  0.1577 -0.1116 -0.2297
  921YOPE   NH313199  19.337   1.272   5.273 -0.0559 -0.2045 -0.2761
  921YOPE   PO413200  19.008   1.183   5.577  0.1614 -0.1769 -0.2420
  921YOPE   GL113201  19.193   1.358   6.022  0.0818 -0.4222  0.3465
  921YOPE   GL213202  19.101   1.774   6.079  0.0277  0.0381  0.2077
  921YOPE   C1A13203  19.249   1.249   6.451  0.0269 -0.1062  0.1530
  921YOPE   D2A13204  19.135   1.109   6.850 -0.0283 -0.2474 -0.2239
  921YOPE   C3A13205  19.555   1.225   6.924  0.1286 -0.2065 -0.2078
  921YOPE   C4A13206  19.685   0.921   7.150  0.1332 -0.2318 -0.2274
  921YOPE   C1B13207  18.950   1.846   6.376  0.1377 -0.1056  0.2262
  921YOPE   C2B13208  18.915   1.843   6.802  0.1973 -0.0055 -0.1646
  921YOPE   D3B13209  19.028   1.533   7.074  0.1722  0.1471 -0.1839
  921YOPE   C4B13210  19.234   1.570   7.365  0.0400  0.1988 -0.1216
  922YOPE   NH313211  12.422   2.601   5.790  0.3118 -0.1936  0.2453
  922YOPE   PO413212  12.530   2.124   5.792  0.1632 -0.0008  0.3363
  922YOPE   GL113213  12.612   1.979   6.205  0.3175 -0.0873 -0.0203
  922YOPE   GL213214  12.972   1.819   6.324 -0.0346  0.1181 -0.2208
  922YOPE   C1A13215  12.824   2.252   6.704  0.1580  0.0838  0.1308
  922YOPE   D2A13216  13.107   2.282   7.009 -0.0917 -0.0878 -0.1015
  922YOPE   C3A13217  13.327   2.336   7.310  0.0479 -0.1065  0.1219
  922YOPE   C4A13218  13.549   2.565   7.551 -0.4048 -0.1368 -0.0420
  922YOPE   C1B13219  13.165   1.828   6.741 -0.5663  0.1549  0.0085
  922YOPE   C2B13220  13.117   1.723   7.141  0.0914  0.2497  0.3144
  922YOPE   D3B13221  13.164   1.925   7.488  0.3525  0.4688 -0.1411
  922YOPE   C4B13222  13.098   2.253   7.884  0.2031 -0.0795 -0.2903
  923YOPE   NH313223   0.253   4.773   5.288 -0.1887  0.0401 -0.1610
  923YOPE   PO413224  -0.242   4.983   5.287 -0.2861  0.0186  0.0248
  923YOPE   GL113225  -0.017   4.913   5.722 -0.1823 -0.0909 -0.1626
  923YOPE   GL213226   0.332   5.058   5.686 -0.0602 -0.0583 -0.1966
  923YOPE   C1A13227   0.044   4.908   6.223 -0.1694 -0.0527  0.0328
  923YOPE   D2A13228   0.197   4.844   6.508 -0.0898  0.2149 -0.1822
  923YOPE   C3A13229   0.103   4.872   6.959  0.2292  0.1970  0.0709
  923YOPE   C4A13230  -0.061   4.618   7.244  0.1647  0.0698 -0.0385
  923YOPE   C1B13231   0.541   5.069   6.006  0.4778  0.2679  0.1116
  923YOPE   C2B13232   0.630   5.046   6.504 -0.0994  0.1416  0.0723
  923YOPE   D3B13233   0.678   4.689   6.749 -0.0076  0.0828  0.0806
  923YOPE   C4B13234   0.966   4.306   6.836  0.1477 -0.3117  0.0888
  924YOPE   NH313235  18.173  12.875   4.931  0.3891  0.2721 -0.1836
  924YOPE   PO413236  18.458  12.680   4.605  0.1714 -0.1315 -0.2328
  924YOPE   GL113237  18.614  13.081   4.953 -0.3224  0.0380  0.0724
  924YOPE   GL213238  18.850  12.994   5.168 -0.2105  0.0699 -0.0624
  924YOPE   C1A13239  18.685  13.380   5.374  0.4337  0.1724 -0.0618
  924YOPE   D2A13240  18.725  13.439   5.897  0.1229  0.2310  0.0601
  924YOPE   C3A13241  18.762  13.266   6.252  0.2922  0.3790 -0.0864
  924YOPE   C4A13242  19.041  13.521   6.549  0.0076  0.1493  0.5720
  924YOPE   C1B13243  19.141  13.139   5.510  0.0144  0.0983  0.2939
  924YOPE   C2B13244  19.382  12.953   5.848  0.2791  0.1516 -0.0797
  924YOPE   D3B13245  19.187  12.998   6.247 -0.2960  0.1738  0.0341
  924YOPE   C4B13246  19.312  13.033   6.672  0.0158 -0.3756  0.0982
  925YOPE   NH313247   1.751  17.460   5.454 -0.1756 -0.1670  0.1222
  925YOPE   PO413248   1.393  17.310   5.201  0.2314 -0.2730  0.1766
  925YOPE   GL113249   1.335  17.405   5.705  0.0249  0.3212 -0.0165
  925YOPE   GL213250   1.017  17.470   5.802 -0.2724 -0.2052 -0.1390
  925YOPE   C1A13251   1.385  17.419   6.163 -0.1642 -0.1955 -0.0471
  925YOPE   D2A13252   1.419  17.444   6.527 -0.0680  0.0339 -0.0726
  925YOPE   C3A13253   1.057  17.311   6.918 -0.0357  0.1208 -0.1375
  925YOPE   C4A13254   0.917  17.514   7.203 -0.2953  0.0600 -0.2834
  925YOPE   C1B13255   1.037  17.810   6.154  0.2479  0.0662  0.1603
  925YOPE   C2B13256   1.015  17.842   6.571 -0.1331 -0.0307 -0.0071
  925YOPE   D3B13257   1.179  17.808   6.874  0.1156 -0.0085 -0.1225
  925YOPE   C4B13258   1.453  17.865   7.222 -0.1790 -0.4281  0.3913
  926YOPE   NH313259   9.746  16.743   5.805 -0.1209 -0.0047 -0.2151
  926YOPE   PO413260  10.123  16.857   6.043  0.2689 -0.1338  0.4572
  926YOPE   GL113261   9.987  16.802   6.433 -0.2451  0.2218 -0.3279
  926YOPE   GL213262   9.965  16.448   6.556  0.2328  0.2369 -0.0525
  926YOPE   C1A13263  10.040  16.861   6.812 -0.3245 -0.3716  0.3461
  926YOPE   D2A13264  10.342  16.876   7.109  0.1538 -0.3890  0.1854
  926YOPE   C3A13265  10.353  16.988   7.581 -0.1670 -0.0937 -0.1552
  926YOPE   C4A13266  10.011  17.153   7.825  0.1527  0.0336  0.1764
  926YOPE   C1B13267   9.910  16.391   7.022 -0.1764  0.0121 -0.1439
  926YOPE   C2B13268   9.947  16.065   7.433 -0.2579  0.0522  0.2920
  926YOPE   D3B13269   9.815  15.884   7.804 -0.4465  0.1774  0.1281
  926YOPE   C4B13270   9.919  15.478   8.039 -0.2808  0.2671 -0.0058
  927YOPE   NH313271  11.581  14.394   5.982 -0.3285  0.0582  0.1416
  927YOPE   PO413272  11.535  14.088   5.695  0.0255  0.0895 -0.3194
  927YOPE   GL113273  11.887  13.872   5.826  0.3095 -0.1749 -0.3832
  927YOPE   GL213274  11.582  13.656   6.054  0.0290 -0.1325 -0.1294
  927YOPE   C1A13275  12.074  13.525   6.112 -0.1524  0.1495 -0.0258
  927YOPE   D2A13276  12.213  13.247   6.351  0.2047 -0.1293  0.0871
  927YOPE   C3A13277  12.381  13.626   6.537  0.1308  0.1531 -0.0605
  927YOPE   C4A13278  12.135  13.726   6.861  0.3201  0.1455  0.7123
  927YOPE   C1B13279  11.836  13.850   6.365  0.1084 -0.1048  0.0671
  927YOPE   C2B13280  11.612  13.944   6.734 -0.0259  0.0113 -0.1244
  927YOPE   D3B13281  11.726  13.934   7.130 -0.1162  0.1575  0.4082
  927YOPE   C4B13282  11.579  13.802   7.475 -0.0148 -0.1077 -0.1471
  928YOPE   NH313283   7.400  15.290   5.727  0.0051 -0.1014 -0.1272
  928YOPE   PO413284   7.156  14.934   5.704  0.1102 -0.1850  0.0690
  928YOPE   GL113285   7.091  14.795   6.171  0.3002  0.1622  0.5634
  928YOPE   GL213286   6.856  14.996   6.293 -0.0377 -0.0584 -0.2999
  928YOPE   C1A13287   7.215  14.807   6.599 -0.0766 -0.2053 -0.1751
  928YOPE   D2A13288   7.587  14.909   6.776  0.1848  0.2617 -0.2338
  928YOPE   C3A13289   8.031  14.600   6.805  0.0268 -0.2551 -0.0255
  928YOPE   C4A13290   8.221  14.849   6.467  0.2005 -0.0031 -0.2453
  928YOPE   C1B13291   6.766  15.030   6.769 -0.2304 -0.1866 -0.1691
  928YOPE   C2B13292   7.187  15.151   7.072  0.0392  0.0192  0.2866
  928YOPE   D3B13293   7.567  15.242   7.322  0.2020  0.0989  0.0987
  928YOPE   C4B13294   7.648  15.683   7.537 -0.1345  0.0388  0.0666
  929YOPE   NH313295  12.434  10.815   5.462  0.1869  0.0808 -0.1201
  929YOPE   PO413296  12.561  10.337   5.447 -0.4109  0.1194  0.0004
  929YOPE   GL113297  12.388  10.444   5.870 -0.3119 -0.0869 -0.1353
  929YOPE   GL213298  12.250  10.730   6.078  0.0437 -0.0021  0.1008
  929YOPE   C1A13299  12.498  10.293   6.273 -0.0116 -0.0032 -0.1732
  929YOPE   D2A13300  12.533  10.434   6.648  0.0728 -0.3663 -0.1756
  929YOPE   C3A13301  12.447  10.278   7.057 -0.1868 -0.0067 -0.2167
  929YOPE   C4A13302  12.457  10.056   7.420 -0.3235  0.1515  0.0502
  929YOPE   C1B13303  12.158  10.704   6.536  0.0303  0.1444 -0.0623
  929YOPE   C2B13304  12.079  10.801   6.982 -0.0931  0.0370  0.0521
  929YOPE   D3B13305  12.432  10.739   7.276 -0.1492  0.0278  0.0676
  929YOPE   C4B13306  12.853  10.698   7.397  0.2542 -0.2426  0.1279
  930YOPE   NH313307  12.540  14.758   5.697  0.2077  0.3486  0.2050
  930YOPE   PO413308  12.316  14.985   5.982 -0.1711  0.3316  0.1624
  930YOPE   GL113309  12.131  15.042   6.476 -0.2892  0.4720  0.2303
  930YOPE   GL213310  12.136  14.664   6.598  0.0456 -0.1936  0.2360
  930YOPE   C1A13311  11.980  15.150   6.832 -0.0444 -0.1680 -0.2175
  930YOPE   D2A13312  12.204  15.232   7.138 -0.0359  0.4362 -0.1594
  930YOPE   C3A13313  12.322  15.583   7.438 -0.5767 -0.1506  0.0440
  930YOPE   C4A13314  12.352  15.957   7.654 -0.0229  0.1576  0.3418
  930YOPE   C1B13315  12.292  14.743   7.061 -0.1473  0.1002 -0.1741
  930YOPE   C2B13316  12.347  14.697   7.447  0.0582 -0.1448  0.2176
  930YOPE   D3B13317  12.396  14.675   7.864  0.3744 -0.1062 -0.3327
  930YOPE   C4B13318  12.495  14.453   8.164  0.2587 -0.0927  0.1626
  931YOPE   NH313319  10.383  18.352   5.768 -0.2839  0.0651 -0.0960
  931YOPE   PO413320  10.907  18.624   5.825  0.2579  0.1732 -0.4037
  931YOPE   GL113321  10.999  18.851   6.206  0.2435 -0.2810  0.1330
  931YOPE   GL213322  11.354  18.727   6.365 -0.0943  0.3563 -0.0516
  931YOPE   C1A13323  11.211  19.240   6.389  0.0452  0.2283  0.1501
  931YOPE   D2A13324  11.419  19.431   6.681 -0.0543 -0.2855 -0.0744
  931YOPE   C3A13325  11.224  19.389   7.095  0.1242 -0.2087 -0.1536
  931YOPE   C4A13326  10.893  19.454   7.384 -0.1587 -0.2004  0.0870
  931YOPE   C1B13327  11.511  18.402   6.673 -0.0553 -0.0162  0.0587
  931YOPE   C2B13328  11.695  18.137   6.999 -0.1367 -0.2811 -0.2816
  931YOPE   D3B13329  11.894  18.129   7.380 -0.0879 -0.1482 -0.1484
  931YOPE   C4B13330  11.923  18.204   7.862 -0.0202  0.3124 -0.1464
  932YOPE   NH313331  11.523   1.171   5.662  0.0893  0.0310  0.0648
  932YOPE   PO413332  11.267   1.466   5.670 -0.0144 -0.1907 -0.1354
  932YOPE   GL113333  10.818   1.683   5.766 -0.0850 -0.0407 -0.4299
  932YOPE   GL213334  10.667   1.579   6.124  0.0399 -0.1899  0.4081
  932YOPE   C1A13335  10.558   2.040   5.749 -0.2896  0.0423 -0.2161
  932YOPE   D2A13336  10.277   2.281   5.776 -0.0136  0.1085 -0.2078
  932YOPE   C3A13337  10.427   2.438   6.238 -0.0830 -0.3135  0.4285
  932YOPE   C4A13338  10.520   2.549   6.624  0.3174 -0.0935 -0.1897
  932YOPE   C1B13339  10.847   1.526   6.563  0.1986  0.1639  0.1698
  932YOPE   C2B13340  11.232   1.802   6.739 -0.0258 -0.0425  0.0161
  932YOPE   D3B13341  11.613   1.938   6.922  0.1291 -0.1648  0.0792
  932YOPE   C4B13342  11.799   1.852   7.378  0.1738 -0.1577 -0.2044
  933YOPE   NH313343  12.528   6.022   5.473  0.0689 -0.1478 -0.4628
  933YOPE   PO413344  12.480   5.597   5.506  0.1156  0.2502 -0.1049
  933YOPE   GL113345  12.554   5.794   5.905  0.1314 -0.2621  0.1509
  933YOPE   GL213346  12.379   5.958   5.991 -0.1700  0.0580  0.1731
  933YOPE   C1A13347  12.730   5.831   6.258 -0.1067  0.2572 -0.2073
  933YOPE   D2A13348  12.910   5.829   6.707  0.1334  0.3313  0.2315
  933YOPE   C3A13349  12.890   6.170   6.806 -0.0888 -0.2881  0.0370
  933YOPE   C4A13350  12.868   6.513   7.125  0.1593  0.1878  0.0017
  933YOPE   C1B13351  12.254   5.967   6.370 -0.0816  0.2044  0.2454
  933YOPE   C2B13352  12.373   5.875   6.645 -0.0264 -0.4224  0.0957
  933YOPE   D3B13353  12.488   5.753   7.002  0.0791  0.0366 -0.0153
  933YOPE   C4B13354  12.371   5.584   7.325  0.0027 -0.2422 -0.0887
  934YOPE   NH313355  13.119   0.421   5.991 -0.0696 -0.0420 -0.2707
  934YOPE   PO413356  12.779   0.718   6.135  0.0888  0.0631  0.3805
  934YOPE   GL113357  12.653   0.740   6.461 -0.0134  0.2052  0.1302
  934YOPE   GL213358  12.816   0.412   6.535 -0.0999  0.0173 -0.0246
  934YOPE   C1A13359  12.626   0.928   6.837 -0.0288  0.1756  0.0649
  934YOPE   D2A13360  12.557   0.975   7.290 -0.1118  0.1944 -0.1555
  934YOPE   C3A13361  12.747   1.422   7.347 -0.1194  0.1956  0.2100
  934YOPE   C4A13362  13.065   1.459   7.624 -0.0520 -0.0811  0.0259
  934YOPE   C1B13363  12.538   0.437   6.881 -0.1815  0.1991 -0.5085
  934YOPE   C2B13364  12.506   0.486   7.380  0.2628 -0.4491  0.2446
  934YOPE   D3B13365  12.410   0.678   7.677 -0.0032 -0.1564  0.1250
  934YOPE   C4B13366  12.620   0.689   8.031 -0.1174 -0.1103  0.1861
  935YOPE   NH313367   6.341   9.827   5.121  0.0512  0.0222  0.0431
  935YOPE   PO413368   6.623   9.540   5.174 -0.0391 -0.1936  0.0947
  935YOPE   GL113369   6.897   9.358   5.405  0.0306  0.1616 -0.4367
  935YOPE   GL213370   7.294   9.254   5.348 -0.0365  0.0511  0.1281
  935YOPE   C1A13371   7.084   9.520   5.761 -0.0577  0.0667  0.3283
  935YOPE   D2A13372   7.061   9.579   6.217 -0.2512  0.0269  0.0434
  935YOPE   C3A13373   6.893   9.932   6.365  0.1436 -0.0041 -0.2196
  935YOPE   C4A13374   6.786  10.303   6.540  0.1130  0.1485 -0.3530
  935YOPE   C1B13375   7.251   9.045   5.802 -0.3750  0.1431  0.1304
  935YOPE   C2B13376   7.078   9.003   6.129  0.0374  0.2863 -0.2251
  935YOPE   D3B13377   6.891   8.962   6.511 -0.2110  0.1286 -0.0954
  935YOPE   C4B13378   6.927   9.027   6.997 -0.0089  0.0790 -0.1463
  936YOPE   NH313379  12.231   4.746   5.089  0.1911 -0.0167  0.0338
  936YOPE   PO413380  12.423   4.385   5.318  0.0340 -0.3464  0.0351
  936YOPE   GL113381  12.291   4.376   5.776  0.2712  0.1235 -0.3108
  936YOPE   GL213382  12.158   4.088   5.901 -0.0964 -0.0759 -0.1406
  936YOPE   C1A13383  11.948   4.517   5.979 -0.0255 -0.1700  0.0892
  936YOPE   D2A13384  11.598   4.278   6.011  0.3613 -0.1049  0.0687
  936YOPE   C3A13385  11.330   3.923   6.064 -0.2265 -0.1341  0.2888
  936YOPE   C4A13386  11.184   3.509   5.909 -0.0675 -0.1260  0.3123
  936YOPE   C1B13387  11.993   4.121   6.298  0.0811 -0.1444 -0.1108
  936YOPE   C2B13388  12.060   3.954   6.675  0.1401  0.0935 -0.3461
  936YOPE   D3B13389  12.058   4.052   7.098  0.1574 -0.5224  0.0179
  936YOPE   C4B13390  11.799   4.294   7.420 -0.3318  0.1110  0.0285
  937YOPE   NH313391  11.583  11.393   5.309 -0.1985 -0.1150 -0.0040
  937YOPE   PO413392  12.100  11.308   5.411  0.1016  0.2350 -0.1576
  937YOPE   GL113393  11.819  11.318   5.760 -0.0585 -0.4452 -0.0123
  937YOPE   GL213394  11.798  11.666   5.796  0.1287  0.1344  0.1167
  937YOPE   C1A13395  11.383  11.286   5.985 -0.0179  0.0097  0.0896
  937YOPE   D2A13396  11.371  11.171   6.392  0.0699  0.0946  0.0138
  937YOPE   C3A13397  11.329  10.661   6.664  0.3838 -0.2378 -0.4067
  937YOPE   C4A13398  11.255  10.463   7.139 -0.1541  0.2900 -0.1291
  937YOPE   C1B13399  11.919  11.517   6.278 -0.1885  0.0249  0.0188
  937YOPE   C2B13400  11.815  11.577   6.742 -0.0072 -0.1119 -0.1984
  937YOPE   D3B13401  11.898  11.331   7.110  0.3331  0.3041  0.2670
  937YOPE   C4B13402  11.930  11.064   7.528 -0.2121  0.0093  0.1266
  938YOPE   NH313403  17.029  10.944   4.970 -0.1863  0.0289 -0.0514
  938YOPE   PO413404  16.904  10.690   5.143 -0.2440 -0.2306  0.2381
  938YOPE   GL113405  16.914  10.829   5.592  0.1119 -0.0916  0.1574
  938YOPE   GL213406  17.070  10.998   5.747  0.1928 -0.0846 -0.2405
  938YOPE   C1A13407  16.605  10.874   5.948 -0.0724  0.1698 -0.1295
  938YOPE   D2A13408  16.414  11.155   6.203  0.1817  0.3648 -0.0700
  938YOPE   C3A13409  16.469  11.092   6.645  0.2240  0.3177  0.0651
  938YOPE   C4A13410  16.783  10.998   6.870  0.2708  0.1870  0.2770
  938YOPE   C1B13411  17.015  10.578   5.960 -0.0663  0.1133  0.0427
  938YOPE   C2B13412  16.783  10.708   6.421  0.0728  0.1284 -0.3562
  938YOPE   D3B13413  16.626  10.375   6.746 -0.3377 -0.1167  0.1782
  938YOPE   C4B13414  16.254  10.244   7.017  0.4300  0.2588  0.0054
  939YOPE   NH313415  11.214   0.494   5.429 -0.1431  0.1610  0.1614
  939YOPE   PO413416  11.126   0.849   5.772  0.0548 -0.0476  0.1178
  939YOPE   GL113417  11.217   1.133   6.029 -0.2263 -0.2522 -0.0325
  939YOPE   GL213418  11.020   1.164   6.273 -0.1679  0.0753  0.2037
  939YOPE   C1A13419  11.421   1.293   6.483 -0.1150  0.1616  0.2146
  939YOPE   D2A13420  11.144   1.297   6.892  0.0596  0.0480 -0.1262
  939YOPE   C3A13421  11.269   1.594   7.253 -0.0605  0.1520  0.3118
  939YOPE   C4A13422  11.303   1.698   7.754 -0.0875  0.2719  0.3736
  939YOPE   C1B13423  11.306   0.849   6.508 -0.2613 -0.0105 -0.0372
  939YOPE   C2B13424  11.660   0.929   6.742  0.2030  0.2663  0.1368
  939YOPE   D3B13425  11.605   1.168   7.098  0.0559  0.1669 -0.3499
  939YOPE   C4B13426  11.689   1.346   7.472  0.1218  0.3552 -0.0507
  940YOPE   NH313427   8.444   8.629   5.199  0.0778  0.0362  0.4484
  940YOPE   PO413428   8.679   8.314   5.121 -0.0682  0.2145 -0.2184
  940YOPE   GL113429   8.236   8.210   5.370 -0.1860  0.2492  0.0723
  940YOPE   GL213430   8.175   8.464   5.594  0.1861 -0.2146 -0.1228
  940YOPE   C1A13431   7.982   8.033   5.776 -0.2660  0.3728  0.4615
  940YOPE   D2A13432   7.644   7.761   5.935 -0.1755 -0.0490  0.1147
  940YOPE   C3A13433   7.176   7.835   5.765  0.0622 -0.3697 -0.0952
  940YOPE   C4A13434   6.752   8.177   5.743 -0.0549  0.3070  0.1160
  940YOPE   C1B13435   8.219   8.771   5.957 -0.0900 -0.0342 -0.0336
  940YOPE   C2B13436   8.084   9.011   6.324  0.1139 -0.1388  0.0035
  940YOPE   D3B13437   7.918   9.027   6.734  0.0116  0.0398 -0.1114
  940YOPE   C4B13438   7.539   9.079   6.942 -0.1451  0.2163 -0.0009
  941POPC   NC313439   5.813   0.241   5.416  0.1929 -0.0556 -0.0395
  941POPC   PO413440   5.485   0.527   5.340  0.2325 -0.1497  0.1438
  941POPC   GL113441   5.170   0.748   5.609  0.2032 -0.1495 -0.1880
  941POPC   GL213442   5.274   0.995   5.574 -0.1523  0.2897  0.0487
  941POPC   C1A13443   5.227   0.753   6.073  0.2655  0.0564  0.3425
  941POPC   D2A13444   5.401   0.602   6.430 -0.2177  0.2582  0.1285
  941POPC   C3A13445   5.215   0.515   6.875  0.0764 -0.4185 -0.0599
  941POPC   C4A13446   5.173   0.458   7.256 -0.1071 -0.1320 -0.2267
  941POPC   C1B13447   5.434   1.184   6.044  0.3981 -0.0080  0.5584
  941POPC   C2B13448   5.654   1.558   6.288  0.0712  0.1783  0.0906
  941POPC   C3B13449   5.619   1.895   6.494  0.2631 -0.1521 -0.0584
  941POPC   C4B13450   5.603   2.198   6.766  0.0337 -0.0377 -0.0556
  942POPC   NC313451  11.233   1.929   5.500 -0.2747 -0.2648  0.0867
  942POPC   PO413452  11.615   2.218   5.504 -0.3110 -0.0150 -0.1347
  942POPC   GL113453  11.217   2.469   5.518 -0.0784  0.1053 -0.1698
  942POPC   GL213454  11.165   2.557   5.788 -0.0925  0.1420 -0.0551
  942POPC   C1A13455  10.730   2.455   5.556 -0.1345 -0.0145  0.2064
  942POPC   D2A13456  10.527   2.840   5.831  0.0565  0.1195  0.1402
  942POPC   C3A13457  10.561   2.978   6.331 -0.0584  0.1367 -0.0235
  942POPC   C4A13458  10.449   3.416   6.306  0.2343 -0.4121 -0.5696
  942POPC   C1B13459  10.889   2.588   6.142  0.0069 -0.0961 -0.0753
  942POPC   C2B13460  10.961   2.659   6.589 -0.0108 -0.3251  0.0173
  942POPC   C3B13461  10.854   2.692   7.026 -0.3285 -0.1103  0.2246
  942POPC   C4B13462  10.901   2.758   7.495  0.1593 -0.1661  0.0580
  943POPC   NC313463  19.118  14.246   5.147  0.4241 -0.1884  0.0603
  943POPC   PO413464  18.897  13.985   5.012  0.1894 -0.0240 -0.0378
  943POPC   GL113465  18.928  13.886   5.381  0.1328 -0.1242 -0.3427
  943POPC   GL213466  19.234  13.778   5.389  0.0926 -0.1024 -0.3518
  943POPC   C1A13467  18.780  13.977   5.794 -0.3657  0.1205 -0.1291
  943POPC   D2A13468  18.730  13.879   6.208 -0.1524  0.1628  0.0709
  943POPC   C3A13469  18.463  13.946   6.561 -0.1527 -0.1505  0.0175
  943POPC   C4A13470  18.290  13.982   6.910 -0.1903 -0.3401 -0.1396
  943POPC   C1B13471  19.180  13.653   5.825 -0.0111 -0.3591  0.2016
  943POPC   C2B13472  19.364  13.400   6.064  0.1823  0.1346  0.0387
  943POPC   C3B13473  19.774  13.115   6.228  0.2962 -0.4383 -0.2864
  943POPC   C4B13474  19.794  12.969   6.576  0.0499  0.0827  0.1142
  944POPC   NC313475  15.801   8.432   5.538  0.0958 -0.0606  0.1590
  944POPC   PO413476  15.910   7.959   5.273 -0.3493 -0.0906 -0.0301
  944POPC   GL113477  16.389   8.140   5.300 -0.2174  0.0895  0.0093
  944POPC   GL213478  16.436   8.443   5.339 -0.2091 -0.0597  0.4673
  944POPC   C1A13479  16.803   8.057   5.377 -0.0319  0.1145  0.1026
  944POPC   D2A13480  17.093   7.774   5.547 -0.0908 -0.0847 -0.2086
  944POPC   C3A13481  16.957   7.558   5.935 -0.4449 -0.3247 -0.0038
  944POPC   C4A13482  16.616   7.374   6.081 -0.4231 -0.1980  0.0828
  944POPC   C1B13483  16.335   8.210   5.776 -0.2038 -0.0171 -0.3342
  944POPC   C2B13484  16.043   8.011   5.970  0.2421  0.0956  0.0040
  944POPC   C3B13485  15.671   7.784   6.007 -0.1954  0.0115  0.1547
  944POPC   C4B13486  15.500   7.458   6.185  0.2290  0.0874  0.2166
  945POPC   NC313487  16.187   9.778   5.421  0.1377  0.0627 -0.0467
  945POPC   PO413488  16.573   9.703   5.291  0.0559  0.1541  0.0488
  945POPC   GL113489  16.492   9.523   5.714  0.0062 -0.0077 -0.3450
  945POPC   GL213490  16.415   9.113   5.701  0.0178  0.2774 -0.3223
  945POPC   C1A13491  16.515   9.445   6.158  0.3436 -0.2603  0.1589
  945POPC   D2A13492  16.457   9.458   6.595 -0.1495  0.1945 -0.3845
  945POPC   C3A13493  16.657   9.486   6.977  0.1109  0.2463 -0.2018
  945POPC   C4A13494  16.737   9.895   7.048 -0.0219  0.0942  0.2403
  945POPC   C1B13495  16.434   8.620   6.019 -0.1199 -0.2333 -0.2130
  945POPC   C2B13496  16.519   8.447   6.413  0.0404  0.1793 -0.2056
  945POPC   C3B13497  16.577   8.107   6.652 -0.1617  0.2346  0.1483
  945POPC   C4B13498  16.762   7.765   6.909  0.0984  0.1035  0.1461
  946POPC   NC313499  15.767   6.489   5.121 -0.1541 -0.1962  0.2203
  946POPC   PO413500  15.445   6.752   5.135  0.1574 -0.1844 -0.0553
  946POPC   GL113501  15.520   6.657   5.587 -0.0036  0.0287  0.4247
  946POPC   GL213502  15.311   6.720   5.745  0.1238  0.1722  0.1152
  946POPC   C1A13503  15.838   6.675   5.902  0.1220  0.1390 -0.2798
  946POPC   D2A13504  16.133   6.489   6.130  0.2473  0.2899  0.0481
  946POPC   C3A13505  16.232   6.160   6.463 -0.2747 -0.1309  0.1851
  946POPC   C4A13506  16.519   5.847   6.718 -0.0122 -0.0257 -0.2325
  946POPC   C1B13507  15.399   6.471   6.053 -0.1171  0.1482 -0.2182
  946POPC   C2B13508  15.728   6.510   6.442  0.0357  0.1444  0.1045
  946POPC   C3B13509  15.949   6.827   6.434 -0.0844 -0.1281 -0.0552
  946POPC   C4B13510  16.216   7.087   6.740  0.0518 -0.1659  0.0394
  947POPC   NC313511   6.015   7.987   4.750  0.0553  0.2601  0.0513
  947POPC   PO413512   5.629   8.007   4.997 -0.1150 -0.0928 -0.1344
  947POPC   GL113513   5.676   7.945   5.378  0.0126 -0.1773  0.1483
  947POPC   GL213514   5.787   8.187   5.620  0.0428  0.0700  0.0124
  947POPC   C1A13515   5.305   8.147   5.735 -0.0261 -0.2698 -0.2336
  947POPC   D2A13516   4.984   8.058   6.081  0.1253 -0.3065  0.0340
  947POPC   C3A13517   4.633   8.471   6.036  0.0967 -0.1332 -0.2397
  947POPC   C4A13518   4.262   8.665   5.996  0.0785  0.1715 -0.0789
  947POPC   C1B13519   5.895   8.153   6.001  0.1754  0.2666 -0.1769
  947POPC   C2B13520   5.857   8.111   6.368 -0.2308 -0.0783  0.1459
  947POPC   C3B13521   5.948   8.078   6.922 -0.2406 -0.2693  0.3691
  947POPC   C4B13522   6.035   8.320   7.202 -0.1576  0.2409  0.1274
  948POPC   NC313523   3.553  17.807   5.136  0.0407  0.0568 -0.0343
  948POPC   PO413524   3.721  17.938   5.370 -0.0600 -0.0389  0.0988
  948POPC   GL113525   3.773  18.190   5.718 -0.2422  0.1294  0.0622
  948POPC   GL213526   3.520  18.215   5.910  0.2813  0.1590 -0.2222
  948POPC   C1A13527   3.958  18.049   6.110 -0.0347 -0.1770 -0.0537
  948POPC   D2A13528   3.770  18.078   6.577  0.0945  0.1825 -0.2153
  948POPC   C3A13529   3.589  18.445   6.753 -0.2202 -0.1615  0.1434
  948POPC   C4A13530   3.176  18.421   6.898  0.1334  0.1777  0.0104
  948POPC   C1B13531   3.379  18.732   6.001 -0.0105  0.0791  0.3019
  948POPC   C2B13532   3.247  19.129   5.828 -0.0975  0.0237 -0.1953
  948POPC   C3B13533   2.912  19.447   5.939  0.3856  0.1376  0.1966
  948POPC   C4B13534   2.628  19.690   5.815 -0.1929  0.0068  0.1531
  949POPC   NC313535   7.825  13.589   5.579  0.0580 -0.2004  0.1154
  949POPC   PO413536   7.517  14.014   5.658  0.1946 -0.2504  0.1167
  949POPC   GL113537   7.724  13.876   6.015  0.1701 -0.4533  0.0669
  949POPC   GL213538   7.886  14.145   6.051  0.1471 -0.2497  0.1698
  949POPC   C1A13539   7.628  13.923   6.437 -0.3193 -0.2416 -0.0682
  949POPC   D2A13540   7.432  13.916   6.687  0.3309 -0.1743 -0.1611
  949POPC   C3A13541   7.525  13.888   7.038 -0.1682 -0.0306  0.3140
  949POPC   C4A13542   7.345  13.592   7.271  0.0616 -0.2047  0.1252
  949POPC   C1B13543   8.252  13.989   6.134  0.0863 -0.1315 -0.0236
  949POPC   C2B13544   8.539  14.057   6.547  0.1031  0.3669  0.1051
  949POPC   C3B13545   8.468  14.409   6.843 -0.0725  0.1454  0.0887
  949POPC   C4B13546   8.511  14.866   6.975  0.0064  0.1227  0.3258
  950POPC   NC313547  15.926  17.814   5.620  0.1386  0.0999 -0.2001
  950POPC   PO413548  15.494  17.695   5.706 -0.0958  0.3498 -0.1637
  950POPC   GL113549  15.895  17.689   6.055  0.0566 -0.1175 -0.0320
  950POPC   GL213550  15.760  17.461   6.147  0.1965  0.3373  0.1157
  950POPC   C1A13551  16.206  17.723   6.378  0.1310 -0.2679 -0.1919
  950POPC   D2A13552  16.178  17.608   6.782 -0.1981  0.2005  0.0147
  950POPC   C3A13553  16.473  17.596   7.189 -0.0355  0.0227  0.1598
  950POPC   C4A13554  16.438  17.810   7.542 -0.2852  0.1866  0.0236
  950POPC   C1B13555  15.687  17.643   6.588  0.0711  0.4343 -0.0980
  950POPC   C2B13556  15.811  17.473   7.069  0.2129 -0.3683  0.2155
  950POPC   C3B13557  16.002  17.616   7.451  0.2781  0.3349 -0.1751
  950POPC   C4B13558  16.043  17.795   7.857 -0.0384 -0.0150  0.0697
  951POPC   NC313559   4.556  17.520   5.610 -0.2433  0.1776  0.0112
  951POPC   PO413560   4.722  17.762   5.801  0.0222  0.0471  0.2187
  951POPC   GL113561   4.517  17.855   6.179 -0.2139 -0.1619  0.1478
  951POPC   GL213562   4.220  17.589   6.104  0.1387 -0.0907 -0.0174
  951POPC   C1A13563   4.212  17.840   6.518  0.1846 -0.0630 -0.0132
  951POPC   D2A13564   4.141  17.797   6.852 -0.1565  0.4122 -0.4857
  951POPC   C3A13565   4.230  17.539   7.131 -0.1021 -0.0710 -0.2363
  951POPC   C4A13566   4.331  17.308   7.541  0.0747 -0.2695 -0.0608
  951POPC   C1B13567   4.141  17.205   6.239 -0.1386 -0.0768  0.3216
  951POPC   C2B13568   3.743  16.910   6.232 -0.1421  0.0589 -0.1051
  951POPC   C3B13569   3.737  16.559   6.420  0.1270 -0.1104  0.1597
  951POPC   C4B13570   3.858  16.246   6.210 -0.1346  0.1189 -0.0831
  952POPC   NC313571   6.540   4.530   4.794  0.2247  0.1368  0.1575
  952POPC   PO413572   6.111   4.536   4.845 -0.0522 -0.2237 -0.2150
  952POPC   GL113573   6.061   4.427   5.245 -0.1049 -0.3447  0.0974
  952POPC   GL213574   6.108   4.618   5.577  0.1208  0.1222  0.0957
  952POPC   C1A13575   6.028   3.972   5.484 -0.3058 -0.0492 -0.0598
  952POPC   D2A13576   5.910   3.719   5.795 -0.0320 -0.2724  0.3394
  952POPC   C3A13577   5.635   3.385   5.795 -0.0589  0.1995  0.0697
  952POPC   C4A13578   5.222   3.520   5.886  0.0550 -0.0284  0.2506
  952POPC   C1B13579   5.864   4.269   5.857  0.1591 -0.3190 -0.0137
  952POPC   C2B13580   5.760   4.390   6.277 -0.0156 -0.1085 -0.2327
  952POPC   C3B13581   5.519   4.179   6.599  0.0720 -0.0346 -0.0808
  952POPC   C4B13582   5.187   3.871   6.750  0.1127  0.3079  0.5921
  953POPC   NC313583   2.828  11.410   5.215  0.0642 -0.1013 -0.3949
  953POPC   PO413584   3.025  11.744   4.875 -0.1160  0.1008  0.1967
  953POPC   GL113585   3.171  11.793   5.227  0.0722 -0.0660 -0.0996
  953POPC   GL213586   2.897  11.934   5.359 -0.1132  0.3753  0.4321
  953POPC   C1A13587   3.256  11.819   5.689  0.0385  0.2599  0.2393
  953POPC   D2A13588   3.123  12.074   5.996  0.3960 -0.3102 -0.1192
  953POPC   C3A13589   2.934  12.052   6.385 -0.2420 -0.2023 -0.1867
  953POPC   C4A13590   3.100  11.967   6.767  0.2441 -0.0474  0.1382
  953POPC   C1B13591   2.722  11.751   5.829  0.0251  0.1063  0.0298
  953POPC   C2B13592   2.488  11.906   6.166 -0.0126 -0.0481  0.0269
  953POPC   C3B13593   2.445  11.803   6.537  0.6001 -0.1421  0.0314
  953POPC   C4B13594   2.619  11.886   6.825  0.0777  0.1675  0.0227
  954POPC   NC313595   2.086   5.732   4.881  0.3139 -0.4978  0.0910
  954POPC   PO413596   2.351   5.437   5.105 -0.0622  0.3768  0.0413
  954POPC   GL113597   2.619   5.181   5.413  0.0935  0.3037  0.1688
  954POPC   GL213598   2.911   5.136   5.469  0.1750 -0.2488  0.3353
  954POPC   C1A13599   2.321   4.943   5.653  0.4096 -0.0613 -0.0062
  954POPC   D2A13600   2.091   4.818   5.892  0.1663 -0.2931  0.0433
  954POPC   C3A13601   1.901   5.122   6.239 -0.1111  0.1884  0.1537
  954POPC   C4A13602   1.839   5.407   6.480  0.1185 -0.2762 -0.0836
  954POPC   C1B13603   2.703   5.227   5.874 -0.0370  0.0344 -0.2339
  954POPC   C2B13604   2.427   4.962   6.206  0.0441  0.2352  0.0338
  954POPC   C3B13605   2.364   5.070   6.643  0.0987 -0.0012 -0.3974
  954POPC   C4B13606   2.022   5.039   6.766  0.0248  0.1131  0.1760
  955POPC   NC313607   4.001  10.380   5.020  0.1458 -0.1063  0.2952
  955POPC   PO413608   4.041  10.777   5.069  0.1247  0.1976 -0.2493
  955POPC   GL113609   3.731  11.141   5.350 -0.1449 -0.0087  0.2266
  955POPC   GL213610   3.500  11.461   5.468  0.0207  0.1678  0.0812
  955POPC   C1A13611   3.941  11.194   5.773  0.0715 -0.4157 -0.0420
  955POPC   D2A13612   4.006  11.073   6.129  0.0202 -0.1031 -0.4561
  955POPC   C3A13613   3.876  11.359   6.532 -0.2816  0.0927 -0.1315
  955POPC   C4A13614   3.768  11.364   6.996  0.3360  0.0216 -0.0263
  955POPC   C1B13615   3.522  11.428   5.909  0.0888 -0.0620  0.2622
  955POPC   C2B13616   3.441  11.200   6.288 -0.3795  0.0328 -0.0096
  955POPC   C3B13617   3.283  10.981   6.673 -0.1785 -0.1880  0.0521
  955POPC   C4B13618   3.381  10.907   7.048  0.2321  0.1963 -0.3277
  956POPC   NC313619   2.544  16.393   5.616 -0.2730  0.0514 -0.0753
  956POPC   PO413620   2.657  16.113   5.447  0.4044 -0.0933 -0.5047
  956POPC   GL113621   2.658  15.633   5.718 -0.2642 -0.0730 -0.0526
  956POPC   GL213622   2.512  15.442   5.494 -0.1558 -0.0932 -0.3080
  956POPC   C1A13623   2.917  15.385   6.057  0.0899 -0.1621  0.1000
  956POPC   D2A13624   3.161  15.362   6.389 -0.0154 -0.2714  0.0444
  956POPC   C3A13625   3.134  15.671   6.809  0.0426  0.2974 -0.0459
  956POPC   C4A13626   2.892  15.867   7.052  0.0119  0.2429  0.0747
  956POPC   C1B13627   2.075  15.405   5.833  0.2114  0.2236  0.2199
  956POPC   C2B13628   1.594  15.367   5.930 -0.2579 -0.2332  0.3163
  956POPC   C3B13629   1.260  15.340   6.156 -0.0431  0.0568 -0.1078
  956POPC   C4B13630   0.954  15.631   6.224  0.1136 -0.0675  0.1385
  957POPC   NC313631  14.426  13.780   5.308 -0.0632 -0.1179 -0.2222
  957POPC   PO413632  14.336  13.415   5.409 -0.0263  0.2022 -0.1148
  957POPC   GL113633  14.308  13.256   5.831 -0.0934  0.0996  0.1713
  957POPC   GL213634  14.480  13.009   5.912 -0.1303  0.0467 -0.0114
  957POPC   C1A13635  14.232  13.327   6.240 -0.5180  0.0901  0.0961
  957POPC   D2A13636  14.349  13.216   6.681  0.1123  0.0192  0.0096
  957POPC   C3A13637  14.525  13.549   6.856 -0.2087  0.0903 -0.0842
  957POPC   C4A13638  14.439  13.952   6.886 -0.3826  0.1519  0.1538
  957POPC   C1B13639  14.643  12.814   6.349  0.2489 -0.1496 -0.0801
  957POPC   C2B13640  14.526  12.613   6.713  0.0597 -0.2907 -0.2486
  957POPC   C3B13641  14.677  12.202   6.747 -0.1437  0.1348  0.1179
  957POPC   C4B13642  14.464  11.890   6.525  0.2717  0.1354  0.2692
  958POPC   NC313643   1.046   9.786   4.980  0.0289  0.3366  0.1597
  958POPC   PO413644   0.646   9.608   5.129 -0.0721 -0.1386 -0.1999
  958POPC   GL113645   0.641   9.808   5.577 -0.1223 -0.0174 -0.0464
  958POPC   GL213646   0.866   9.606   5.596 -0.2689 -0.2197  0.0956
  958POPC   C1A13647   0.453   9.626   5.908  0.1877 -0.3089 -0.1244
  958POPC   D2A13648   0.348   9.592   6.321 -0.0438  0.0346 -0.1057
  958POPC   C3A13649   0.643   9.474   6.594 -0.1137  0.0130  0.1963
  958POPC   C4A13650   0.662   9.271   6.996 -0.0325 -0.2093 -0.1536
  958POPC   C1B13651   0.936  10.080   5.846  0.0844 -0.4764  0.0286
  958POPC   C2B13652   0.737  10.343   6.179  0.0121  0.3319  0.3914
  958POPC   C3B13653   0.544  10.613   6.510  0.1920 -0.0573 -0.3552
  958POPC   C4B13654   0.250  10.925   6.652  0.3834  0.0032 -0.0507
  959POPC   NC313655  16.246   0.389   5.777  0.2311 -0.0331  0.0741
  959POPC   PO413656  16.581   0.119   5.958  0.3223  0.0620 -0.2574
  959POPC   GL113657  16.368   0.318   6.387  0.3138 -0.0733 -0.4669
  959POPC   GL213658  16.121   0.532   6.624 -0.1128  0.0134  0.3069
  959POPC   C1A13659  16.502   0.107   6.719  0.0044 -0.1966 -0.3820
  959POPC   D2A13660  16.536   0.226   7.076 -0.1270  0.1570 -0.0307
  959POPC   C3A13661  16.859  -0.062   7.273  0.4822 -0.1548 -0.0456
  959POPC   C4A13662  16.818  -0.465   7.614 -0.0395  0.1674  0.2390
  959POPC   C1B13663  16.120   0.544   7.097 -0.0127  0.0228 -0.2483
  959POPC   C2B13664  15.886   0.806   7.458 -0.1354 -0.1234 -0.0152
  959POPC   C3B13665  15.440   0.878   7.714 -0.0158 -0.0730 -0.0250
  959POPC   C4B13666  15.457   0.757   8.196 -0.2580  0.2043 -0.0704
  960POPC   NC313667  13.958   0.501   5.747 -0.3172  0.2183  0.1317
  960POPC   PO413668  13.793   0.300   6.020  0.0137 -0.0080  0.0264
  960POPC   GL113669  13.757   0.507   6.507 -0.2141  0.0992  0.1323
  960POPC   GL213670  13.976   0.397   6.757 -0.2720  0.3330 -0.0381
  960POPC   C1A13671  13.439   0.355   6.874 -0.1606 -0.0477  0.4825
  960POPC   D2A13672  13.012   0.172   6.967 -0.3014  0.1946 -0.1614
  960POPC   C3A13673  12.889   0.201   7.332 -0.0282 -0.0395 -0.0891
  960POPC   C4A13674  12.885   0.352   7.753  0.3160  0.0823  0.0715
  960POPC   C1B13675  13.871   0.281   7.181 -0.1011 -0.0212  0.2559
  960POPC   C2B13676  13.865   0.447   7.508  0.1832 -0.0831  0.2214
  960POPC   C3B13677  13.775   0.684   7.878 -0.2349  0.0675 -0.1485
  960POPC   C4B13678  13.607   0.586   8.251  0.1279 -0.0099  0.0313
  961POPC   NC313679  12.582  16.985   5.642  0.1101  0.0957  0.1797
  961POPC   PO413680  12.778  16.575   5.723 -0.2934 -0.1234  0.6113
  961POPC   GL113681  12.929  16.462   6.216 -0.2451 -0.1668  0.0515
  961POPC   GL213682  12.905  16.093   6.380  0.0196  0.2203  0.1188
  961POPC   C1A13683  13.223  16.627   6.584 -0.2500 -0.1753  0.0275
  961POPC   D2A13684  13.708  16.609   6.672 -0.0471  0.1764 -0.0319
  961POPC   C3A13685  13.931  16.681   7.028 -0.0736  0.1828  0.1012
  961POPC   C4A13686  14.031  16.829   7.399  0.2991  0.2392  0.2013
  961POPC   C1B13687  12.926  16.308   6.788 -0.1334 -0.0404 -0.1042
  961POPC   C2B13688  13.189  16.513   7.106 -0.1896 -0.2664 -0.0285
  961POPC   C3B13689  13.177  16.572   7.588 -0.2424  0.1127 -0.0346
  961POPC   C4B13690  13.425  16.543   7.917  0.1086 -0.0789 -0.2895
  962POPC   NC313691  16.639   8.848   5.070  0.1172 -0.0824 -0.1003
  962POPC   PO413692  17.097   8.852   5.039  0.1353 -0.0050 -0.1647
  962POPC   GL113693  17.236   9.049   5.431  0.3109 -0.0112  0.2322
  962POPC   GL213694  17.351   8.872   5.686  0.2861 -0.3589  0.0421
  962POPC   C1A13695  17.138   9.307   5.766 -0.1462 -0.2684  0.0413
  962POPC   D2A13696  17.031   9.679   6.128 -0.2650 -0.0807  0.2525
  962POPC   C3A13697  16.930  10.098   6.117  0.0662  0.2212 -0.1903
  962POPC   C4A13698  17.036  10.265   6.503  0.2164 -0.0294 -0.0783
  962POPC   C1B13699  17.273   8.674   6.042  0.1937 -0.2824 -0.1197
  962POPC   C2B13700  17.040   8.585   6.439 -0.0128 -0.0123  0.1378
  962POPC   C3B13701  16.820   8.653   6.776 -0.1700  0.0035 -0.0377
  962POPC   C4B13702  16.886   8.989   7.083 -0.1083  0.0279  0.1542
  963POPC   NC313703   8.003  18.201   5.348 -0.0601  0.0353  0.0316
  963POPC   PO413704   7.848  18.595   5.626 -0.2845 -0.1469 -0.1775
  963POPC   GL113705   7.991  18.619   6.056 -0.0541 -0.5542  0.0872
  963POPC   GL213706   8.327  18.562   6.034 -0.1803 -0.0731  0.0137
  963POPC   C1A13707   8.118  18.498   6.482  0.0359  0.2715 -0.0109
  963POPC   D2A13708   8.030  18.289   6.869  0.1574  0.2867 -0.0840
  963POPC   C3A13709   8.153  18.389   7.220 -0.1446  0.0985  0.1472
  963POPC   C4A13710   8.362  18.648   7.598  0.3391  0.0340  0.2762
  963POPC   C1B13711   8.328  18.939   6.281 -0.3489  0.0112  0.0762
  963POPC   C2B13712   8.671  18.990   6.517 -0.2603 -0.1610 -0.2058
  963POPC   C3B13713   8.986  18.715   6.724  0.2222  0.0674 -0.1025
  963POPC   C4B13714   9.273  18.423   6.647  0.0986 -0.2783  0.0114
  964POPC   NC313715   3.667  15.088   5.318  0.1620  0.0154 -0.1819
  964POPC   PO413716   3.631  15.527   5.350 -0.1081  0.1680 -0.0927
  964POPC   GL113717   3.524  15.358   5.696  0.0144  0.3599  0.1636
  964POPC   GL213718   3.436  15.547   6.021  0.0012  0.0529  0.1282
  964POPC   C1A13719   3.297  15.050   5.983  0.3863 -0.3486  0.1999
  964POPC   D2A13720   3.115  14.877   6.275  0.0181 -0.0389  0.1096
  964POPC   C3A13721   2.732  15.084   6.440 -0.0894  0.1432 -0.0350
  964POPC   C4A13722   2.401  14.991   6.753  0.0795  0.0046 -0.0411
  964POPC   C1B13723   3.396  15.870   6.241  0.1273  0.2659  0.2936
  964POPC   C2B13724   3.466  16.012   6.609 -0.0833  0.0375  0.0354
  964POPC   C3B13725   3.421  15.991   7.091 -0.3494  0.0407  0.1275
  964POPC   C4B13726   3.623  16.243   7.507 -0.0050 -0.0193 -0.0411
  965POPC   NC313727  18.207   4.254   4.720  0.0795  0.1153 -0.1387
  965POPC   PO413728  18.333   4.353   5.098  0.0499  0.0867 -0.2151
  965POPC   GL113729  18.461   4.105   5.419 -0.1854  0.0702 -0.1050
  965POPC   GL213730  18.385   3.727   5.403 -0.0876  0.0171  0.0005
  965POPC   C1A13731  18.559   4.325   5.728 -0.2440  0.0334  0.1949
  965POPC   D2A13732  18.576   4.510   6.166 -0.3349 -0.3258  0.1407
  965POPC   C3A13733  18.461   4.633   6.502 -0.1337 -0.0456  0.1413
  965POPC   C4A13734  18.437   4.981   6.876 -0.1308  0.1512  0.1037
  965POPC   C1B13735  18.318   3.858   5.840 -0.1834 -0.2181 -0.2136
  965POPC   C2B13736  18.613   3.958   6.144 -0.1423 -0.4000  0.1761
  965POPC   C3B13737  18.696   4.167   6.505  0.1089  0.2152 -0.2371
  965POPC   C4B13738  18.849   4.339   6.815  0.1435 -0.2418 -0.2370
  966POPC   NC313739  16.666   4.822   4.989 -0.2130  0.0770  0.1182
  966POPC   PO413740  16.883   4.503   5.197  0.2554 -0.0314 -0.0473
  966POPC   GL113741  16.991   4.563   5.551 -0.0677 -0.0494 -0.0586
  966POPC   GL213742  17.083   4.337   5.743 -0.1108  0.4760 -0.2468
  966POPC   C1A13743  16.846   4.846   5.832 -0.2298  0.0113 -0.4507
  966POPC   D2A13744  16.768   5.014   6.287  0.2011 -0.0064 -0.0714
  966POPC   C3A13745  16.581   4.754   6.458  0.3487  0.1717 -0.0655
  966POPC   C4A13746  16.259   4.670   6.564 -0.2468  0.0311 -0.0267
  966POPC   C1B13747  17.099   4.114   6.059  0.2427 -0.0336 -0.0075
  966POPC   C2B13748  17.094   3.887   6.410 -0.0404 -0.3164 -0.1807
  966POPC   C3B13749  17.279   3.963   6.743 -0.0731  0.1220  0.2745
  966POPC   C4B13750  17.645   3.789   6.871  0.2946  0.0380 -0.0352
  967POPC   NC313751   3.402   6.765   4.757 -0.2580 -0.2185 -0.2613
  967POPC   PO413752   2.923   6.541   4.763  0.0771  0.0419  0.1504
  967POPC   GL113753   3.043   6.494   5.164 -0.3944 -0.0211  0.3593
  967POPC   GL213754   2.995   6.136   5.252  0.0843  0.2003 -0.1246
  967POPC   C1A13755   2.940   6.602   5.569 -0.3264  0.0072 -0.1233
  967POPC   D2A13756   2.857   6.543   5.980 -0.1345  0.1386 -0.1952
  967POPC   C3A13757   2.881   6.357   6.445  0.0740 -0.2869  0.1785
  967POPC   C4A13758   2.771   5.915   6.613 -0.1473  0.0390 -0.0813
  967POPC   C1B13759   3.090   6.068   5.616  0.2632 -0.1331  0.1072
  967POPC   C2B13760   2.895   6.010   5.979 -0.1785  0.1156 -0.2577
  967POPC   C3B13761   2.553   5.753   5.972  0.0202 -0.1784  0.1953
  967POPC   C4B13762   2.368   5.514   6.337 -0.1629 -0.1597 -0.2639
  968POPC   NC313763  16.394  17.537   5.421  0.0831  0.0012 -0.0816
  968POPC   PO413764  16.025  17.345   5.555  0.2562  0.2141 -0.0257
  968POPC   GL113765  16.307  17.544   5.915 -0.1064 -0.2096  0.0853
  968POPC   GL213766  16.426  17.885   5.889 -0.1169 -0.1555 -0.1445
  968POPC   C1A13767  16.520  17.329   6.306  0.1692  0.0583  0.2928
  968POPC   D2A13768  16.810  17.258   6.518 -0.3896 -0.2752 -0.0854
  968POPC   C3A13769  16.779  17.465   6.817  0.1011 -0.2197  0.1645
  968POPC   C4A13770  17.006  17.775   7.010 -0.1355 -0.0328  0.3317
  968POPC   C1B13771  16.322  18.218   6.299 -0.0003  0.0541  0.1440
  968POPC   C2B13772  16.374  18.389   6.812 -0.1330  0.0523 -0.0735
  968POPC   C3B13773  16.746  18.528   6.966 -0.0510 -0.1120  0.0721
  968POPC   C4B13774  17.060  18.419   7.264  0.2011  0.1516 -0.0074
  969POPC   NC313775   8.640  10.633   5.163  0.3310  0.3199 -0.1454
  969POPC   PO413776   8.815  10.355   5.321 -0.1526  0.2348 -0.1934
  969POPC   GL113777   8.724  10.083   5.702  0.0768  0.1590 -0.2542
  969POPC   GL213778   8.788   9.865   5.615  0.2375 -0.0194 -0.2362
  969POPC   C1A13779   8.629  10.101   6.104  0.0463 -0.1466 -0.5217
  969POPC   D2A13780   8.735  10.376   6.411 -0.1493 -0.0555  0.1833
  969POPC   C3A13781   8.762  10.319   6.810 -0.0560  0.1960  0.3550
  969POPC   C4A13782   8.762  10.403   7.212 -0.3204  0.1521  0.3096
  969POPC   C1B13783   8.863   9.675   5.957  0.4022  0.2544  0.1447
  969POPC   C2B13784   8.833   9.525   6.382 -0.1800 -0.0788  0.0272
  969POPC   C3B13785   8.732   9.729   6.805 -0.2611  0.0133  0.2582
  969POPC   C4B13786   8.727   9.747   7.244 -0.0917  0.4263  0.1161
  970POPC   NC313787  19.245  12.049   4.764 -0.0032 -0.2980 -0.0289
  970POPC   PO413788  19.283  11.656   4.911  0.0311  0.0358  0.0626
  970POPC   GL113789  19.457  11.816   5.207  0.0912  0.1252 -0.3333
  970POPC   GL213790  19.503  11.490   5.481 -0.0282  0.2891 -0.3646
  970POPC   C1A13791  19.795  12.019   5.495  0.0766  0.1773 -0.1188
  970POPC   D2A13792  19.830  11.994   5.978 -0.2009 -0.1999  0.0701
  970POPC   C3A13793  19.837  11.586   6.238  0.1374 -0.1996  0.4002
  970POPC   C4A13794  19.509  11.431   6.409 -0.3025  0.0182  0.1874
  970POPC   C1B13795  19.445  11.737   5.892  0.0250 -0.1034 -0.0868
  970POPC   C2B13796  19.098  12.001   6.075 -0.1901  0.1904  0.0363
  970POPC   C3B13797  18.844  12.046   6.336  0.4357 -0.2977 -0.1658
  970POPC   C4B13798  18.709  12.092   6.735 -0.2394  0.0901 -0.2518
  971POPC   NC313799   0.711  11.076   4.876  0.0469  0.1039 -0.0702
  971POPC   PO413800   0.926  10.724   5.050 -0.1518 -0.0703  0.2322
  971POPC   GL113801   1.200  10.657   5.379  0.0411 -0.3676 -0.3122
  971POPC   GL213802   1.482  10.905   5.414 -0.0252  0.1463  0.0154
  971POPC   C1A13803   1.347  10.431   5.729 -0.0925  0.0766  0.0218
  971POPC   D2A13804   1.421   9.917   5.848  0.0886 -0.0590  0.2505
  971POPC   C3A13805   1.203   9.751   6.235 -0.2255  0.0594 -0.0412
  971POPC   C4A13806   0.818   9.785   6.303 -0.0657  0.1958  0.2614
  971POPC   C1B13807   1.812  11.237   5.441  0.0595  0.5116  0.3666
  971POPC   C2B13808   1.813  11.210   5.826  0.1794  0.0913  0.4652
  971POPC   C3B13809   1.794  11.372   6.272 -0.0724 -0.3848  0.1475
  971POPC   C4B13810   2.006  11.444   6.611 -0.0189  0.0620  0.1380
  972POPC   NC313811   5.021  18.550   5.663 -0.0851 -0.1025  0.1232
  972POPC   PO413812   5.165  18.082   5.731  0.1703 -0.0999 -0.1334
  972POPC   GL113813   5.134  18.085   6.195  0.0084  0.1257  0.1235
  972POPC   GL213814   5.385  18.074   6.288  0.0166  0.1401 -0.0007
  972POPC   C1A13815   4.952  17.728   6.442  0.1781 -0.3747 -0.1659
  972POPC   D2A13816   4.643  17.664   6.760  0.2736 -0.0306  0.0406
  972POPC   C3A13817   4.286  17.399   6.657 -0.4242 -0.0830 -0.1046
  972POPC   C4A13818   3.900  17.065   6.739 -0.0765 -0.0175  0.1662
  972POPC   C1B13819   5.137  18.064   6.731 -0.0391 -0.2516 -0.1846
  972POPC   C2B13820   5.130  17.595   6.877 -0.1502 -0.0331  0.0020
  972POPC   C3B13821   4.801  17.483   7.219 -0.0684  0.0229  0.0497
  972POPC   C4B13822   4.908  17.570   7.679  0.1524  0.2041 -0.0614
  973POPC   NC313823  14.095   7.745   5.372 -0.3860 -0.2560  0.0195
  973POPC   PO413824  14.116   8.208   5.195 -0.0115 -0.1851 -0.2499
  973POPC   GL113825  14.240   8.155   5.676  0.1349  0.1577  0.1966
  973POPC   GL213826  14.340   8.401   5.836 -0.1866 -0.1646 -0.2524
  973POPC   C1A13827  14.278   7.952   6.008 -0.0103  0.0507  0.1358
  973POPC   D2A13828  14.407   7.888   6.405  0.2681 -0.0183 -0.4896
  973POPC   C3A13829  14.389   7.566   6.585  0.2404 -0.0223 -0.2758
  973POPC   C4A13830  14.405   7.178   6.567  0.0689 -0.0042  0.0589
  973POPC   C1B13831  14.421   8.498   6.304  0.0972 -0.0935  0.1983
  973POPC   C2B13832  14.524   8.636   6.701  0.1429  0.3078  0.1719
  973POPC   C3B13833  14.729   8.888   6.948  0.0517  0.1249  0.1859
  973POPC   C4B13834  14.949   9.261   7.020  0.0361  0.0766 -0.1752
  974POPC   NC313835  11.668   3.378   5.437 -0.1505 -0.1603  0.0586
  974POPC   PO413836  12.109   3.481   5.301 -0.0872 -0.0881 -0.3185
  974POPC   GL113837  12.044   3.561   5.788 -0.3239 -0.0063 -0.0836
  974POPC   GL213838  12.378   3.546   6.047 -0.2850 -0.2549  0.1827
  974POPC   C1A13839  11.785   3.712   6.103 -0.2805 -0.4051  0.0031
  974POPC   D2A13840  11.572   3.871   6.503  0.1860 -0.3484 -0.2458
  974POPC   C3A13841  11.535   4.320   6.610 -0.1062  0.2386  0.1094
  974POPC   C4A13842  11.821   4.610   6.413 -0.0746  0.0422 -0.1167
  974POPC   C1B13843  12.457   3.764   6.462 -0.0579 -0.2325 -0.2358
  974POPC   C2B13844  12.556   4.129   6.693 -0.1087  0.2503 -0.0236
  974POPC   C3B13845  12.513   4.211   7.182 -0.0116  0.2937 -0.2595
  974POPC   C4B13846  12.294   4.081   7.583  0.3377 -0.1069 -0.1422
  975POPC   NC313847  13.012  17.615   5.613  0.3164  0.1179 -0.0820
  975POPC   PO413848  12.857  17.355   5.529  0.0901  0.5232  0.2485
  975POPC   GL113849  12.595  17.524   5.939  0.2079 -0.1481 -0.2224
  975POPC   GL213850  12.874  17.710   6.269  0.3889 -0.1907  0.2322
  975POPC   C1A13851  12.290  17.325   6.319  0.1348  0.0017  0.3326
  975POPC   D2A13852  12.249  17.102   6.668 -0.0614  0.0984  0.1551
  975POPC   C3A13853  11.802  17.142   6.953  0.1279  0.1806 -0.1463
  975POPC   C4A13854  11.546  17.293   7.291  0.0833  0.3874  0.3939
  975POPC   C1B13855  13.130  17.430   6.602 -0.2788  0.3339 -0.1652
  975POPC   C2B13856  13.023  17.080   6.903  0.2942  0.0209  0.4112
  975POPC   C3B13857  13.464  16.913   7.177  0.0664 -0.4046 -0.0877
  975POPC   C4B13858  13.630  16.479   7.388 -0.0610  0.0025  0.0213
  976POPC   NC313859  19.293  14.692   4.488 -0.1977 -0.2113 -0.2106
  976POPC   PO413860  19.446  14.560   4.970  0.0205  0.1602 -0.4505
  976POPC   GL113861  19.233  14.710   5.389 -0.2202 -0.2031  0.0802
  976POPC   GL213862  19.145  14.516   5.593  0.4222 -0.0345 -0.2785
  976POPC   C1A13863  19.228  15.049   5.686  0.3402  0.2214 -0.0612
  976POPC   D2A13864  19.424  14.966   6.125 -0.1386  0.0525 -0.0348
  976POPC   C3A13865  19.698  15.276   6.364 -0.1205  0.0493  0.1991
  976POPC   C4A13866  19.730  15.267   6.699  0.2989 -0.2491  0.1690
  976POPC   C1B13867  19.282  14.200   5.753  0.0242 -0.0002 -0.0306
  976POPC   C2B13868  19.145  14.063   6.213 -0.0723 -0.1591 -0.0108
  976POPC   C3B13869  18.982  14.065   6.638  0.1302 -0.3121  0.1447
  976POPC   C4B13870  18.723  13.778   6.955 -0.0829 -0.1028 -0.1657
  977POPC   NC313871  14.729  10.680   5.161 -0.1540  0.1051  0.0301
  977POPC   PO413872  15.045  10.599   5.555 -0.2585 -0.0720  0.0093
  977POPC   GL113873  15.409  10.506   5.783  0.0610  0.2311  0.4167
  977POPC   GL213874  15.378  10.215   5.858 -0.1896  0.2667  0.0671
  977POPC   C1A13875  15.665  10.727   6.151 -0.3073  0.1343 -0.2743
  977POPC   D2A13876  15.804  10.652   6.586  0.3712  0.2679 -0.0208
  977POPC   C3A13877  16.007  10.237   6.588 -0.0174 -0.3825  0.2261
  977POPC   C4A13878  16.119   9.819   6.731 -0.2919  0.2287  0.1678
  977POPC   C1B13879  15.452  10.275   6.305  0.0701  0.0012  0.0310
  977POPC   C2B13880  15.483  10.278   6.738  0.1663  0.0667  0.0308
  977POPC   C3B13881  15.294  10.042   7.010 -0.2950 -0.2579 -0.1177
  977POPC   C4B13882  15.393   9.491   6.963 -0.0537 -0.0818  0.0603
  978POPC   NC313883  16.817  12.983   4.948  0.3530  0.0589 -0.2843
  978POPC   PO413884  16.578  12.853   5.185  0.3234 -0.2649 -0.0036
  978POPC   GL113885  16.785  12.801   5.548  0.0802  0.0330 -0.1846
  978POPC   GL213886  16.963  12.591   5.514 -0.1830 -0.0047  0.1668
  978POPC   C1A13887  16.972  12.833   5.913  0.3237  0.0843  0.0003
  978POPC   D2A13888  17.181  12.695   6.199  0.0733 -0.1002 -0.3124
  978POPC   C3A13889  17.250  12.508   6.658  0.0834  0.3249 -0.1387
  978POPC   C4A13890  17.521  12.522   7.043  0.1624  0.0740  0.0950
  978POPC   C1B13891  17.323  12.446   5.726 -0.3101  0.0886  0.0441
  978POPC   C2B13892  17.579  12.437   6.146 -0.4163  0.0881 -0.0682
  978POPC   C3B13893  17.874  12.237   6.452  0.0256 -0.3153  0.1739
  978POPC   C4B13894  17.968  12.156   6.832 -0.1061 -0.0050 -0.0492
  979POPC   NC313895  14.787   9.692   5.292  0.4267 -0.0196  0.0893
  979POPC   PO413896  14.490   9.398   5.086  0.1156  0.0550  0.4598
  979POPC   GL113897  14.577   9.211   5.387 -0.4744  0.1590 -0.0290
  979POPC   GL213898  14.355   8.903   5.409 -0.1746  0.3195 -0.0526
  979POPC   C1A13899  14.378   9.366   5.859  0.2711  0.0222 -0.2820
  979POPC   D2A13900  13.908   9.342   6.019  0.0339 -0.1596 -0.1703
  979POPC   C3A13901  13.665   9.114   6.374  0.1781  0.0431 -0.2937
  979POPC   C4A13902  13.782   8.733   6.615 -0.5025  0.0120  0.1991
  979POPC   C1B13903  14.685   8.893   5.871  0.3487  0.0066  0.0425
  979POPC   C2B13904  14.980   9.200   6.058 -0.0979 -0.0845 -0.0132
  979POPC   C3B13905  15.211   9.200   6.473  0.1166  0.2193  0.0082
  979POPC   C4B13906  15.338   8.992   6.835  0.0647 -0.1883  0.3043
  980POPC   NC313907   5.666  12.448   4.806 -0.1197 -0.1598 -0.1361
  980POPC   PO413908   6.019  12.422   5.034  0.1457  0.1140 -0.0978
  980POPC   GL113909   6.076  12.387   5.480 -0.1517  0.2004  0.1228
  980POPC   GL213910   6.180  12.524   5.756 -0.2987 -0.0321  0.0667
  980POPC   C1A13911   6.397  12.111   5.885  0.1348 -0.1513  0.3021
  980POPC   D2A13912   6.474  12.053   6.311  0.2095  0.2100  0.1482
  980POPC   C3A13913   6.389  11.793   6.545  0.0973  0.0677  0.1328
  980POPC   C4A13914   6.357  11.661   6.840 -0.0681 -0.1296  0.2268
  980POPC   C1B13915   6.204  12.569   6.092 -0.0122  0.4825 -0.3025
  980POPC   C2B13916   6.212  12.475   6.471  0.1340 -0.0899 -0.1598
  980POPC   C3B13917   6.426  12.689   6.854  0.0230  0.0444  0.1078
  980POPC   C4B13918   6.471  12.603   7.163  0.0031 -0.2819  0.0165
  981YOPC   NC313919   5.383  17.036   5.685 -0.0839  0.0715  0.0435
  981YOPC   PO413920   5.496  16.656   5.255  0.2519  0.1828  0.0807
  981YOPC   GL113921   5.495  16.580   5.762  0.1530  0.0975  0.4397
  981YOPC   GL213922   5.198  16.471   5.959  0.2584 -0.2081  0.0479
  981YOPC   C1A13923   5.776  16.578   6.174  0.1488 -0.0738  0.0002
  981YOPC   D2A13924   6.020  16.486   6.454  0.0633 -0.1662 -0.0533
  981YOPC   C3A13925   5.916  16.396   6.953  0.1019  0.2561 -0.0312
  981YOPC   C4A13926   5.853  16.575   7.327 -0.1243 -0.1085 -0.1449
  981YOPC   C1B13927   5.147  16.343   6.353  0.0712 -0.0079 -0.1270
  981YOPC   C2B13928   5.035  16.497   6.792 -0.0462  0.1173 -0.2924
  981YOPC   D3B13929   4.930  16.373   7.240  0.2198  0.1001 -0.3285
  981YOPC   C4B13930   4.848  16.610   7.652  0.1581 -0.1023  0.2031
  982YOPC   NC313931  14.821   1.516   5.535  0.0061 -0.0586  0.0001
  982YOPC   PO413932  15.250   1.707   5.707 -0.0606  0.3938  0.1973
  982YOPC   GL113933  15.574   1.859   6.024  0.3444 -0.2412  0.3205
  982YOPC   GL213934  15.370   2.014   6.211  0.2069  0.4929 -0.1726
  982YOPC   C1A13935  15.906   1.946   6.280 -0.1421  0.1508  0.0534
  982YOPC   D2A13936  15.962   1.983   6.657 -0.1241 -0.3750 -0.0519
  982YOPC   C3A13937  16.416   2.253   6.784  0.0846  0.0456 -0.0783
  982YOPC   C4A13938  16.752   2.470   6.894 -0.0051  0.1879 -0.0031
  982YOPC   C1B13939  15.325   1.869   6.669 -0.1521 -0.1606 -0.3557
  982YOPC   C2B13940  15.618   2.131   6.984 -0.0724  0.4879  0.2191
  982YOPC   D3B13941  15.506   1.997   7.373 -0.0476 -0.0433 -0.3001
  982YOPC   C4B13942  15.608   2.051   7.805  0.0856 -0.1413 -0.3048
  983YOPC   NC313943   5.647  17.848   5.682 -0.1509 -0.2323 -0.0038
  983YOPC   PO413944   5.269  17.587   5.832 -0.0694  0.3081  0.1336
  983YOPC   GL113945   5.220  17.310   6.215  0.2909 -0.0442  0.0799
  983YOPC   GL213946   5.330  17.436   6.484 -0.0837  0.2988 -0.0783
  983YOPC   C1A13947   5.252  16.838   6.304 -0.1860  0.0133 -0.4904
  983YOPC   D2A13948   5.569  16.572   6.643  0.4705  0.1138  0.0801
  983YOPC   C3A13949   5.507  16.777   7.011  0.0615  0.0058  0.2202
  983YOPC   C4A13950   5.334  16.798   7.395 -0.3028 -0.0440 -0.3973
  983YOPC   C1B13951   5.579  17.305   6.797  0.2691  0.1748 -0.0229
  983YOPC   C2B13952   5.740  17.169   7.202 -0.4398  0.2260  0.1982
  983YOPC   D3B13953   5.692  17.185   7.637 -0.1131 -0.1357  0.0575
  983YOPC   C4B13954   5.681  17.415   7.962  0.1267 -0.1050 -0.2889
  984YOPC   NC313955  17.925   7.899   4.972  0.1164  0.1032  0.1180
  984YOPC   PO413956  17.848   7.494   4.899  0.0971  0.0475  0.0798
  984YOPC   GL113957  17.746   7.372   5.253  0.0997  0.0593  0.0994
  984YOPC   GL213958  17.537   7.520   5.618  0.3237 -0.1848 -0.1136
  984YOPC   C1A13959  17.601   7.012   5.508 -0.0248 -0.2030 -0.3413
  984YOPC   D2A13960  17.569   6.788   5.948  0.1789 -0.2153  0.0028
  984YOPC   C3A13961  17.262   6.854   6.135 -0.0417  0.0787 -0.4465
  984YOPC   C4A13962  17.039   7.233   6.265 -0.3642  0.0924  0.3804
  984YOPC   C1B13963  17.455   7.358   6.062  0.0258 -0.1265 -0.1688
  984YOPC   C2B13964  17.453   7.179   6.517 -0.0959  0.0611  0.1675
  984YOPC   D3B13965  17.022   6.833   6.567 -0.0188 -0.2152 -0.0090
  984YOPC   C4B13966  17.003   6.587   6.890  0.3497  0.1331 -0.1302
  985YOPC   NC313967   2.302   0.697   5.010 -0.0567  0.2264  0.1159
  985YOPC   PO413968   2.002   1.034   5.105  0.1107 -0.2057 -0.0089
  985YOPC   GL113969   2.206   1.168   5.513  0.0991 -0.0236  0.0986
  985YOPC   GL213970   2.527   1.153   5.433 -0.0424 -0.1645  0.4317
  985YOPC   C1A13971   2.104   1.354   5.918  0.0184  0.2603  0.2963
  985YOPC   D2A13972   2.038   1.281   6.316  0.1214  0.0933  0.0080
  985YOPC   C3A13973   2.428   1.174   6.592  0.3774 -0.1349  0.2121
  985YOPC   C4A13974   2.606   1.155   6.925 -0.1533  0.1607 -0.0355
  985YOPC   C1B13975   2.933   1.337   5.609 -0.1129 -0.0964  0.0629
  985YOPC   C2B13976   3.213   1.344   5.972  0.1775  0.0277  0.3182
  985YOPC   D3B13977   3.610   1.685   6.022 -0.1154  0.1496  0.0986
  985YOPC   C4B13978   3.518   2.049   6.103  0.1200  0.2360 -0.0017
  986YOPC   NC313979   0.327   8.255   5.048 -0.0021 -0.0797  0.5247
  986YOPC   PO413980  -0.083   8.212   5.297 -0.2933 -0.1091 -0.0709
  986YOPC   GL113981  -0.142   8.241   5.694 -0.0779 -0.0103  0.2807
  986YOPC   GL213982  -0.327   7.896   5.688  0.0226  0.2442  0.0651
  986YOPC   C1A13983  -0.174   8.383   6.097  0.1434 -0.1787 -0.0009
  986YOPC   D2A13984  -0.151   8.494   6.466 -0.1702  0.2385  0.1439
  986YOPC   C3A13985  -0.088   8.241   6.750  0.1524 -0.1066  0.1949
  986YOPC   C4A13986   0.153   8.232   7.170 -0.0275 -0.2837 -0.2157
  986YOPC   C1B13987  -0.600   8.160   5.855  0.4176 -0.0758  0.1573
  986YOPC   C2B13988  -0.951   8.419   5.759 -0.0957  0.1142  0.2457
  986YOPC   D3B13989  -0.720   8.893   5.605 -0.2703 -0.0789  0.1255
  986YOPC   C4B13990  -0.564   9.133   5.928 -0.1415 -0.2142  0.1887
  987YOPC   NC313991   2.734   2.750   4.129 -0.2182  0.1869 -0.0296
  987YOPC   PO413992   2.561   2.904   4.481 -0.1404 -0.2781  0.2823
  987YOPC   GL113993   2.800   2.815   4.873 -0.2028  0.2557 -0.0029
  987YOPC   GL213994   2.942   3.069   4.955  0.0293  0.2617 -0.3438
  987YOPC   C1A13995   2.744   2.840   5.357  0.0013 -0.1202  0.0487
  987YOPC   D2A13996   2.631   2.692   5.736 -0.1219  0.3382 -0.1967
  987YOPC   C3A13997   2.588   2.726   6.133 -0.3085  0.4522 -0.2896
  987YOPC   C4A13998   2.364   2.714   6.462 -0.3844  0.1733  0.1643
  987YOPC   C1B13999   3.039   3.286   5.296  0.3124 -0.1240  0.0854
  987YOPC   C2B14000   2.997   3.229   5.759  0.2080  0.2999 -0.0494
  987YOPC   D3B14001   3.011   2.907   6.024  0.0286 -0.1143  0.0454
  987YOPC   C4B14002   2.987   2.882   6.434  0.1962  0.0279 -0.1047
  988YOPC   NC314003   2.403   6.109   4.249  0.2624  0.5081  0.0964
  988YOPC   PO414004   2.391   6.044   4.630 -0.1295  0.1717 -0.0277
  988YOPC   GL114005   2.518   6.145   5.069  0.0076  0.0642  0.1522
  988YOPC   GL214006   2.534   5.855   5.355 -0.0697  0.2172  0.3330
  988YOPC   C1A14007   2.561   6.268   5.534  0.0326  0.0546  0.1946
  988YOPC   D2A14008   2.480   6.265   6.002 -0.3434  0.1976 -0.1139
  988YOPC   C3A14009   2.416   6.527   6.317  0.1457 -0.1701 -0.0478
  988YOPC   C4A14010   2.646   6.822   6.567  0.4737  0.2639  0.3620
  988YOPC   C1B14011   2.830   5.675   5.569 -0.0935 -0.0706 -0.0741
  988YOPC   C2B14012   3.130   5.503   5.852 -0.0827 -0.1229  0.0875
  988YOPC   D3B14013   2.886   5.548   6.231 -0.0192 -0.3128 -0.1457
  988YOPC   C4B14014   2.815   5.190   6.477  0.2976  0.4809  0.1681
  989YOPC   NC314015  14.779   3.781   5.150  0.1506 -0.1686 -0.0502
  989YOPC   PO414016  15.099   4.006   5.165 -0.0187 -0.2510 -0.1243
  989YOPC   GL114017  15.443   4.140   5.450 -0.3423  0.3791  0.0741
  989YOPC   GL214018  15.168   4.300   5.673  0.2852 -0.1780  0.0145
  989YOPC   C1A14019  15.694   4.113   5.825  0.0440 -0.3124 -0.1078
  989YOPC   D2A14020  16.179   3.989   5.916 -0.2934 -0.0342 -0.2327
  989YOPC   C3A14021  16.461   3.842   6.254 -0.0481  0.2188  0.0202
  989YOPC   C4A14022  16.582   3.753   6.625  0.0493  0.0905 -0.1515
  989YOPC   C1B14023  15.219   4.158   5.987  0.0145  0.0009 -0.2944
  989YOPC   C2B14024  15.388   3.887   6.266  0.3055  0.2145 -0.0707
  989YOPC   D3B14025  15.605   3.918   6.761  0.2318 -0.1514  0.0093
  989YOPC   C4B14026  15.503   3.858   7.084 -0.1092  0.0452 -0.1149
  990YOPC   NC314027   7.205   6.035   5.174 -0.2887  0.1837 -0.0628
  990YOPC   PO414028   7.362   5.594   5.220  0.2075 -0.0642 -0.0604
  990YOPC   GL114029   7.500   5.467   5.597  0.0405 -0.0295  0.0163
  990YOPC   GL214030   7.747   5.586   5.718 -0.1268 -0.0963 -0.1116
  990YOPC   C1A14031   7.571   5.116   5.843  0.1862 -0.1423  0.1469
  990YOPC   D2A14032   7.326   4.936   6.200  0.2430  0.0628  0.0732
  990YOPC   C3A14033   7.219   5.188   6.498 -0.3788 -0.1046  0.1080
  990YOPC   C4A14034   7.157   5.301   6.819 -0.0029 -0.0919  0.0733
  990YOPC   C1B14035   7.753   5.617   6.177  0.1702 -0.0293  0.0413
  990YOPC   C2B14036   7.519   5.620   6.569  0.1528  0.2512 -0.0816
  990YOPC   D3B14037   7.042   5.671   6.526  0.1975 -0.0487  0.3096
  990YOPC   C4B14038   6.655   5.578   6.748  0.4225  0.1272 -0.0633
  991YOPC   NC314039  14.338  12.155   4.995  0.2790 -0.0057 -0.1394
  991YOPC   PO414040  14.053  11.868   5.387  0.3700  0.0679 -0.0318
  991YOPC   GL114041  14.078  11.875   5.901  0.2519 -0.0852 -0.0487
  991YOPC   GL214042  14.303  12.096   5.970 -0.1119 -0.1259 -0.3130
  991YOPC   C1A14043  14.019  11.874   6.313 -0.0344 -0.0620  0.0616
  991YOPC   D2A14044  13.620  11.894   6.551 -0.0382  0.0687  0.1010
  991YOPC   C3A14045  13.636  11.469   6.621  0.2052  0.1414 -0.1222
  991YOPC   C4A14046  13.635  11.030   6.631 -0.3387 -0.2818  0.0109
  991YOPC   C1B14047  14.613  12.244   6.245  0.1012  0.2004 -0.0310
  991YOPC   C2B14048  14.937  11.914   6.406 -0.2207  0.1646 -0.0238
  991YOPC   D3B14049  14.924  11.793   6.826 -0.0852  0.1214 -0.0256
  991YOPC   C4B14050  14.928  11.971   7.250 -0.0958  0.2877 -0.2872
  992YOPC   NC314051   1.516   2.128   4.869  0.3112  0.0756  0.0999
  992YOPC   PO414052   1.881   2.009   5.084  0.4735 -0.2236 -0.1147
  992YOPC   GL114053   2.034   2.323   5.376 -0.0505 -0.0561 -0.4200
  992YOPC   GL214054   2.394   2.280   5.401 -0.0854 -0.0520  0.0245
  992YOPC   C1A14055   1.899   2.593   5.722 -0.2454 -0.2018 -0.1513
  992YOPC   D2A14056   1.518   2.704   5.857 -0.2701  0.2341  0.1085
  992YOPC   C3A14057   1.203   2.439   6.011 -0.0865  0.0675  0.1502
  992YOPC   C4A14058   0.871   2.286   6.355  0.0313 -0.1830 -0.0594
  992YOPC   C1B14059   2.294   2.296   5.827  0.3094 -0.1971  0.2052
  992YOPC   C2B14060   2.208   2.401   6.117  0.1124 -0.2791  0.0694
  992YOPC   D3B14061   1.928   2.551   6.253 -0.2780 -0.1505  0.0081
  992YOPC   C4B14062   1.440   2.717   6.317  0.2075  0.2397 -0.1540
  993YOPC   NC314063   7.274   1.492   5.374  0.7223  0.0819 -0.2677
  993YOPC   PO414064   7.210   1.795   5.173 -0.0881  0.1779 -0.2774
  993YOPC   GL114065   7.316   2.213   5.468 -0.3559  0.0165 -0.0212
  993YOPC   GL214066   7.099   2.461   5.581  0.2262 -0.1004  0.2173
  993YOPC   C1A14067   7.412   2.286   5.953  0.1883 -0.0254 -0.0268
  993YOPC   D2A14068   7.383   2.097   6.386 -0.1869  0.2173 -0.1866
  993YOPC   C3A14069   6.980   1.877   6.554  0.0342  0.0798  0.0238
  993YOPC   C4A14070   6.759   1.485   6.559  0.2152  0.1840  0.0936
  993YOPC   C1B14071   6.768   2.706   5.857  0.0740 -0.1000 -0.1949
  993YOPC   C2B14072   6.803   2.816   6.238 -0.2475  0.4644  0.0001
  993YOPC   D3B14073   7.019   2.919   6.698 -0.2044 -0.2603  0.0002
  993YOPC   C4B14074   7.101   2.850   7.125 -0.0521  0.1905 -0.1242
  994YOPC   NC314075   6.954  12.102   5.360 -0.1370 -0.2066  0.0317
  994YOPC   PO414076   6.617  11.689   5.340 -0.0141 -0.2091  0.0016
  994YOPC   GL114077   6.495  11.621   5.648  0.0392 -0.2166  0.1643
  994YOPC   GL214078   6.773  11.350   5.820 -0.1687 -0.4376 -0.0907
  994YOPC   C1A14079   6.237  11.683   6.036 -0.2083  0.0539 -0.0589
  994YOPC   D2A14080   5.951  11.600   6.356 -0.1778  0.0824  0.0132
  994YOPC   C3A14081   5.580  11.690   6.165  0.4053 -0.0662  0.2077
  994YOPC   C4A14082   5.475  11.807   5.766 -0.2561  0.1308 -0.0162
  994YOPC   C1B14083   6.766  10.869   5.879  0.3408 -0.1067  0.2279
  994YOPC   C2B14084   6.726  10.750   6.307 -0.2763 -0.1239 -0.1316
  994YOPC   D3B14085   6.774  10.990   6.655  0.3559 -0.1888 -0.0105
  994YOPC   C4B14086   6.497  11.184   6.934  0.3296  0.1770 -0.1323
  995YOPC   NC314087  16.345   7.628   4.852 -0.4471 -0.1376 -0.2644
  995YOPC   PO414088  16.730   7.346   4.932  0.0513  0.0470  0.3128
  995YOPC   GL114089  16.635   7.498   5.296 -0.1736 -0.0937  0.2423
  995YOPC   GL214090  16.398   7.629   5.365 -0.0820  0.0733 -0.1800
  995YOPC   C1A14091  16.616   7.232   5.640  0.0096 -0.0706  0.3519
  995YOPC   D2A14092  16.807   6.975   5.833  0.0346 -0.0740  0.1475
  995YOPC   C3A14093  16.749   6.501   5.843 -0.0279 -0.0649  0.3901
  995YOPC   C4A14094  16.462   6.138   5.684 -0.0063 -0.1241  0.2026
  995YOPC   C1B14095  16.538   7.771   5.730  0.2415  0.1749  0.1900
  995YOPC   C2B14096  16.474   7.840   6.170 -0.1119  0.0258  0.0621
  995YOPC   D3B14097  16.793   7.708   6.422  0.1718 -0.3192  0.1038
  995YOPC   C4B14098  17.257   7.707   6.319  0.1127 -0.1296  0.0527
  996YOPC   NC314099  10.693  13.977   5.515 -0.3144 -0.1665 -0.1272
  996YOPC   PO414100  10.240  14.169   5.722 -0.2852 -0.3522  0.0763
  996YOPC   GL114101  10.247  14.032   6.047  0.1192 -0.2282  0.6083
  996YOPC   GL214102  10.135  13.686   6.197  0.2056 -0.0775  0.3170
  996YOPC   C1A14103  10.328  14.163   6.510  0.2053  0.0076 -0.2901
  996YOPC   D2A14104  10.529  14.039   6.974 -0.0388 -0.1427  0.2433
  996YOPC   C3A14105  10.198  13.934   7.264  0.0113  0.0423  0.0386
  996YOPC   C4A14106   9.817  13.777   7.502  0.2625  0.0496  0.1802
  996YOPC   C1B14107  10.100  13.744   6.600 -0.1112 -0.0077 -0.0617
  996YOPC   C2B14108   9.970  13.979   6.826 -0.2471 -0.1857 -0.0860
  996YOPC   D3B14109   9.530  13.914   7.021 -0.0511 -0.2488  0.2194
  996YOPC   C4B14110   9.298  13.893   7.416 -0.2868  0.2053 -0.0416
  997YOPC   NC314111   7.569   0.557   5.466  0.1668 -0.1586  0.1105
  997YOPC   PO414112   7.110   0.484   5.692 -0.2485 -0.2964 -0.2885
  997YOPC   GL114113   6.908   0.493   6.119 -0.0143 -0.0112  0.1208
  997YOPC   GL214114   6.900   0.256   6.288 -0.0598  0.1986  0.1663
  997YOPC   C1A14115   6.834   0.744   6.397  0.0124 -0.1461  0.1616
  997YOPC   D2A14116   6.754   0.613   6.763 -0.2364 -0.2574 -0.2029
  997YOPC   C3A14117   6.915   0.315   6.889  0.1178  0.2421  0.0287
  997YOPC   C4A14118   7.370   0.048   6.983  0.4500 -0.1768 -0.3364
  997YOPC   C1B14119   6.979  -0.092   6.595 -0.2131 -0.0415 -0.1081
  997YOPC   C2B14120   6.688  -0.088   7.084 -0.0753 -0.1691  0.3142
  997YOPC   D3B14121   6.985  -0.100   7.390 -0.1161 -0.1024  0.0287
  997YOPC   C4B14122   7.407  -0.208   7.546 -0.5600  0.0181 -0.3052
  998YOPC   NC314123   3.582  10.647   4.918 -0.0404  0.0665 -0.0359
  998YOPC   PO414124   3.512  10.221   5.120  0.1362  0.2207  0.0377
  998YOPC   GL114125   3.610  10.592   5.435  0.3684 -0.1739  0.0909
  998YOPC   GL214126   3.218  10.559   5.392  0.0058  0.2246  0.0857
  998YOPC   C1A14127   3.614  10.847   5.865  0.1483  0.1593  0.1069
  998YOPC   D2A14128   3.700  10.717   6.221 -0.1428 -0.0055 -0.0677
  998YOPC   C3A14129   3.704  10.793   6.558  0.0587  0.0127 -0.1380
  998YOPC   C4A14130   3.792  10.705   6.853  0.1834 -0.1795 -0.3119
  998YOPC   C1B14131   3.066  10.176   5.739  0.0780 -0.2901  0.1276
  998YOPC   C2B14132   3.097   9.790   5.840  0.0369  0.2031  0.1586
  998YOPC   D3B14133   2.938   9.803   6.269 -0.0440  0.1216  0.2206
  998YOPC   C4B14134   3.168   9.604   6.669 -0.0991 -0.1296 -0.0164
  999YOPC   NC314135  10.684  16.882   6.084  0.5610  0.2001 -0.0523
  999YOPC   PO414136  10.728  16.420   6.092 -0.1512 -0.1815 -0.1863
  999YOPC   GL114137  10.491  16.569   6.482 -0.1073 -0.1009 -0.0284
  999YOPC   GL214138  10.549  16.863   6.665 -0.1412  0.0236  0.2450
  999YOPC   C1A14139  10.425  16.393   6.863  0.0262 -0.2525  0.0910
  999YOPC   D2A14140  10.299  16.383   7.292  0.0916 -0.1542 -0.0572
  999YOPC   C3A14141  10.521  15.993   7.476 -0.0685  0.1255  0.1448
  999YOPC   C4A14142  10.419  15.824   7.840  0.1410  0.1213 -0.1292
  999YOPC   C1B14143  10.718  17.112   6.847 -0.0347  0.1455 -0.0887
  999YOPC   C2B14144  10.665  17.251   7.200 -0.2999  0.1048 -0.0388
  999YOPC   D3B14145  10.987  17.138   7.372  0.1171 -0.0110 -0.3260
  999YOPC   C4B14146  11.149  17.369   7.529 -0.0095 -0.1851 -0.3485
 1000YOPC   NC314147   3.095  12.247   5.026  0.1154 -0.2367 -0.1527
 1000YOPC   PO414148   2.998  12.668   5.280  0.1509 -0.1479  0.2901
 1000YOPC   GL114149   2.754  12.649   5.587 -0.4123  0.1207  0.1501
 1000YOPC   GL214150   2.715  13.017   5.507 -0.2027 -0.1500 -0.0451
 1000YOPC   C1A14151   2.457  12.803   5.845  0.0189  0.2030 -0.2385
 1000YOPC   D2A14152   2.286  12.827   6.333  0.1233 -0.1817  0.2411
 1000YOPC   C3A14153   2.079  13.217   6.550 -0.1698  0.1378  0.0511
 1000YOPC   C4A14154   2.019  13.309   7.027  0.0046 -0.0837 -0.2200
 1000YOPC   C1B14155   2.438  13.271   5.490 -0.1236 -0.1068  0.1117
 1000YOPC   C2B14156   2.481  13.705   5.743  0.2009  0.0964  0.1564
 1000YOPC   D3B14157   2.491  13.764   6.173 -0.0228 -0.0641 -0.3289
 1000YOPC   C4B14158   2.832  13.802   6.380 -0.3131 -0.0649 -0.0038
 1001YOPC   NC314159   1.618   7.244   4.325 -0.0932 -0.0997 -0.2382
 1001YOPC   PO414160   1.307   7.470   4.667  0.1874 -0.0246  0.0384
 1001YOPC   GL114161   1.447   7.693   5.115  0.2970 -0.0379  0.1095
 1001YOPC   GL214162   1.619   7.550   5.341 -0.3955 -0.0832 -0.2229
 1001YOPC   C1A14163   1.241   7.963   5.417 -0.3204  0.1631 -0.3022
 1001YOPC   D2A14164   0.886   8.245   5.543  0.0874  0.3777 -0.1493
 1001YOPC   C3A14165   0.915   8.694   5.525  0.0309  0.3776  0.1627
 1001YOPC   C4A14166   1.122   9.035   5.513  0.0383 -0.1066  0.0456
 1001YOPC   C1B14167   1.401   7.410   5.739  0.1198  0.1998  0.0182
 1001YOPC   C2B14168   1.290   7.549   6.192  0.0137  0.3329 -0.4221
 1001YOPC   D3B14169   1.130   7.465   6.617  0.1282  0.2702  0.1995
 1001YOPC   C4B14170   0.985   7.420   7.003  0.1365 -0.3121  0.1003
 1002YOPC   NC314171   8.850  18.565   5.366  0.0636  0.0242  0.2241
 1002YOPC   PO414172   9.160  18.827   5.690 -0.2018  0.0971  0.1691
 1002YOPC   GL114173   9.322  19.005   6.085  0.3731  0.1235 -0.4132
 1002YOPC   GL214174   9.190  19.245   6.190 -0.2448 -0.0368  0.1855
 1002YOPC   C1A14175   9.483  18.899   6.496 -0.0984 -0.0526 -0.1777
 1002YOPC   D2A14176   9.450  18.835   6.914  0.0297 -0.0407  0.2407
 1002YOPC   C3A14177   9.318  18.483   7.123  0.0094 -0.1544 -0.2074
 1002YOPC   C4A14178   9.142  18.101   7.340  0.3001 -0.4249 -0.1940
 1002YOPC   C1B14179   9.227  19.310   6.646  0.0149 -0.3090 -0.3872
 1002YOPC   C2B14180   9.510  19.368   7.033 -0.0416 -0.0187  0.0081
 1002YOPC   D3B14181   9.565  19.086   7.339 -0.0274  0.2014 -0.0798
 1002YOPC   C4B14182   9.199  18.950   7.569  0.2387  0.0848 -0.0648
 1003YOPC   NC314183  10.193   1.438   5.344 -0.0026  0.0327  0.0954
 1003YOPC   PO414184  10.275   1.474   5.706  0.2334 -0.0242 -0.2528
 1003YOPC   GL114185  10.164   1.654   6.105  0.1338 -0.1289 -0.1631
 1003YOPC   GL214186  10.199   1.863   6.007  0.1015  0.2917  0.0444
 1003YOPC   C1A14187  10.245   1.970   6.467  0.0124 -0.3123 -0.0428
 1003YOPC   D2A14188  10.098   2.236   6.628 -0.1620  0.0650  0.1932
 1003YOPC   C3A14189   9.976   2.221   7.042 -0.1583 -0.0599  0.0273
 1003YOPC   C4A14190  10.192   2.265   7.361  0.1949 -0.4929  0.1279
 1003YOPC   C1B14191   9.867   2.148   6.106 -0.1939 -0.2410 -0.1125
 1003YOPC   C2B14192   9.537   2.160   6.350  0.0569  0.0720  0.0173
 1003YOPC   D3B14193   9.576   2.168   6.754  0.1977  0.3532  0.4528
 1003YOPC   C4B14194   9.349   1.950   7.043 -0.0039 -0.0550 -0.2430
 1004YOPC   NC314195  17.808  14.528   4.866 -0.1387  0.1999 -0.0909
 1004YOPC   PO414196  17.420  14.602   4.848 -0.1002 -0.1176  0.0777
 1004YOPC   GL114197  17.416  14.588   5.212 -0.0549 -0.0945  0.1334
 1004YOPC   GL214198  17.691  14.755   5.298  0.1800  0.0119  0.2353
 1004YOPC   C1A14199  17.407  14.469   5.619 -0.4295 -0.2087 -0.0225
 1004YOPC   D2A14200  17.289  14.562   6.011 -0.1475 -0.0295  0.0411
 1004YOPC   C3A14201  17.401  14.593   6.383 -0.1645 -0.0320  0.2674
 1004YOPC   C4A14202  17.593  14.601   6.814 -0.1379 -0.4041 -0.0749
 1004YOPC   C1B14203  17.688  14.865   5.749 -0.0465 -0.0094  0.1963
 1004YOPC   C2B14204  17.801  14.753   6.159  0.1697 -0.0584  0.0250
 1004YOPC   D3B14205  17.757  15.033   6.541  0.0886 -0.0876 -0.2428
 1004YOPC   C4B14206  17.885  15.253   7.006 -0.1761  0.2134  0.1161
 1005YOPC   NC314207  14.447   4.987   5.145 -0.1010  0.0167  0.2730
 1005YOPC   PO414208  14.195   5.222   5.493 -0.0089 -0.0589 -0.1436
 1005YOPC   GL114209  13.940   5.035   5.817 -0.0015 -0.1054  0.1074
 1005YOPC   GL214210  14.099   4.847   5.903  0.0067 -0.2291  0.3526
 1005YOPC   C1A14211  14.035   5.205   6.216  0.2663 -0.2311  0.0995
 1005YOPC   D2A14212  14.317   5.436   6.480 -0.1067 -0.1390 -0.2237
 1005YOPC   C3A14213  14.321   5.487   6.866  0.0616 -0.2288  0.0296
 1005YOPC   C4A14214  14.486   5.169   7.087 -0.0330  0.0643 -0.3410
 1005YOPC   C1B14215  14.226   4.637   6.358  0.1075 -0.1759  0.1314
 1005YOPC   C2B14216  14.300   4.223   6.505  0.4333  0.1334 -0.0747
 1005YOPC   D3B14217  14.113   4.103   6.853 -0.2341 -0.2437 -0.5741
 1005YOPC   C4B14218  14.027   3.884   7.132 -0.0959  0.1827  0.1506
 1006YOPC   NC314219   1.940  11.725   4.559 -0.1599 -0.0441  0.0773
 1006YOPC   PO414220   2.161  11.991   4.897  0.0939  0.0966  0.2168
 1006YOPC   GL114221   2.108  12.154   5.169 -0.1893 -0.1612 -0.2280
 1006YOPC   GL214222   1.898  12.230   5.327  0.2418  0.2843 -0.0606
 1006YOPC   C1A14223   2.312  12.078   5.482  0.0726 -0.0272 -0.1332
 1006YOPC   D2A14224   2.596  12.287   5.812  0.1754  0.4204  0.0415
 1006YOPC   C3A14225   2.729  12.496   6.214  0.2578 -0.1368  0.1060
 1006YOPC   C4A14226   2.515  12.504   6.582  0.1031  0.2193  0.1622
 1006YOPC   C1B14227   1.713  12.059   5.655  0.1851  0.0376  0.0816
 1006YOPC   C2B14228   1.619  11.734   5.802 -0.2192  0.0543 -0.0160
 1006YOPC   D3B14229   1.346  11.535   6.171  0.0302  0.0738 -0.0243
 1006YOPC   C4B14230   0.958  11.469   6.253 -0.2959 -0.1447  0.0474
 1007YOPC   NC314231  13.227   0.894   5.928 -0.2447  0.2069  0.2368
 1007YOPC   PO414232  13.588   0.727   6.066  0.1813  0.0501 -0.2812
 1007YOPC   GL114233  13.816   0.994   6.353 -0.1896  0.1939  0.3544
 1007YOPC   GL214234  13.613   1.182   6.441 -0.2763  0.0036 -0.1289
 1007YOPC   C1A14235  14.038   1.452   6.477 -0.2431  0.2233  0.1235
 1007YOPC   D2A14236  14.113   1.863   6.710  0.0279  0.0832 -0.1929
 1007YOPC   C3A14237  14.195   1.734   7.172 -0.1203 -0.0386 -0.2378
 1007YOPC   C4A14238  14.109   1.418   7.580  0.0140 -0.0087 -0.4322
 1007YOPC   C1B14239  13.627   0.882   6.775  0.2574 -0.0654 -0.1818
 1007YOPC   C2B14240  13.614   0.828   7.299 -0.0236  0.1122 -0.0183
 1007YOPC   D3B14241  13.732   1.168   7.540 -0.1692 -0.0328 -0.2001
 1007YOPC   C4B14242  13.443   1.313   7.973  0.3537  0.1250 -0.1289
 1008YOPC   NC314243   2.588  18.800   4.860 -0.0759  0.1850 -0.3193
 1008YOPC   PO414244   2.640  18.763   5.309  0.1006  0.1336 -0.0057
 1008YOPC   GL114245   2.521  18.731   5.788 -0.2301 -0.4710 -0.1833
 1008YOPC   GL214246   2.239  18.765   5.853 -0.2658 -0.0697  0.1789
 1008YOPC   C1A14247   2.873  18.850   6.042 -0.0290 -0.0066  0.1589
 1008YOPC   D2A14248   3.055  19.088   6.362  0.1248  0.1557  0.1349
 1008YOPC   C3A14249   2.742  19.201   6.769 -0.1902 -0.1348  0.2958
 1008YOPC   C4A14250   2.628  19.503   7.056 -0.3771  0.1357 -0.1083
 1008YOPC   C1B14251   2.491  18.585   6.248  0.0999 -0.1154  0.1349
 1008YOPC   C2B14252   2.822  18.704   6.528  0.3240  0.0893 -0.2504
 1008YOPC   D3B14253   3.191  18.576   6.406 -0.1692  0.0944 -0.0841
 1008YOPC   C4B14254   3.322  18.250   6.418 -0.1689  0.0459  0.3841
 1009YOPC   NC314255   7.008   0.043   5.860  0.1095 -0.0165  0.1873
 1009YOPC   PO414256   7.279  -0.081   5.556 -0.1875 -0.1064 -0.1657
 1009YOPC   GL114257   7.494  -0.164   5.896  0.0453  0.0387 -0.0948
 1009YOPC   GL214258   7.287  -0.080   6.258 -0.5422  0.0820  0.0435
 1009YOPC   C1A14259   7.825  -0.171   6.170 -0.1721 -0.0046 -0.0618
 1009YOPC   D2A14260   7.898  -0.413   6.577 -0.0499 -0.1552  0.2939
 1009YOPC   C3A14261   8.228  -0.411   6.810  0.1767  0.0732  0.4325
 1009YOPC   C4A14262   8.306  -0.317   7.250  0.1979 -0.0682 -0.3218
 1009YOPC   C1B14263   7.455  -0.170   6.524 -0.1287 -0.2925  0.1143
 1009YOPC   C2B14264   7.764   0.087   6.640  0.0802 -0.1758  0.0556
 1009YOPC   D3B14265   7.960  -0.049   7.031 -0.1555  0.1396 -0.5007
 1009YOPC   C4B14266   7.851  -0.112   7.451  0.0867  0.0263  0.1096
 1010YOPC   NC314267   1.524  16.151   5.023  0.1392 -0.0844 -0.4185
 1010YOPC   PO414268   1.651  15.897   5.326 -0.1972  0.4946 -0.1776
 1010YOPC   GL114269   1.844  15.798   5.743 -0.0540 -0.0755  0.1505
 1010YOPC   GL214270   2.248  15.947   5.776 -0.1158  0.0765  0.1248
 1010YOPC   C1A14271   1.844  15.776   6.113  0.0404  0.1993 -0.0706
 1010YOPC   D2A14272   2.021  15.867   6.546 -0.0136 -0.0070  0.3326
 1010YOPC   C3A14273   1.954  16.075   6.900 -0.1340 -0.0129 -0.1168
 1010YOPC   C4A14274   1.919  15.969   7.357  0.1252 -0.1137 -0.0000
 1010YOPC   C1B14275   2.318  15.748   6.103 -0.3917  0.0759  0.1356
 1010YOPC   C2B14276   2.433  15.479   6.256 -0.1245  0.0375 -0.2055
 1010YOPC   D3B14277   2.278  15.437   6.639 -0.1494 -0.2255 -0.0922
 1010YOPC   C4B14278   1.976  15.501   6.948 -0.0811 -0.1358 -0.5895
 1011YOPC   NC314279  15.012   3.333   5.658 -0.1508  0.0753  0.1527
 1011YOPC   PO414280  14.987   2.870   5.462  0.0267 -0.0602 -0.1584
 1011YOPC   GL114281  14.761   2.984   5.842 -0.4381  0.0832 -0.2089
 1011YOPC   GL214282  14.683   3.289   5.985  0.0901  0.1287 -0.1673
 1011YOPC   C1A14283  14.840   2.818   6.269 -0.2007  0.1731 -0.1360
 1011YOPC   D2A14284  14.962   2.884   6.796 -0.1676  0.1124  0.0112
 1011YOPC   C3A14285  14.785   2.557   7.179  0.2623  0.2764  0.2208
 1011YOPC   C4A14286  14.731   2.490   7.660 -0.0794 -0.1622  0.0237
 1011YOPC   C1B14287  14.969   3.589   6.202 -0.0241 -0.2011  0.0914
 1011YOPC   C2B14288  15.130   3.714   6.600 -0.3642  0.4345  0.0397
 1011YOPC   D3B14289  15.197   4.171   6.651  0.0169  0.0304 -0.0659
 1011YOPC   C4B14290  15.449   4.441   6.726 -0.2145  0.2281  0.0235
 1012YOPC   NC314291   5.586  13.688   5.324 -0.3547  0.0795 -0.1438
 1012YOPC   PO414292   5.656  13.918   5.626 -0.1005 -0.1924 -0.2744
 1012YOPC   GL114293   5.445  13.855   5.981 -0.0663  0.0410 -0.0413
 1012YOPC   GL214294   5.112  13.928   6.002  0.2988  0.1379  0.1111
 1012YOPC   C1A14295   5.265  13.667   6.429 -0.1472 -0.4032 -0.4309
 1012YOPC   D2A14296   5.067  13.470   6.724 -0.1837  0.1798  0.1515
 1012YOPC   C3A14297   4.616  13.515   6.672  0.2769  0.2299 -0.0828
 1012YOPC   C4A14298   4.196  13.439   6.597 -0.1368  0.1418  0.1366
 1012YOPC   C1B14299   4.883  13.948   6.517  0.3034  0.0380  0.0583
 1012YOPC   C2B14300   4.595  14.042   6.871 -0.1912 -0.2140  0.1655
 1012YOPC   D3B14301   4.293  13.996   7.166  0.5510  0.3945  0.0394
 1012YOPC   C4B14302   3.866  13.994   7.329  0.0147  0.1805  0.3687
 1013YOPC   NC314303   6.093   5.764   4.967  0.1010 -0.1036 -0.0255
 1013YOPC   PO414304   6.516   5.873   5.143 -0.2725 -0.0124  0.0900
 1013YOPC   GL114305   6.424   5.815   5.604 -0.0486  0.0040  0.2356
 1013YOPC   GL214306   6.220   5.587   5.494  0.1517  0.2106 -0.4493
 1013YOPC   C1A14307   6.488   5.870   6.084  0.2657 -0.0233 -0.2228
 1013YOPC   D2A14308   6.357   5.900   6.547  0.2466  0.2448  0.0939
 1013YOPC   C3A14309   6.696   6.084   6.825 -0.0118 -0.2303  0.2154
 1013YOPC   C4A14310   6.938   6.300   7.103  0.3721 -0.1609 -0.0939
 1013YOPC   C1B14311   6.181   5.450   6.015 -0.4070  0.1173  0.0556
 1013YOPC   C2B14312   6.278   5.417   6.430  0.0651 -0.0106  0.2968
 1013YOPC   D3B14313   5.938   5.571   6.662 -0.3288 -0.0387 -0.3441
 1013YOPC   C4B14314   5.543   5.560   6.863 -0.2060 -0.0727  0.0054
 1014YOPC   NC314315  11.062  12.126   5.113  0.1303  0.1498 -0.1504
 1014YOPC   PO414316  10.817  11.904   5.484  0.2583 -0.1919 -0.1321
 1014YOPC   GL114317  11.066  11.988   5.956  0.3152 -0.1011 -0.0585
 1014YOPC   GL214318  11.465  12.026   5.961  0.1509 -0.0264 -0.0466
 1014YOPC   C1A14319  11.110  12.070   6.397 -0.0924 -0.4204  0.1264
 1014YOPC   D2A14320  11.322  12.233   6.641  0.2435 -0.1149  0.1148
 1014YOPC   C3A14321  11.184  12.651   6.700 -0.0641  0.1304  0.0070
 1014YOPC   C4A14322  11.466  12.955   6.650 -0.3256 -0.2876  0.0831
 1014YOPC   C1B14323  11.490  11.711   6.225  0.4431 -0.0748  0.0701
 1014YOPC   C2B14324  11.203  11.614   6.598 -0.0171 -0.1941  0.2790
 1014YOPC   D3B14325  11.178  11.841   6.994  0.0606 -0.1606 -0.0864
 1014YOPC   C4B14326  10.916  12.017   7.324  0.1207 -0.1980  0.3220
 1015YOPC   NC314327  15.060   4.541   5.219 -0.0356 -0.3757  0.0449
 1015YOPC   PO414328  14.727   4.335   5.450 -0.1790  0.1866 -0.0726
 1015YOPC   GL114329  14.744   4.666   5.618  0.0236 -0.1101  0.0297
 1015YOPC   GL214330  14.525   4.896   5.678 -0.1765  0.1193  0.1680
 1015YOPC   C1A14331  15.059   4.924   5.885 -0.0868 -0.0404  0.2862
 1015YOPC   D2A14332  14.974   4.972   6.198 -0.1462  0.1178  0.0017
 1015YOPC   C3A14333  15.360   4.942   6.573  0.0208  0.0112 -0.0842
 1015YOPC   C4A14334  15.426   4.975   7.022  0.3524 -0.0301  0.2343
 1015YOPC   C1B14335  14.535   5.074   6.058  0.1767  0.1978  0.1179
 1015YOPC   C2B14336  14.583   5.012   6.501  0.1939 -0.3223  0.3754
 1015YOPC   D3B14337  14.912   5.145   6.649 -0.0383  0.1316 -0.1850
 1015YOPC   C4B14338  15.070   5.308   7.001  0.4795 -0.2765  0.1447
 1016YOPC   NC314339  19.296  10.464   4.950 -0.1208  0.3151 -0.5976
 1016YOPC   PO414340  18.914  10.747   5.016 -0.3011  0.0627  0.0605
 1016YOPC   GL114341  18.904  10.683   5.404  0.2116  0.1884  0.0010
 1016YOPC   GL214342  19.226  10.525   5.526 -0.0145  0.0179  0.0772
 1016YOPC   C1A14343  18.741  10.736   5.729  0.0412  0.2325 -0.0126
 1016YOPC   D2A14344  18.355  11.016   6.037  0.2975 -0.0662 -0.1902
 1016YOPC   C3A14345  18.460  11.292   6.448  0.3725 -0.0866 -0.0102
 1016YOPC   C4A14346  18.693  11.178   6.826 -0.1500  0.3799 -0.0546
 1016YOPC   C1B14347  19.106  10.396   5.932  0.3618 -0.3135  0.4078
 1016YOPC   C2B14348  19.047  10.458   6.315  0.0419 -0.2047 -0.0158
 1016YOPC   D3B14349  18.694  10.468   6.572  0.1143 -0.0970  0.0900
 1016YOPC   C4B14350  18.632  10.720   6.978  0.0468 -0.2007 -0.0442
 1017YOPC   NC314351   3.468   9.728   4.983 -0.1514  0.2320  0.0103
 1017YOPC   PO414352   3.951   9.782   5.015  0.2093 -0.0210 -0.2338
 1017YOPC   GL114353   4.077   9.874   5.438 -0.2018 -0.0564  0.0950
 1017YOPC   GL214354   3.994  10.202   5.480 -0.1976  0.0869 -0.3007
 1017YOPC   C1A14355   4.070   9.857   5.894  0.1505  0.0266  0.0988
 1017YOPC   D2A14356   3.895  10.098   6.121  0.0584  0.0450  0.3026
 1017YOPC   C3A14357   3.706  10.272   6.556  0.1053 -0.1874  0.1127
 1017YOPC   C4A14358   3.318  10.482   6.783  0.1348  0.0945 -0.0370
 1017YOPC   C1B14359   3.580  10.220   5.779  0.1405 -0.3668  0.0855
 1017YOPC   C2B14360   3.321  10.430   6.079  0.0002 -0.0398  0.0288
 1017YOPC   D3B14361   3.187  10.784   6.159 -0.4969  0.3048  0.1075
 1017YOPC   C4B14362   2.916  11.143   6.246  0.0014 -0.2083 -0.0978
 1018YOPC   NC314363  13.029  18.914   6.046  0.2374  0.0014 -0.4154
 1018YOPC   PO414364  13.134  19.244   6.027 -0.2057 -0.0452 -0.2367
 1018YOPC   GL114365  13.338  19.052   6.418  0.1355 -0.0840 -0.0792
 1018YOPC   GL214366  13.380  18.744   6.529 -0.1875 -0.3034  0.2447
 1018YOPC   C1A14367  13.085  18.947   6.868 -0.0812 -0.1661  0.0178
 1018YOPC   D2A14368  13.046  18.662   7.250  0.2104  0.0859 -0.0322
 1018YOPC   C3A14369  12.831  18.853   7.571 -0.2454  0.0615 -0.1020
 1018YOPC   C4A14370  12.772  18.837   8.143  0.0971  0.1774 -0.0771
 1018YOPC   C1B14371  13.489  18.596   7.012 -0.0097 -0.1542 -0.0957
 1018YOPC   C2B14372  13.563  18.710   7.379  0.2489 -0.0109 -0.1175
 1018YOPC   D3B14373  13.518  18.442   7.727  0.0565  0.2915 -0.4404
 1018YOPC   C4B14374  13.354  18.097   7.967 -0.0080  0.1768  0.1489
 1019YOPC   NC314375  15.193  12.372   5.484 -0.1971  0.2732  0.1960
 1019YOPC   PO414376  15.626  12.606   5.500  0.2085  0.5327  0.0107
 1019YOPC   GL114377  15.583  12.237   5.785 -0.4584 -0.1789  0.3746
 1019YOPC   GL214378  15.474  12.004   5.696  0.0667 -0.3954  0.1012
 1019YOPC   C1A14379  15.467  12.146   6.284  0.2024  0.0928 -0.0794
 1019YOPC   D2A14380  15.273  12.051   6.730  0.0022 -0.0711 -0.1000
 1019YOPC   C3A14381  15.302  12.299   7.153  0.0916  0.2128 -0.2288
 1019YOPC   C4A14382  15.435  12.616   7.390 -0.0655  0.1037  0.2635
 1019YOPC   C1B14383  15.722  11.754   5.995  0.0112  0.0057  0.2041
 1019YOPC   C2B14384  15.882  11.790   6.375 -0.1510 -0.3999 -0.0264
 1019YOPC   D3B14385  15.812  12.051   6.788  0.1851 -0.2355 -0.0431
 1019YOPC   C4B14386  15.995  12.333   6.873  0.0952  0.1231  0.2720
 1020YOPC   NC314387   3.411   8.537   5.099  0.3907  0.0137 -0.1975
 1020YOPC   PO414388   3.435   8.918   5.361 -0.0457  0.2346 -0.0134
 1020YOPC   GL114389   3.227   8.972   5.741 -0.3273 -0.3989  0.0616
 1020YOPC   GL214390   3.060   9.285   5.811 -0.1458 -0.3415  0.1677
 1020YOPC   C1A14391   3.391   9.124   6.120  0.2104 -0.1831 -0.3170
 1020YOPC   D2A14392   3.627   9.281   6.571  0.2050 -0.0922 -0.0726
 1020YOPC   C3A14393   3.429   9.342   6.958  0.0150  0.3227  0.2311
 1020YOPC   C4A14394   3.262   9.100   7.259  0.2126 -0.6463 -0.2756
 1020YOPC   C1B14395   2.964   9.288   6.263  0.1845  0.1631 -0.2614
 1020YOPC   C2B14396   3.073   9.139   6.702  0.0726 -0.1825 -0.1839
 1020YOPC   D3B14397   3.356   8.862   6.813  0.1325  0.4262 -0.3693
 1020YOPC   C4B14398   3.727   8.825   6.842  0.1654 -0.0639  0.0175
 1021YOPC   NC314399   6.938  18.902   5.487 -0.3157 -0.2920 -0.1110
 1021YOPC   PO414400   6.651  19.058   5.706  0.3158  0.1199 -0.3966
 1021YOPC   GL114401   6.516  18.982   6.163 -0.1770  0.1197  0.0145
 1021YOPC   GL214402   6.670  19.081   6.334 -0.1900 -0.0548  0.4569
 1021YOPC   C1A14403   6.151  19.037   6.394  0.1408  0.1078 -0.0592
 1021YOPC   D2A14404   5.968  19.096   6.681  0.0317  0.4024  0.4118
 1021YOPC   C3A14405   5.642  19.012   6.682  0.0759  0.2794 -0.0152
 1021YOPC   C4A14406   5.380  19.003   6.343 -0.1682  0.1251 -0.0400
 1021YOPC   C1B14407   6.595  18.843   6.684  0.0160  0.0561  0.0384
 1021YOPC   C2B14408   6.364  18.945   6.968  0.0055  0.1464 -0.1872
 1021YOPC   D3B14409   6.050  18.902   7.215  0.2286  0.0341  0.2905
 1021YOPC   C4B14410   5.662  19.056   7.325  0.1775 -0.0821 -0.0762
 1022YOPC   NC314411   1.080   4.108   5.072 -0.1538  0.0042 -0.2259
 1022YOPC   PO414412   1.148   3.661   5.145 -0.2732  0.2460 -0.0413
 1022YOPC   GL114413   0.995   3.836   5.594  0.3935  0.1244  0.0808
 1022YOPC   GL214414   0.897   4.148   5.590 -0.3228  0.1830  0.1198
 1022YOPC   C1A14415   0.972   3.975   6.121 -0.1010 -0.1221  0.1091
 1022YOPC   D2A14416   0.770   4.185   6.436 -0.0418 -0.1489  0.0486
 1022YOPC   C3A14417   0.378   4.328   6.401  0.0361  0.0007  0.0313
 1022YOPC   C4A14418   0.168   4.493   5.967  0.3586 -0.1834 -0.0342
 1022YOPC   C1B14419   0.776   4.407   5.956 -0.1289  0.0738 -0.0472
 1022YOPC   C2B14420   0.988   4.784   6.239  0.0391  0.0836 -0.2748
 1022YOPC   D3B14421   1.165   4.729   6.622 -0.2339  0.1759 -0.2943
 1022YOPC   C4B14422   1.182   4.670   7.092  0.1478 -0.1826 -0.0447
 1023YOPC   NC314423   5.313   5.913   4.754 -0.0948 -0.3083  0.0060
 1023YOPC   PO414424   5.633   5.729   4.672  0.5190 -0.2874 -0.2250
 1023YOPC   GL114425   5.566   5.535   5.109 -0.1601  0.2353 -0.0382
 1023YOPC   GL214426   5.720   5.628   5.366 -0.4901  0.0993 -0.2717
 1023YOPC   C1A14427   5.379   5.172   5.410 -0.1018  0.1410 -0.0615
 1023YOPC   D2A14428   5.321   5.139   5.754 -0.2477  0.1571  0.0354
 1023YOPC   C3A14429   5.474   5.015   6.000  0.2790  0.1548 -0.1443
 1023YOPC   C4A14430   5.857   5.046   5.964 -0.0002  0.1206  0.2835
 1023YOPC   C1B14431   5.720   5.474   5.769  0.1238 -0.0961  0.1657
 1023YOPC   C2B14432   5.699   5.455   6.234  0.1427  0.1078  0.0363
 1023YOPC   D3B14433   5.677   5.191   6.507  0.1603  0.6559 -0.4128
 1023YOPC   C4B14434   5.615   4.827   6.530 -0.3664  0.0160 -0.0925
 1024YOPC   NC314435  10.057  10.845   4.835  0.2491 -0.0334  0.1471
 1024YOPC   PO414436   9.773  10.818   5.141  0.3519  0.4428 -0.2399
 1024YOPC   GL114437   9.574  10.728   5.553 -0.1501 -0.3940 -0.1231
 1024YOPC   GL214438   9.607  10.415   5.762 -0.0949  0.0633  0.0258
 1024YOPC   C1A14439   9.481  10.834   5.991 -0.1022 -0.2571  0.3828
 1024YOPC   D2A14440   9.103  11.105   6.292 -0.1198 -0.0556 -0.0421
 1024YOPC   C3A14441   9.347  11.213   6.486 -0.1781 -0.2496  0.2244
 1024YOPC   C4A14442   9.551  11.438   6.367  0.0114 -0.0670 -0.0108
 1024YOPC   C1B14443   9.191  10.217   6.020  0.1398 -0.1225 -0.0802
 1024YOPC   C2B14444   9.072   9.966   6.374  0.2529  0.1247  0.0490
 1024YOPC   D3B14445   9.128   9.996   6.864 -0.0417  0.1701 -0.2638
 1024YOPC   C4B14446   9.168   9.943   7.222  0.2333 -0.0745  0.1471
 1025YOPC   NC314447  10.479   8.551   5.099  0.0333  0.1648 -0.1560
 1025YOPC   PO414448  10.618   8.953   5.308 -0.1004 -0.2190 -0.5223
 1025YOPC   GL114449  10.846   8.626   5.500  0.0771 -0.1568  0.2240
 1025YOPC   GL214450  10.694   8.325   5.565 -0.2602 -0.0801 -0.0172
 1025YOPC   C1A14451  10.983   8.662   5.824 -0.2051 -0.1073 -0.2296
 1025YOPC   D2A14452  11.005   8.786   6.212  0.0400  0.0754 -0.1968
 1025YOPC   C3A14453  11.218   8.649   6.509  0.2903  0.0932 -0.2526
 1025YOPC   C4A14454  11.150   8.664   7.005  0.1037 -0.1819 -0.0487
 1025YOPC   C1B14455  10.442   8.263   5.868  0.0928 -0.0247  0.1353
 1025YOPC   C2B14456  10.574   8.164   6.218 -0.1341 -0.0719 -0.0790
 1025YOPC   D3B14457  10.739   8.410   6.470  0.1967 -0.0944 -0.2383
 1025YOPC   C4B14458  10.758   8.651   6.695  0.3261 -0.1487 -0.0311
 1026YOPC   NC314459   7.529   8.992   4.960  0.0917 -0.0772  0.1949
 1026YOPC   PO414460   7.824   9.182   5.234  0.0179  0.2851 -0.1543
 1026YOPC   GL114461   7.824   9.358   5.581  0.1216 -0.0060 -0.2055
 1026YOPC   GL214462   7.627   9.541   5.687  0.0788  0.2358 -0.0392
 1026YOPC   C1A14463   8.021   9.343   5.972  0.0089 -0.0645 -0.0683
 1026YOPC   D2A14464   8.461   9.229   6.053 -0.3967 -0.3269 -0.0255
 1026YOPC   C3A14465   8.613   8.882   6.297  0.2881 -0.2072 -0.1479
 1026YOPC   C4A14466   8.958   8.695   6.535 -0.0274  0.0586 -0.2291
 1026YOPC   C1B14467   7.481   9.384   6.089 -0.2271  0.3735 -0.1207
 1026YOPC   C2B14468   7.350   9.461   6.624 -0.1591 -0.0493  0.0010
 1026YOPC   D3B14469   6.968   9.682   6.869  0.1842  0.1747  0.0605
 1026YOPC   C4B14470   6.689   9.872   6.801  0.0744  0.1546 -0.0430
 1027YOPC   NC314471  12.114  18.686   5.882  0.1002 -0.2148  0.5510
 1027YOPC   PO414472  11.702  18.487   5.896  0.1630 -0.1449 -0.0401
 1027YOPC   GL114473  11.586  18.110   6.169 -0.2386  0.0152  0.3026
 1027YOPC   GL214474  11.788  17.986   5.926 -0.2237 -0.1536 -0.1327
 1027YOPC   C1A14475  11.520  17.814   6.619  0.0110 -0.0877  0.0653
 1027YOPC   D2A14476  11.729  17.678   6.953 -0.0639  0.1631 -0.2734
 1027YOPC   C3A14477  12.129  17.564   6.770  0.2209 -0.3985  0.0672
 1027YOPC   C4A14478  12.498  17.793   6.610 -0.1346 -0.0460  0.0770
 1027YOPC   C1B14479  11.839  17.594   6.138 -0.0488 -0.0737 -0.0539
 1027YOPC   C2B14480  11.715  17.397   6.498 -0.0804 -0.1139 -0.2227
 1027YOPC   D3B14481  11.367  17.276   6.547  0.2327 -0.3438 -0.1711
 1027YOPC   C4B14482  11.199  17.060   6.933  0.0429  0.2588 -0.2493
 1028YOPC   NC314483   8.034   9.637   5.081 -0.0730  0.0485 -0.1392
 1028YOPC   PO414484   8.349   9.241   5.179 -0.0145 -0.2796  0.0551
 1028YOPC   GL114485   8.392   9.520   5.481 -0.1210 -0.2182 -0.0507
 1028YOPC   GL214486   8.094   9.746   5.565 -0.0438 -0.0567 -0.3647
 1028YOPC   C1A14487   8.356   9.698   6.064  0.1126 -0.2833 -0.1141
 1028YOPC   D2A14488   8.394   9.862   6.419 -0.0171 -0.1967  0.0518
 1028YOPC   C3A14489   8.229   9.674   6.769  0.1626 -0.2467 -0.0475
 1028YOPC   C4A14490   8.274   9.589   7.212  0.1807 -0.0829  0.2512
 1028YOPC   C1B14491   8.041  10.009   5.938 -0.0924  0.3309 -0.1275
 1028YOPC   C2B14492   7.775   9.906   6.173 -0.1325  0.3805  0.1351
 1028YOPC   D3B14493   7.880   9.947   6.602  0.1724  0.2374  0.1381
 1028YOPC   C4B14494   7.657  10.265   6.814  0.1406  0.2050 -0.1190
 1029YOPC   NC314495  14.995   6.752   4.937 -0.1460  0.1354 -0.1415
 1029YOPC   PO414496  14.734   6.984   5.136  0.1610  0.0567 -0.2653
 1029YOPC   GL114497  14.702   6.921   5.526  0.2483  0.2762 -0.2287
 1029YOPC   GL214498  14.537   7.154   5.796 -0.2623  0.0505 -0.2195
 1029YOPC   C1A14499  14.745   6.676   5.863  0.0750 -0.0447  0.0297
 1029YOPC   D2A14500  14.732   6.208   5.984  0.0705 -0.0596  0.3431
 1029YOPC   C3A14501  14.881   6.245   6.541  0.2125  0.0174  0.1363
 1029YOPC   C4A14502  15.110   6.103   6.979  0.0911  0.3247 -0.0095
 1029YOPC   C1B14503  14.343   6.820   6.060 -0.1803  0.0830 -0.0429
 1029YOPC   C2B14504  14.471   6.687   6.313  0.0052 -0.1503 -0.0464
 1029YOPC   D3B14505  14.105   6.465   6.546 -0.0788  0.0202 -0.0508
 1029YOPC   C4B14506  14.023   6.218   7.049  0.2119  0.0127  0.0009
 1030YOPC   NC314507  13.874   8.624   5.263 -0.3921  0.2930 -0.1184
 1030YOPC   PO414508  13.469   8.731   5.470  0.1125 -0.4258  0.3980
 1030YOPC   GL114509  13.330   8.491   5.904 -0.4557  0.1248  0.0868
 1030YOPC   GL214510  13.447   8.226   5.901  0.0760  0.1384 -0.0310
 1030YOPC   C1A14511  13.420   8.633   6.316  0.3072  0.0773 -0.1375
 1030YOPC   D2A14512  13.336   8.888   6.791  0.1226  0.1729  0.2031
 1030YOPC   C3A14513  13.639   8.607   7.118 -0.1312  0.0448 -0.0204
 1030YOPC   C4A14514  13.720   8.235   7.310  0.0196  0.5223 -0.3095
 1030YOPC   C1B14515  13.454   8.146   6.286 -0.0338  0.3121 -0.2802
 1030YOPC   C2B14516  13.481   8.267   6.675 -0.2212 -0.0877 -0.1360
 1030YOPC   D3B14517  13.314   8.065   7.053 -0.4458 -0.0726  0.1848
 1030YOPC   C4B14518  13.199   7.921   7.347 -0.1742 -0.1338  0.0974
 1031YOPC   NC314519  13.642  19.192   6.024  0.0333 -0.0785 -0.2750
 1031YOPC   PO414520  13.928  18.826   6.122 -0.2554  0.0532  0.0039
 1031YOPC   GL114521  13.968  18.760   6.492 -0.3564 -0.4383 -0.4458
 1031YOPC   GL214522  14.149  18.486   6.620  0.4187  0.3918 -0.1482
 1031YOPC   C1A14523  13.968  18.731   7.007 -0.0436  0.1707  0.3183
 1031YOPC   D2A14524  14.104  18.669   7.470  0.0056  0.1420 -0.1697
 1031YOPC   C3A14525  14.001  18.975   7.713  0.3299 -0.3853  0.1805
 1031YOPC   C4A14526  13.550  18.963   7.964  0.3787 -0.0127 -0.1088
 1031YOPC   C1B14527  14.379  18.375   6.989  0.1958 -0.0281 -0.0711
 1031YOPC   C2B14528  14.555  18.495   7.365 -0.1293 -0.2565  0.3094
 1031YOPC   D3B14529  14.564  18.146   7.778  0.2196 -0.4045 -0.0571
 1031YOPC   C4B14530  14.436  18.111   8.195  0.0079  0.1286 -0.0127
 1032YOPC   NC314531   5.310  15.671   5.656 -0.5063 -0.0996  0.0941
 1032YOPC   PO414532   5.715  15.943   5.741 -0.1907  0.0839 -0.5377
 1032YOPC   GL114533   5.481  16.105   6.029  0.0353  0.2265  0.0461
 1032YOPC   GL214534   5.315  15.912   6.134 -0.1207  0.2299 -0.1035
 1032YOPC   C1A14535   5.603  16.132   6.461 -0.4208 -0.3496 -0.0777
 1032YOPC   D2A14536   5.322  16.128   6.924  0.2784 -0.0715 -0.0894
 1032YOPC   C3A14537   5.419  16.254   7.294  0.0259  0.2468 -0.0702
 1032YOPC   C4A14538   5.583  16.137   7.727 -0.3470  0.1051  0.2301
 1032YOPC   C1B14539   5.151  15.799   6.533  0.0671  0.2173 -0.0941
 1032YOPC   C2B14540   4.845  15.727   6.776 -0.0198  0.0863  0.0267
 1032YOPC   D3B14541   4.720  15.373   7.078 -0.1680  0.0044 -0.0440
 1032YOPC   C4B14542   4.672  15.478   7.541  0.2140  0.1350  0.1942
 1033YOPC   NC314543  17.127   0.647   5.980  0.3823 -0.2624 -0.0611
 1033YOPC   PO414544  17.000   1.129   5.899 -0.0600  0.2081  0.4327
 1033YOPC   GL114545  17.208   1.067   6.249 -0.1588 -0.1333 -0.2421
 1033YOPC   GL214546  16.937   0.831   6.479  0.0470  0.0797  0.3841
 1033YOPC   C1A14547  17.394   1.092   6.637  0.4771  0.1230  0.2540
 1033YOPC   D2A14548  17.530   1.109   7.035  0.0537 -0.0909 -0.1203
 1033YOPC   C3A14549  17.805   1.438   7.180 -0.0606  0.0285 -0.1113
 1033YOPC   C4A14550  18.168   1.702   7.088 -0.5163 -0.0093  0.4242
 1033YOPC   C1B14551  17.020   0.844   6.923  0.1475  0.1042 -0.0558
 1033YOPC   C2B14552  17.081   0.949   7.339  0.1111 -0.2260  0.1953
 1033YOPC   D3B14553  16.895   0.745   7.662  0.0345  0.2690 -0.2267
 1033YOPC   C4B14554  16.934   0.753   8.152 -0.2607  0.0608 -0.1987
 1034YOPC   NC314555  15.479   8.107   5.116 -0.2511 -0.0818  0.3011
 1034YOPC   PO414556  15.301   8.476   5.501 -0.4445 -0.3497  0.1990
 1034YOPC   GL114557  14.945   8.492   5.671  0.1884  0.0129 -0.0445
 1034YOPC   GL214558  14.735   8.159   5.694 -0.5841  0.0073 -0.1302
 1034YOPC   C1A14559  14.920   8.591   6.177 -0.2475  0.0582  0.0905
 1034YOPC   D2A14560  15.071   8.643   6.559 -0.0229  0.1307 -0.0541
 1034YOPC   C3A14561  15.134   8.561   7.033  0.0029 -0.2095  0.2594
 1034YOPC   C4A14562  14.984   8.772   7.384 -0.0612  0.1856  0.4668
 1034YOPC   C1B14563  14.697   8.186   6.033 -0.3318  0.0171  0.0244
 1034YOPC   C2B14564  14.809   8.238   6.484  0.0305  0.1532  0.2431
 1034YOPC   D3B14565  14.829   7.875   6.673  0.1308 -0.0757 -0.0562
 1034YOPC   C4B14566  15.019   7.647   7.126 -0.1148  0.0170  0.2225
 1035YOPC   NC314567  11.304   5.419   5.136 -0.0215 -0.2635 -0.2770
 1035YOPC   PO414568  11.588   5.836   5.063 -0.0266  0.1171 -0.0013
 1035YOPC   GL114569  11.706   5.580   5.505 -0.3214  0.1021 -0.0735
 1035YOPC   GL214570  12.024   5.584   5.722  0.0631  0.1736 -0.1372
 1035YOPC   C1A14571  11.502   5.501   5.887  0.2722 -0.0708  0.1630
 1035YOPC   D2A14572  11.356   5.695   6.232  0.1403 -0.0615  0.2923
 1035YOPC   C3A14573  11.297   6.225   6.333  0.1373  0.3988 -0.0932
 1035YOPC   C4A14574  11.150   6.253   6.749  0.1703 -0.2509 -0.1143
 1035YOPC   C1B14575  11.873   5.769   6.102 -0.0070 -0.1574 -0.0478
 1035YOPC   C2B14576  11.783   6.149   6.375  0.0342 -0.2711  0.0069
 1035YOPC   D3B14577  11.916   6.158   6.736 -0.2608 -0.0045 -0.3651
 1035YOPC   C4B14578  12.005   5.933   7.008  0.0558  0.1389 -0.0148
 1036YOPC   NC314579   2.783  18.317   5.417  0.0619 -0.1089  0.1618
 1036YOPC   PO414580   2.400  18.265   5.571 -0.3176  0.0347 -0.0181
 1036YOPC   GL114581   2.327  18.207   5.974  0.3312 -0.2407  0.1891
 1036YOPC   GL214582   2.156  17.983   6.107  0.1422  0.4948  0.1132
 1036YOPC   C1A14583   2.201  18.255   6.463  0.1304 -0.0998  0.1714
 1036YOPC   D2A14584   2.300  18.340   6.854 -0.4170  0.1104 -0.0476
 1036YOPC   C3A14585   2.652  18.647   6.989  0.0048 -0.0531  0.3811
 1036YOPC   C4A14586   2.914  18.886   7.211 -0.1925 -0.0041  0.0889
 1036YOPC   C1B14587   2.226  17.746   6.340  0.0668 -0.1968 -0.1940
 1036YOPC   C2B14588   2.312  17.392   6.565 -0.0610  0.0108 -0.3872
 1036YOPC   D3B14589   2.257  17.250   6.938 -0.3602 -0.1627 -0.1088
 1036YOPC   C4B14590   2.360  17.432   7.324  0.0844  0.1078  0.0364
 1037YOPC   NC314591  12.751   9.807   4.727  0.2931 -0.0090 -0.1524
 1037YOPC   PO414592  12.849   9.943   5.103 -0.3841 -0.2686 -0.1165
 1037YOPC   GL114593  12.722   9.890   5.576  0.5071 -0.0549 -0.0402
 1037YOPC   GL214594  12.440   9.793   5.567 -0.1935 -0.1514 -0.1292
 1037YOPC   C1A14595  12.751   9.935   6.020 -0.2910  0.2472  0.1646
 1037YOPC   D2A14596  12.753   9.786   6.376  0.2151 -0.0910  0.1602
 1037YOPC   C3A14597  12.567   9.902   6.589  0.2718  0.3531 -0.3889
 1037YOPC   C4A14598  12.203  10.090   6.682 -0.0598 -0.1289  0.1586
 1037YOPC   C1B14599  12.368   9.557   5.821  0.1434 -0.1966  0.2117
 1037YOPC   C2B14600  12.236   9.240   5.998 -0.1573  0.0066  0.0262
 1037YOPC   D3B14601  11.886   9.261   6.273 -0.2510  0.3884  0.3131
 1037YOPC   C4B14602  11.632   9.456   6.608  0.0362  0.1022 -0.4308
 1038YOPC   NC314603   1.448   9.881   4.593 -0.0664 -0.2298 -0.1296
 1038YOPC   PO414604   1.514   9.943   5.029 -0.3039  0.2151 -0.1909
 1038YOPC   GL114605   1.772   9.910   5.436 -0.2420  0.0348  0.1249
 1038YOPC   GL214606   1.991  10.146   5.275 -0.4295  0.1705 -0.1884
 1038YOPC   C1A14607   1.869  10.162   5.834  0.0460  0.0120 -0.0799
 1038YOPC   D2A14608   2.165  10.396   6.095 -0.0872 -0.1632 -0.0315
 1038YOPC   C3A14609   2.022  10.390   6.511  0.0730 -0.1224  0.1114
 1038YOPC   C4A14610   2.009  10.106   6.797  0.0412 -0.2069 -0.3013
 1038YOPC   C1B14611   2.061  10.476   5.502 -0.4637  0.2876 -0.1125
 1038YOPC   C2B14612   1.775  10.640   5.903  0.0780  0.0832  0.0111
 1038YOPC   D3B14613   1.564  10.348   6.194 -0.2364  0.1050 -0.2130
 1038YOPC   C4B14614   1.622   9.999   6.412  0.1510 -0.1299  0.0115
 1039YOPC   NC314615  17.106   5.493   5.243 -0.1308  0.0443 -0.0008
 1039YOPC   PO414616  16.685   5.286   5.120 -0.1068 -0.1044  0.5108
 1039YOPC   GL114617  16.316   5.382   5.309  0.0778  0.3048 -0.3010
 1039YOPC   GL214618  16.202   5.707   5.333  0.0936  0.0092  0.2730
 1039YOPC   C1A14619  15.915   5.379   5.603 -0.2284  0.1247 -0.0785
 1039YOPC   D2A14620  15.414   5.628   5.730 -0.1590  0.1782  0.2182
 1039YOPC   C3A14621  15.251   5.916   6.001 -0.1161  0.1188 -0.0628
 1039YOPC   C4A14622  15.232   5.964   6.496 -0.5149  0.1851  0.1682
 1039YOPC   C1B14623  16.329   5.629   5.748  0.2802 -0.0362  0.1636
 1039YOPC   C2B14624  16.343   5.872   6.062  0.0294 -0.3409 -0.2792
 1039YOPC   D3B14625  16.688   6.023   6.274 -0.2349  0.0239  0.3153
 1039YOPC   C4B14626  17.031   5.964   6.592  0.3981 -0.1839 -0.0097
 1040YOPC   NC314627   2.114   0.219   4.910  0.1417  0.1459 -0.2171
 1040YOPC   PO414628   2.301   0.285   5.244  0.0484  0.1084  0.1450
 1040YOPC   GL114629   2.112   0.265   5.611 -0.0734 -0.1143  0.1696
 1040YOPC   GL214630   2.185   0.586   5.608 -0.0896  0.1491  0.0246
 1040YOPC   C1A14631   2.237   0.371   6.102  0.0601  0.1978 -0.1516
 1040YOPC   D2A14632   2.192   0.819   6.436 -0.1587 -0.0164  0.0995
 1040YOPC   C3A14633   2.527   0.558   6.776  0.0511 -0.0290 -0.0237
 1040YOPC   C4A14634   2.851   0.637   7.159  0.0781 -0.2626 -0.1026
 1040YOPC   C1B14635   2.370   0.923   5.981  0.0023 -0.2999 -0.2464
 1040YOPC   C2B14636   2.664   1.336   6.078  0.3040 -0.1235  0.2313
 1040YOPC   D3B14637   2.565   1.580   5.912  0.1856  0.0594 -0.2739
 1040YOPC   C4B14638   2.246   1.727   5.599 -0.2797 -0.2742  0.1461
 1041YOPC   NC314639  15.573  17.203   5.758 -0.0493 -0.1131  0.1087
 1041YOPC   PO414640  15.212  16.907   5.787 -0.3460  0.0915 -0.2442
 1041YOPC   GL114641  15.325  16.997   6.197  0.1510 -0.0263  0.0445
 1041YOPC   GL214642  14.946  17.098   6.266 -0.1655  0.1068 -0.1436
 1041YOPC   C1A14643  15.605  17.027   6.457  0.2648  0.2688  0.0535
 1041YOPC   D2A14644  16.021  17.193   6.535 -0.1454  0.0092  0.0789
 1041YOPC   C3A14645  16.299  17.137   7.046  0.1232 -0.1871 -0.1897
 1041YOPC   C4A14646  16.304  16.819   7.459  0.0443 -0.3121 -0.0476
 1041YOPC   C1B14647  15.099  16.818   6.666 -0.0609 -0.3518  0.0846
 1041YOPC   C2B14648  15.086  16.672   6.976  0.1551  0.2309 -0.2947
 1041YOPC   D3B14649  15.430  16.642   7.324 -0.0007 -0.1565  0.2963
 1041YOPC   C4B14650  15.468  16.917   7.720 -0.0150 -0.2101 -0.5927
 1042YOPC   NC314651  11.516  13.609   5.526  0.1138  0.0936  0.0557
 1042YOPC   PO414652  11.111  13.783   5.777  0.1657  0.1244  0.0123
 1042YOPC   GL114653  10.774  13.889   6.153 -0.1904  0.2809  0.0551
 1042YOPC   GL214654  10.713  14.178   6.244  0.0281 -0.2326  0.1566
 1042YOPC   C1A14655  10.769  13.809   6.614  0.1662 -0.0565  0.1486
 1042YOPC   D2A14656  10.763  13.581   7.077 -0.4301  0.0667 -0.0164
 1042YOPC   C3A14657  11.070  13.757   7.455  0.0621  0.1527  0.0419
 1042YOPC   C4A14658  11.222  13.834   7.810  0.0614 -0.0682  0.0378
 1042YOPC   C1B14659  10.811  14.320   6.693  0.1715 -0.0864 -0.0700
 1042YOPC   C2B14660  11.073  14.050   6.974 -0.1973  0.2653  0.4679
 1042YOPC   D3B14661  11.372  14.274   7.207 -0.0105 -0.2148 -0.0907
 1042YOPC   C4B14662  11.502  14.356   7.575  0.1567 -0.1314 -0.0332
 1043YOPC   NC314663  12.869   7.424   5.363  0.4578 -0.1766 -0.2343
 1043YOPC   PO414664  13.107   7.086   5.364  0.0388  0.0001 -0.2319
 1043YOPC   GL114665  13.308   7.342   5.660 -0.1511  0.2868 -0.1133
 1043YOPC   GL214666  13.229   7.150   5.892 -0.1412 -0.0208 -0.2373
 1043YOPC   C1A14667  13.277   7.725   5.921  0.1775  0.3755  0.0211
 1043YOPC   D2A14668  13.037   7.851   6.261  0.3637 -0.0637 -0.1516
 1043YOPC   C3A14669  13.217   7.792   6.609 -0.1831  0.0999  0.1641
 1043YOPC   C4A14670  13.526   7.624   6.922  0.2924 -0.0348  0.0383
 1043YOPC   C1B14671  12.905   7.424   6.144  0.1826  0.1184  0.0225
 1043YOPC   C2B14672  12.835   7.458   6.600 -0.1371 -0.2630 -0.3418
 1043YOPC   D3B14673  13.084   7.316   6.853 -0.0997 -0.0010  0.0091
 1043YOPC   C4B14674  13.169   7.380   7.238 -0.1298 -0.0985 -0.1700
 1044YOPC   NC314675  17.924  15.599   4.753  0.1037 -0.1850  0.3107
 1044YOPC   PO414676  17.901  15.774   5.222 -0.1903  0.2586  0.1128
 1044YOPC   GL114677  17.776  15.622   5.544 -0.0380  0.0337  0.1430
 1044YOPC   GL214678  17.983  15.401   5.750  0.0556  0.1919 -0.2853
 1044YOPC   C1A14679  17.390  15.542   5.849  0.2903 -0.3205  0.1464
 1044YOPC   D2A14680  17.127  15.590   6.200 -0.0236 -0.2528 -0.2982
 1044YOPC   C3A14681  17.425  15.475   6.534  0.2298 -0.1701 -0.0890
 1044YOPC   C4A14682  17.658  15.665   6.857 -0.0409 -0.4200  0.1766
 1044YOPC   C1B14683  18.342  15.497   6.014  0.1840  0.0767 -0.2924
 1044YOPC   C2B14684  18.519  15.520   6.383  0.0066  0.2302  0.1079
 1044YOPC   D3B14685  18.493  15.943   6.536  0.3815  0.1893  0.2255
 1044YOPC   C4B14686  18.447  16.242   6.802 -0.1256 -0.3072  0.0614
 1045YOPC   NC314687  13.862   5.567   5.722 -0.0619  0.1825 -0.5562
 1045YOPC   PO414688  13.534   5.280   5.589  0.0892  0.0567 -0.5605
 1045YOPC   GL114689  13.489   5.540   6.087  0.0218 -0.2224  0.1806
 1045YOPC   GL214690  13.503   5.214   6.142  0.2819 -0.1321 -0.1967
 1045YOPC   C1A14691  13.338   5.602   6.467  0.0683  0.1876 -0.0605
 1045YOPC   D2A14692  13.444   5.641   6.798  0.3419 -0.0458 -0.0300
 1045YOPC   C3A14693  13.164   5.762   7.121  0.0026 -0.2414 -0.3036
 1045YOPC   C4A14694  12.893   5.556   7.408  0.2164  0.0949 -0.1767
 1045YOPC   C1B14695  13.568   5.125   6.491  0.1119 -0.1040 -0.1035
 1045YOPC   C2B14696  13.616   5.241   6.952  0.1614  0.1151 -0.0748
 1045YOPC   D3B14697  13.973   5.298   7.123 -0.3078  0.0919 -0.1610
 1045YOPC   C4B14698  14.168   5.698   7.312 -0.0436  0.0922  0.1459
 1046YOPC   NC314699  13.221   5.927   5.175 -0.0992  0.0076 -0.1897
 1046YOPC   PO414700  13.050   5.999   5.428 -0.1849  0.0306  0.1658
 1046YOPC   GL114701  13.053   6.020   5.943 -0.0224 -0.3357  0.3540
 1046YOPC   GL214702  13.242   6.330   5.998  0.1253 -0.1954 -0.0584
 1046YOPC   C1A14703  13.048   6.207   6.369 -0.1065 -0.1421 -0.4492
 1046YOPC   D2A14704  13.060   6.593   6.588  0.2454 -0.2082 -0.0606
 1046YOPC   C3A14705  13.222   7.041   6.401  0.1998  0.2464 -0.1526
 1046YOPC   C4A14706  13.413   7.440   6.334 -0.2117 -0.1844 -0.0323
 1046YOPC   C1B14707  12.954   6.742   6.113  0.1271  0.2928  0.2060
 1046YOPC   C2B14708  12.750   6.994   6.409 -0.0444  0.1890  0.0198
 1046YOPC   D3B14709  12.746   6.909   6.808  0.0119  0.2543  0.0446
 1046YOPC   C4B14710  12.704   7.182   7.163  0.0471 -0.4732 -0.0516
 1047YOPC   NC314711  18.921   4.100   5.148  0.2067  0.0597 -0.0148
 1047YOPC   PO414712  19.290   3.865   5.006 -0.4232 -0.0888  0.0050
 1047YOPC   GL114713  19.448   3.812   5.391 -0.1934 -0.2647  0.0257
 1047YOPC   GL214714  19.425   4.124   5.574  0.2246 -0.0137 -0.1912
 1047YOPC   C1A14715  19.313   3.666   5.773  0.2228 -0.1524 -0.1098
 1047YOPC   D2A14716  19.310   3.364   6.073 -0.2335 -0.1472  0.1238
 1047YOPC   C3A14717  19.658   3.043   6.246 -0.2588  0.1445  0.0862
 1047YOPC   C4A14718  19.826   2.693   6.491 -0.0967  0.1640 -0.1619
 1047YOPC   C1B14719  19.631   3.947   5.958 -0.0691  0.0737 -0.0363
 1047YOPC   C2B14720  19.492   3.879   6.299 -0.3174  0.0889 -0.0019
 1047YOPC   D3B14721  19.493   3.494   6.591  0.3499 -0.0168 -0.1434
 1047YOPC   C4B14722  19.529   3.143   6.729 -0.0629  0.1721  0.0468
 1048YOPC   NC314723   6.871  16.599   5.543  0.3067 -0.2117 -0.0118
 1048YOPC   PO414724   7.100  16.410   5.861  0.2350 -0.3574  0.0384
 1048YOPC   GL114725   7.050  16.476   6.276 -0.1566  0.1176  0.2171
 1048YOPC   GL214726   7.370  16.533   6.339 -0.0038  0.1731  0.1029
 1048YOPC   C1A14727   6.920  16.461   6.701 -0.1995  0.2345  0.1555
 1048YOPC   D2A14728   7.081  16.724   7.047  0.1064  0.1595 -0.0788
 1048YOPC   C3A14729   7.073  17.140   7.045 -0.4245  0.0939  0.0338
 1048YOPC   C4A14730   7.287  17.561   6.960  0.0043  0.1290  0.0855
 1048YOPC   C1B14731   7.578  16.636   6.645 -0.0131 -0.3282  0.0896
 1048YOPC   C2B14732   7.587  16.582   7.052 -0.0435 -0.0380 -0.0613
 1048YOPC   D3B14733   7.422  16.909   7.328  0.0975 -0.2726  0.1766
 1048YOPC   C4B14734   7.107  16.872   7.639 -0.0451  0.2452  0.1093
 1049YOPC   NC314735   5.614  15.207   5.809  0.2296 -0.0321 -0.0287
 1049YOPC   PO414736   5.038  15.193   5.807 -0.2056  0.0506 -0.2238
 1049YOPC   GL114737   4.803  15.199   6.136  0.0514  0.0051  0.2886
 1049YOPC   GL214738   4.994  14.931   6.219 -0.1651  0.2103 -0.2280
 1049YOPC   C1A14739   4.738  15.216   6.485 -0.0381 -0.4868 -0.0565
 1049YOPC   D2A14740   4.794  14.928   6.814  0.0413 -0.0599 -0.0292
 1049YOPC   C3A14741   4.559  14.897   7.165  0.2269  0.0269  0.2427
 1049YOPC   C4A14742   4.714  14.890   7.541  0.0789 -0.1925 -0.3830
 1049YOPC   C1B14743   5.299  14.714   6.640 -0.0413 -0.0476  0.0972
 1049YOPC   C2B14744   5.633  14.581   6.925  0.0390  0.0999 -0.3912
 1049YOPC   D3B14745   5.677  14.793   7.278  0.4303  0.2777  0.0752
 1049YOPC   C4B14746   5.646  15.134   7.404  0.1107  0.1437 -0.0253
 1050YOPC   NC314747   2.270  17.696   5.582  0.1008 -0.0830  0.2311
 1050YOPC   PO414748   2.245  17.284   5.610  0.3193 -0.2817 -0.0480
 1050YOPC   GL114749   2.193  17.312   6.039  0.0391  0.0995  0.1194
 1050YOPC   GL214750   2.524  17.397   6.082 -0.1373 -0.0103 -0.2883
 1050YOPC   C1A14751   1.896  17.219   6.318 -0.2090  0.2035 -0.1950
 1050YOPC   D2A14752   1.811  17.109   6.762 -0.1152  0.1242  0.0039
 1050YOPC   C3A14753   1.544  17.152   7.070  0.1555 -0.0805 -0.0302
 1050YOPC   C4A14754   1.306  17.348   7.481 -0.2691 -0.1435 -0.2193
 1050YOPC   C1B14755   2.816  17.578   6.401 -0.0728  0.4571 -0.2053
 1050YOPC   C2B14756   3.081  17.417   6.757  0.0768  0.1858  0.1502
 1050YOPC   D3B14757   3.318  17.546   7.125  0.1063 -0.3584  0.4799
 1050YOPC   C4B14758   3.335  17.370   7.566 -0.2512  0.3164  0.1675
 1051YOPC   NC314759   7.061   3.107   4.401  0.2126 -0.1505  0.1621
 1051YOPC   PO414760   6.913   3.487   4.625 -0.0348 -0.0877 -0.2781
 1051YOPC   GL114761   6.910   3.174   4.992 -0.1362  0.3571  0.1645
 1051YOPC   GL214762   6.817   3.248   5.174  0.1181 -0.1994  0.5108
 1051YOPC   C1A14763   7.048   2.973   5.515 -0.1574 -0.0449  0.0404
 1051YOPC   D2A14764   7.336   2.943   5.826 -0.2381 -0.0897 -0.0880
 1051YOPC   C3A14765   7.536   3.311   5.911 -0.0669  0.1469 -0.3028
 1051YOPC   C4A14766   7.917   3.659   5.897 -0.2107  0.0637 -0.0448
 1051YOPC   C1B14767   6.565   3.171   5.552  0.0492  0.0811 -0.1482
 1051YOPC   C2B14768   6.293   2.842   5.657  0.1567 -0.1285 -0.0897
 1051YOPC   D3B14769   5.780   2.883   5.801  0.2709 -0.2381  0.2739
 1051YOPC   C4B14770   5.467   3.018   6.159  0.2048 -0.1801  0.0030
 1052YOPC   NC314771  15.514   9.050   5.133  0.0506 -0.3941  0.0542
 1052YOPC   PO414772  15.606   8.858   5.494 -0.1165 -0.0982  0.1191
 1052YOPC   GL114773  15.322   8.759   5.883  0.1851  0.3193  0.0564
 1052YOPC   GL214774  15.366   8.418   5.973 -0.0480 -0.0976 -0.3647
 1052YOPC   C1A14775  15.566   8.751   6.332 -0.2920 -0.1458  0.1995
 1052YOPC   D2A14776  15.806   8.777   6.710 -0.0731 -0.1277  0.4436
 1052YOPC   C3A14777  15.753   8.417   6.911  0.0562 -0.0622  0.1280
 1052YOPC   C4A14778  15.954   8.349   7.315  0.0020  0.3828 -0.1530
 1052YOPC   C1B14779  15.625   8.207   6.207 -0.0195  0.1175  0.1284
 1052YOPC   C2B14780  15.698   7.889   6.472  0.1083 -0.0316 -0.0628
 1052YOPC   D3B14781  15.788   7.962   6.878  0.0283 -0.1468  0.1843
 1052YOPC   C4B14782  15.511   8.071   7.242 -0.1021  0.2159 -0.0021
 1053YOPC   NC314783  18.715  14.701   5.167 -0.1762  0.1915 -0.1089
 1053YOPC   PO414784  18.748  15.086   5.253  0.3335 -0.2493  0.1010
 1053YOPC   GL114785  18.677  15.123   5.689 -0.3254 -0.0135 -0.2670
 1053YOPC   GL214786  18.752  15.393   5.770 -0.1952  0.3647  0.0409
 1053YOPC   C1A14787  18.857  14.919   5.991  0.0294  0.1602  0.0107
 1053YOPC   D2A14788  18.787  14.917   6.443 -0.0763  0.2325 -0.0095
 1053YOPC   C3A14789  18.667  14.457   6.585 -0.0966 -0.1639 -0.1507
 1053YOPC   C4A14790  18.343  14.340   6.245  0.0937 -0.2207  0.0171
 1053YOPC   C1B14791  18.957  15.338   6.197 -0.3078  0.0770 -0.3107
 1053YOPC   C2B14792  19.194  15.174   6.476 -0.1478  0.0641 -0.0601
 1053YOPC   D3B14793  19.069  15.231   6.902 -0.0003 -0.1319  0.5622
 1053YOPC   C4B14794  18.823  15.271   7.239  0.1263 -0.2672 -0.0826
 1054YOPC   NC314795   2.060   4.554   4.823 -0.3990 -0.2976 -0.0791
 1054YOPC   PO414796   1.748   4.891   5.014 -0.0621  0.4363  0.1274
 1054YOPC   GL114797   1.798   4.588   5.312  0.3189 -0.1016 -0.2966
 1054YOPC   GL214798   1.912   4.259   5.191 -0.1577 -0.0670  0.3132
 1054YOPC   C1A14799   1.664   4.619   5.733  0.3154 -0.0069  0.2923
 1054YOPC   D2A14800   1.714   4.473   6.240 -0.0827  0.1410 -0.1394
 1054YOPC   C3A14801   2.091   4.608   6.397  0.1841  0.3293 -0.1317
 1054YOPC   C4A14802   2.154   4.539   6.823  0.2145 -0.3850 -0.1177
 1054YOPC   C1B14803   1.916   4.156   5.598  0.1820 -0.3416  0.1626
 1054YOPC   C2B14804   1.965   4.267   5.899 -0.1369 -0.0208 -0.2212
 1054YOPC   D3B14805   2.125   4.080   6.252  0.2080  0.1773 -0.0790
 1054YOPC   C4B14806   1.849   3.964   6.639 -0.2445  0.1812 -0.1799
 1055YOPC   NC314807  18.325  19.128   5.458 -0.1157  0.4295 -0.4071
 1055YOPC   PO414808  17.957  19.156   5.621  0.1306 -0.2013  0.2714
 1055YOPC   GL114809  18.101  19.057   5.988  0.3281  0.1597  0.2098
 1055YOPC   GL214810  18.278  18.960   6.070  0.2349  0.1106  0.0554
 1055YOPC   C1A14811  18.088  19.359   6.313  0.1422 -0.1067  0.1372
 1055YOPC   D2A14812  17.901  19.559   6.648 -0.0067  0.0370 -0.2075
 1055YOPC   C3A14813  17.986  19.552   7.020  0.2406 -0.1151  0.1742
 1055YOPC   C4A14814  18.139  19.912   7.212 -0.1806  0.1769 -0.1269
 1055YOPC   C1B14815  18.482  18.672   6.420  0.2560 -0.1187  0.2032
 1055YOPC   C2B14816  18.624  18.683   6.776  0.0472  0.0035  0.3065
 1055YOPC   D3B14817  18.895  19.044   6.825 -0.0428  0.5409  0.0417
 1055YOPC   C4B14818  19.079  19.441   6.817 -0.2093  0.0511 -0.0698
 1056YOPC   NC314819  12.711  11.418   4.995 -0.2537  0.1406 -0.1186
 1056YOPC   PO414820  12.604  11.346   5.410  0.1066  0.1590  0.1248
 1056YOPC   GL114821  12.484  11.235   5.782  0.0548 -0.0021  0.0669
 1056YOPC   GL214822  12.288  11.285   5.925 -0.2795 -0.0704  0.0884
 1056YOPC   C1A14823  12.748  11.320   6.178  0.0390  0.1195  0.2112
 1056YOPC   D2A14824  13.025  11.192   6.367  0.1344 -0.1175  0.1526
 1056YOPC   C3A14825  13.142  11.339   6.739  0.0075  0.2076  0.0747
 1056YOPC   C4A14826  13.313  11.735   6.917 -0.0753  0.1558  0.2167
 1056YOPC   C1B14827  12.270  11.231   6.412 -0.1933 -0.1834 -0.2402
 1056YOPC   C2B14828  12.585  11.327   6.647 -0.2024  0.1502 -0.1336
 1056YOPC   D3B14829  12.337  11.285   6.940  0.0490  0.0880  0.1272
 1056YOPC   C4B14830  12.286  11.470   7.411  0.0244 -0.0820  0.0129
 1057YOPC   NC314831  10.410   4.590   5.252 -0.2543 -0.1299  0.0858
 1057YOPC   PO414832  10.398   5.083   5.162 -0.1173 -0.0299 -0.2664
 1057YOPC   GL114833  10.579   5.370   5.387  0.0238  0.3133  0.1629
 1057YOPC   GL214834  10.838   5.532   5.459  0.2891 -0.4099 -0.0186
 1057YOPC   C1A14835  10.603   5.345   5.826 -0.0305 -0.1467  0.0086
 1057YOPC   D2A14836  10.352   5.137   6.142 -0.0614 -0.0419  0.4025
 1057YOPC   C3A14837  10.457   5.383   6.489  0.2028 -0.1777 -0.1349
 1057YOPC   C4A14838  10.550   5.754   6.822 -0.0154  0.3199 -0.3005
 1057YOPC   C1B14839  10.957   5.663   5.902 -0.5002 -0.1382 -0.2087
 1057YOPC   C2B14840  10.800   5.769   6.362 -0.1357  0.0309  0.0019
 1057YOPC   D3B14841  10.661   6.109   6.470 -0.0621 -0.0344 -0.1992
 1057YOPC   C4B14842  10.843   6.491   6.442 -0.1020  0.2007  0.0111
 1058YOPC   NC314843  14.820  16.676   5.741  0.1405 -0.2511  0.1771
 1058YOPC   PO414844  14.640  16.305   5.959  0.0224 -0.2408 -0.0952
 1058YOPC   GL114845  14.461  16.286   6.346 -0.3696  0.3083 -0.1445
 1058YOPC   GL214846  14.399  15.906   6.470  0.1554  0.0312  0.1101
 1058YOPC   C1A14847  14.654  16.402   6.686 -0.3043  0.1718 -0.1258
 1058YOPC   D2A14848  14.488  16.192   7.071 -0.2093  0.0816 -0.1155
 1058YOPC   C3A14849  14.061  16.166   7.181 -0.0891  0.2881 -0.2064
 1058YOPC   C4A14850  13.652  15.958   7.481  0.2818  0.0377  0.2151
 1058YOPC   C1B14851  14.313  15.729   6.949 -0.3752 -0.1066  0.3102
 1058YOPC   C2B14852  14.461  15.390   7.274  0.1978 -0.2528 -0.0792
 1058YOPC   D3B14853  14.411  15.408   7.608  0.0789 -0.1177 -0.2308
 1058YOPC   C4B14854  14.490  15.716   7.952  0.2858 -0.0522  0.0702
 1059YOPC   NC314855  15.059  14.911   5.537  0.2077  0.0707  0.0317
 1059YOPC   PO414856  15.076  15.313   5.496 -0.0435 -0.0204 -0.2171
 1059YOPC   GL114857  15.201  15.351   5.980  0.2622  0.0346  0.3637
 1059YOPC   GL214858  15.305  15.092   5.977 -0.0482  0.0098  0.3282
 1059YOPC   C1A14859  15.127  15.381   6.398 -0.2725  0.0433  0.2465
 1059YOPC   D2A14860  15.233  15.260   6.793  0.1004  0.2304  0.0693
 1059YOPC   C3A14861  15.651  15.227   6.921  0.2859 -0.0687  0.3568
 1059YOPC   C4A14862  16.141  15.206   7.098  0.1696 -0.0947  0.0709
 1059YOPC   C1B14863  15.350  14.935   6.391 -0.1465  0.2220 -0.2821
 1059YOPC   C2B14864  15.310  14.791   6.796  0.0304  0.0599  0.0082
 1059YOPC   D3B14865  15.332  14.911   7.186 -0.0549 -0.0461  0.1234
 1059YOPC   C4B14866  15.153  15.313   7.341  0.1297  0.2335 -0.0433
 1060YOPC   NC314867   1.778   2.936   5.023  0.3277  0.1052  0.1331
 1060YOPC   PO414868   1.969   3.254   4.860 -0.0816  0.1519  0.3444
 1060YOPC   GL114869   1.993   3.249   5.277  0.0870 -0.0392  0.0491
 1060YOPC   GL214870   1.743   3.020   5.473 -0.0392 -0.0624 -0.1427
 1060YOPC   C1A14871   2.091   3.578   5.562  0.0117  0.0001 -0.2531
 1060YOPC   D2A14872   2.007   3.610   5.957  0.2553 -0.3853  0.1220
 1060YOPC   C3A14873   2.207   3.609   6.308  0.0977  0.5195 -0.1275
 1060YOPC   C4A14874   2.295   3.680   6.694  0.1143 -0.1300  0.1160
 1060YOPC   C1B14875   1.583   3.334   5.665 -0.3661  0.3050  0.1128
 1060YOPC   C2B14876   1.447   3.215   6.035  0.3734 -0.1600  0.1632
 1060YOPC   D3B14877   1.416   3.193   6.458 -0.8413  0.0996 -0.1639
 1060YOPC   C4B14878   1.051   3.253   6.774  0.1523 -0.2471 -0.0233
 1061YOPC   NC314879  12.258  11.720   5.672  0.1046 -0.0671 -0.1822
 1061YOPC   PO414880  12.448  12.083   5.749  0.2986 -0.1294  0.0770
 1061YOPC   GL114881  12.311  12.234   6.113  0.0750 -0.5946 -0.1121
 1061YOPC   GL214882  12.002  12.145   6.107  0.0075  0.3933  0.1052
 1061YOPC   C1A14883  12.226  12.324   6.554  0.0616 -0.0372 -0.2660
 1061YOPC   D2A14884  12.120  12.401   6.990 -0.2282  0.0459  0.2709
 1061YOPC   C3A14885  12.002  12.091   7.377 -0.4790  0.0059 -0.2526
 1061YOPC   C4A14886  12.043  11.904   7.728 -0.1789  0.0390  0.0081
 1061YOPC   C1B14887  11.792  12.034   6.427  0.0363  0.2009 -0.0641
 1061YOPC   C2B14888  11.761  12.040   6.865  0.1554 -0.0281 -0.1883
 1061YOPC   D3B14889  11.625  11.823   7.185 -0.0049 -0.0608  0.0062
 1061YOPC   C4B14890  11.763  11.532   7.523  0.2924  0.1945 -0.1021
 1062YOPC   NC314891   0.529   1.906   5.112  0.0790 -0.0538 -0.0531
 1062YOPC   PO414892   0.116   1.725   5.070 -0.1323 -0.1557 -0.1566
 1062YOPC   GL114893   0.319   1.684   5.480 -0.1347 -0.4225  0.0258
 1062YOPC   GL214894   0.232   1.797   5.829  0.0723  0.2346  0.1008
 1062YOPC   C1A14895   0.656   1.531   5.785 -0.2339  0.0532  0.1521
 1062YOPC   D2A14896   0.865   1.218   6.063  0.2829 -0.1321 -0.0247
 1062YOPC   C3A14897   1.183   1.435   6.200  0.1160  0.0625 -0.0361
 1062YOPC   C4A14898   1.593   1.518   6.431 -0.1831  0.7303 -0.0632
 1062YOPC   C1B14899   0.415   1.831   6.185 -0.1375  0.0455  0.3654
 1062YOPC   C2B14900   0.857   1.747   6.436 -0.0960 -0.1384 -0.0906
 1062YOPC   D3B14901   1.114   1.565   6.731 -0.0519  0.1372 -0.1663
 1062YOPC   C4B14902   1.539   1.756   6.918 -0.0230  0.2170  0.0685
 1063YOPC   NC314903  15.299   2.199   5.741 -0.2630 -0.0263 -0.0388
 1063YOPC   PO414904  15.744   2.150   5.603 -0.2997 -0.4094 -0.1965
 1063YOPC   GL114905  15.728   2.356   6.114 -0.0470 -0.0611  0.1528
 1063YOPC   GL214906  15.383   2.590   6.167 -0.0054 -0.2519 -0.1178
 1063YOPC   C1A14907  15.863   2.460   6.527 -0.2273 -0.0122 -0.0418
 1063YOPC   D2A14908  15.982   2.464   6.945 -0.0458 -0.1571  0.1721
 1063YOPC   C3A14909  16.327   2.694   7.072 -0.4022 -0.0396 -0.0417
 1063YOPC   C4A14910  16.658   2.865   7.340  0.1194  0.0242 -0.1257
 1063YOPC   C1B14911  15.440   2.499   6.633  0.0077  0.0075 -0.4473
 1063YOPC   C2B14912  15.310   2.631   7.042 -0.1006 -0.3413  0.3585
 1063YOPC   D3B14913  15.253   2.465   7.367 -0.0730  0.1517 -0.2955
 1063YOPC   C4B14914  15.302   2.645   7.740 -0.2206 -0.0451 -0.0318
 1064YOPC   NC314915   5.004   0.001   5.032 -0.1116 -0.5130  0.0069
 1064YOPC   PO414916   5.277  -0.226   5.462  0.0023 -0.0319 -0.2276
 1064YOPC   GL114917   5.571  -0.119   5.764  0.0619 -0.3578 -0.0451
 1064YOPC   GL214918   5.305   0.157   5.817 -0.0174 -0.2730 -0.1547
 1064YOPC   C1A14919   5.749  -0.073   6.170 -0.1390 -0.5119 -0.1313
 1064YOPC   D2A14920   5.644   0.138   6.629  0.2115 -0.1928  0.0959
 1064YOPC   C3A14921   5.820   0.061   7.042  0.4144 -0.0597  0.0864
 1064YOPC   C4A14922   6.149   0.062   7.308  0.1244 -0.0043  0.4833
 1064YOPC   C1B14923   5.280   0.149   6.219  0.2321 -0.0070  0.0776
 1064YOPC   C2B14924   5.150   0.003   6.593  0.0092 -0.1018 -0.0542
 1064YOPC   D3B14925   5.288   0.029   6.948  0.4333 -0.2799 -0.0672
 1064YOPC   C4B14926   5.251  -0.001   7.381 -0.1692  0.0662  0.0844
 1065YOPC   NC314927   8.972  17.318   5.650 -0.0633 -0.0128 -0.0929
 1065YOPC   PO414928   8.785  16.959   5.727  0.0404 -0.2918 -0.0503
 1065YOPC   GL114929   8.674  16.937   6.146  0.1231 -0.1207 -0.1316
 1065YOPC   GL214930   8.837  17.151   6.344 -0.0044  0.2861  0.0247
 1065YOPC   C1A14931   8.547  16.697   6.507  0.0142  0.0695  0.2613
 1065YOPC   D2A14932   8.434  16.738   6.882 -0.0483  0.0353 -0.2824
 1065YOPC   C3A14933   8.757  16.891   7.232  0.3001 -0.2159  0.0866
 1065YOPC   C4A14934   8.582  17.080   7.629  0.2046 -0.0416 -0.3045
 1065YOPC   C1B14935   8.862  17.012   6.789  0.1040 -0.2090  0.2328
 1065YOPC   C2B14936   9.236  16.957   6.984 -0.0421 -0.4099  0.3063
 1065YOPC   D3B14937   9.157  17.146   7.380  0.2212 -0.0049  0.1653
 1065YOPC   C4B14938   9.057  17.321   7.688 -0.2156  0.2218 -0.0409
 1066YOPC   NC314939   9.278  11.969   5.535  0.1568 -0.0508 -0.1894
 1066YOPC   PO414940   9.556  11.715   5.706 -0.2668 -0.0236 -0.1845
 1066YOPC   GL114941   9.581  12.017   5.953 -0.0340  0.0425  0.3677
 1066YOPC   GL214942   9.834  11.965   6.204 -0.2283 -0.2758  0.3862
 1066YOPC   C1A14943   9.383  12.156   6.362 -0.0821  0.5373 -0.2001
 1066YOPC   D2A14944   9.269  12.356   6.794  0.0128  0.3330  0.2463
 1066YOPC   C3A14945   9.266  12.042   7.093  0.1292 -0.2848  0.1854
 1066YOPC   C4A14946   9.376  11.764   7.449 -0.2462 -0.2955 -0.0668
 1066YOPC   C1B14947   9.720  11.811   6.622  0.1124 -0.2193  0.0403
 1066YOPC   C2B14948   9.585  11.480   6.896  0.0965 -0.0015  0.1267
 1066YOPC   D3B14949   9.654  11.339   7.284  0.3604  0.1728  0.4185
 1066YOPC   C4B14950   9.517  11.409   7.778 -0.0399 -0.0434 -0.0289
 1067YOPC   NC314951  17.232   7.346   5.218  0.1569  0.4313  0.0197
 1067YOPC   PO414952  17.292   7.488   4.859  0.1293  0.0943  0.0136
 1067YOPC   GL114953  17.478   7.778   5.208  0.2827 -0.3477 -0.1497
 1067YOPC   GL214954  17.737   7.959   5.434 -0.2236 -0.1490  0.0219
 1067YOPC   C1A14955  17.257   8.176   5.284  0.0471  0.0269  0.0794
 1067YOPC   D2A14956  17.411   8.333   5.706  0.0460 -0.2978  0.1681
 1067YOPC   C3A14957  17.457   8.205   6.152  0.1262 -0.2491 -0.1968
 1067YOPC   C4A14958  17.598   8.152   6.557 -0.0889 -0.2954  0.0259
 1067YOPC   C1B14959  17.889   8.311   5.684  0.1572 -0.1322 -0.0614
 1067YOPC   C2B14960  18.149   8.144   6.129 -0.1557 -0.5869  0.1955
 1067YOPC   D3B14961  18.104   8.452   6.436 -0.2000 -0.0914  0.1855
 1067YOPC   C4B14962  18.232   8.313   6.844  0.3427 -0.1315  0.0662
 1068YOPC   NC314963   1.883  16.984   5.354 -0.2377 -0.0550  0.0963
 1068YOPC   PO414964   2.211  16.662   5.343 -0.3322 -0.1819 -0.2861
 1068YOPC   GL114965   2.041  16.746   5.766  0.1497 -0.0130 -0.1204
 1068YOPC   GL214966   1.910  16.434   5.848  0.0355  0.0860 -0.1767
 1068YOPC   C1A14967   2.206  16.756   6.210 -0.2099 -0.0395  0.1411
 1068YOPC   D2A14968   2.390  16.726   6.573 -0.3369  0.1397 -0.1227
 1068YOPC   C3A14969   2.092  16.549   6.770 -0.0489 -0.1344  0.1129
 1068YOPC   C4A14970   1.776  16.543   7.024 -0.1691 -0.1161  0.2350
 1068YOPC   C1B14971   1.436  16.404   6.056 -0.2014 -0.1840 -0.0157
 1068YOPC   C2B14972   0.967  16.582   6.007  0.3186  0.0260 -0.0758
 1068YOPC   D3B14973   1.047  17.052   6.021 -0.0217  0.2828  0.0172
 1068YOPC   C4B14974   1.041  17.114   6.418 -0.0369 -0.0368 -0.1057
 1069YOPC   NC314975  10.167  17.474   5.940  0.0150 -0.1544 -0.0065
 1069YOPC   PO414976  10.523  17.359   6.017  0.0356 -0.0040 -0.4362
 1069YOPC   GL114977  10.446  17.327   6.443  0.0477 -0.1093 -0.0464
 1069YOPC   GL214978  10.120  17.262   6.425  0.0072 -0.0279  0.0635
 1069YOPC   C1A14979  10.425  17.578   6.862  0.1385  0.0027  0.0359
 1069YOPC   D2A14980  10.355  17.641   7.358  0.0383  0.2118 -0.0730
 1069YOPC   C3A14981  10.260  18.052   7.468 -0.1274 -0.0925 -0.0171
 1069YOPC   C4A14982  10.086  18.392   7.751  0.3280 -0.0104  0.0872
 1069YOPC   C1B14983   9.867  17.389   6.720 -0.4982 -0.2287  0.0081
 1069YOPC   C2B14984   9.615  17.257   6.957  0.1332 -0.0300 -0.1229
 1069YOPC   D3B14985   9.772  16.895   7.191 -0.1373 -0.1450  0.2596
 1069YOPC   C4B14986   9.931  16.661   7.469 -0.1707  0.2875  0.2402
 1070YOPC   NC314987   9.534   9.726   4.826 -0.2489 -0.0923  0.3047
 1070YOPC   PO414988   9.478   9.685   5.238  0.0473  0.1552  0.3401
 1070YOPC   GL114989   9.440   9.483   5.554  0.0008  0.2716  0.0990
 1070YOPC   GL214990   9.214   9.396   5.800  0.2470 -0.2293 -0.2619
 1070YOPC   C1A14991   9.767   9.443   5.868  0.1096  0.3687  0.0566
 1070YOPC   D2A14992   9.820   9.483   6.216  0.1977 -0.2794  0.2952
 1070YOPC   C3A14993   9.828   9.452   6.571  0.1456  0.1246 -0.0913
 1070YOPC   C4A14994   9.994   9.470   6.906  0.2003 -0.1678  0.0876
 1070YOPC   C1B14995   9.315   9.599   6.176 -0.0422 -0.0211  0.1159
 1070YOPC   C2B14996   9.298   9.571   6.635  0.3647  0.2023  0.1413
 1070YOPC   D3B14997   9.543   9.636   6.971 -0.1522  0.2613 -0.5528
 1070YOPC   C4B14998   9.564   9.758   7.425  0.1586 -0.0214 -0.0298
 1071YOPC   NC314999  14.729  13.064   5.451 -0.0961  0.0746  0.4019
 1071YOPC   PO415000  14.874  12.773   5.644 -0.1923  0.3099 -0.3731
 1071YOPC   GL115001  15.267  12.767   5.837  0.0741 -0.2162  0.1750
 1071YOPC   GL215002  15.443  12.969   5.813  0.1138 -0.0009 -0.2085
 1071YOPC   C1A15003  15.434  12.695   6.234 -0.1543 -0.0059  0.0410
 1071YOPC   D2A15004  15.567  12.458   6.699  0.3846 -0.2642  0.1252
 1071YOPC   C3A15005  15.705  12.671   7.023  0.0403 -0.2430 -0.1619
 1071YOPC   C4A15006  15.980  13.039   7.097 -0.2926  0.1200 -0.3200
 1071YOPC   C1B15007  15.809  13.001   6.027 -0.3098 -0.0245 -0.3894
 1071YOPC   C2B15008  16.243  13.027   6.236 -0.1503  0.1229 -0.4891
 1071YOPC   D3B15009  16.284  12.949   6.573 -0.0446 -0.2409 -0.0615
 1071YOPC   C4B15010  16.410  12.718   6.836 -0.0319 -0.1983 -0.1427
 1072YOPC   NC315011   1.581  18.245   5.196 -0.2543  0.1046 -0.2558
 1072YOPC   PO415012   1.870  17.979   5.484 -0.3943  0.0121  0.0003
 1072YOPC   GL115013   1.909  18.233   5.745 -0.1600 -0.0342 -0.5482
 1072YOPC   GL215014   1.835  18.482   5.639  0.1168 -0.1109 -0.2518
 1072YOPC   C1A15015   1.861  18.518   6.177  0.0762  0.1989 -0.2368
 1072YOPC   D2A15016   1.737  18.405   6.584 -0.0737  0.1499 -0.2204
 1072YOPC   C3A15017   1.994  18.724   6.856  0.5516 -0.0773  0.0657
 1072YOPC   C4A15018   2.297  19.023   6.980 -0.3102 -0.0307 -0.2805
 1072YOPC   C1B15019   1.604  18.791   5.833  0.0814  0.3821 -0.1091
 1072YOPC   C2B15020   1.562  18.998   6.154 -0.2834  0.0348 -0.2516
 1072YOPC   D3B15021   1.866  18.981   6.386 -0.0155  0.1557  0.1151
 1072YOPC   C4B15022   2.298  18.933   6.488  0.2580  0.0614 -0.1988
 1073YOPC   NC315023  16.069  13.884   5.088  0.0991 -0.1846  0.4087
 1073YOPC   PO415024  16.091  14.195   5.476  0.2549 -0.0765 -0.3362
 1073YOPC   GL115025  16.394  14.212   5.718  0.2230 -0.1131 -0.0071
 1073YOPC   GL215026  16.541  14.507   5.723  0.1344 -0.2427  0.1641
 1073YOPC   C1A15027  16.505  13.821   5.928  0.1022  0.2014  0.3621
 1073YOPC   D2A15028  16.983  13.719   6.205  0.0015 -0.0882  0.1093
 1073YOPC   C3A15029  17.233  14.074   6.241 -0.0870 -0.0251  0.1911
 1073YOPC   C4A15030  17.248  14.203   6.629  0.0256 -0.0683 -0.1472
 1073YOPC   C1B15031  16.539  14.721   6.103 -0.1655  0.2450 -0.2331
 1073YOPC   C2B15032  16.908  14.791   6.425  0.0033 -0.0376 -0.1356
 1073YOPC   D3B15033  17.091  15.036   6.702 -0.0580  0.0985  0.1339
 1073YOPC   C4B15034  17.436  15.049   7.012 -0.1010  0.0914 -0.2892
 1074YOPC   NC315035  18.568   9.831   5.295 -0.0140  0.2500  0.1359
 1074YOPC   PO415036  18.204   9.743   5.518 -0.1139  0.1640 -0.2127
 1074YOPC   GL115037  18.294  10.168   5.669 -0.1611  0.1559  0.2821
 1074YOPC   GL215038  18.320  10.406   5.462 -0.0935  0.0477 -0.0819
 1074YOPC   C1A15039  18.582  10.174   6.047  0.0692 -0.3925  0.2886
 1074YOPC   D2A15040  18.850   9.906   6.236 -0.1324 -0.1407 -0.1381
 1074YOPC   C3A15041  18.708   9.606   6.435 -0.3305  0.2410  0.1842
 1074YOPC   C4A15042  18.560   9.242   6.341  0.0256  0.0501 -0.2568
 1074YOPC   C1B15043  18.150  10.679   5.755  0.3913 -0.1242  0.0430
 1074YOPC   C2B15044  17.897  11.159   5.686  0.1288 -0.3574  0.0956
 1074YOPC   D3B15045  18.088  11.458   5.882  0.1654 -0.4350  0.3695
 1074YOPC   C4B15046  18.573  11.789   5.961 -0.2229 -0.2511  0.1356
 1075YOPC   NC315047  11.755   7.770   5.019 -0.1320  0.1056  0.0213
 1075YOPC   PO415048  12.069   7.351   5.039  0.0955 -0.2255 -0.1119
 1075YOPC   GL115049  12.090   7.185   5.470  0.3251 -0.0185  0.1233
 1075YOPC   GL215050  11.732   7.290   5.617 -0.1112  0.0532  0.0564
 1075YOPC   C1A15051  12.064   7.438   5.995 -0.4345  0.3093 -0.0582
 1075YOPC   D2A15052  12.157   7.826   6.261  0.0315 -0.1209  0.2765
 1075YOPC   C3A15053  12.549   7.862   6.433 -0.1638  0.1108  0.1775
 1075YOPC   C4A15054  12.711   7.837   6.805  0.0824 -0.0508  0.0655
 1075YOPC   C1B15055  11.560   7.473   6.023  0.1918 -0.0290  0.0310
 1075YOPC   C2B15056  11.543   7.607   6.521  0.2680  0.1225  0.0100
 1075YOPC   D3B15057  11.762   7.821   6.606  0.1341  0.1610  0.0463
 1075YOPC   C4B15058  12.213   7.933   6.781 -0.0377 -0.0073  0.0419
 1076YOPC   NC315059  17.706  11.826   4.191  0.0606  0.0014 -0.0113
 1076YOPC   PO415060  17.630  11.573   4.531 -0.0594  0.0033  0.1170
 1076YOPC   GL115061  17.880  11.598   4.900 -0.0342 -0.2124 -0.1198
 1076YOPC   GL215062  18.280  11.610   4.961 -0.1128  0.0055  0.1038
 1076YOPC   C1A15063  17.834  11.599   5.352 -0.0519 -0.4596 -0.0888
 1076YOPC   D2A15064  18.107  11.830   5.505 -0.0234 -0.0604  0.1596
 1076YOPC   C3A15065  18.196  12.369   5.602 -0.1440 -0.0225  0.1624
 1076YOPC   C4A15066  18.183  12.552   5.983  0.1022 -0.0491  0.1530
 1076YOPC   C1B15067  18.293  11.373   5.346 -0.4407  0.3430 -0.0138
 1076YOPC   C2B15068  18.690  11.256   5.611  0.1912  0.0909 -0.1768
 1076YOPC   D3B15069  18.723  11.340   6.011  0.1488 -0.0913 -0.0243
 1076YOPC   C4B15070  19.007  11.536   6.354  0.0049 -0.0112 -0.3545
 1077YOPC   NC315071  10.276   7.985   4.881 -0.2369 -0.1977 -0.0186
 1077YOPC   PO415072  10.506   8.077   5.182 -0.2393 -0.1271  0.0837
 1077YOPC   GL115073  10.227   7.976   5.542 -0.2404 -0.0513  0.1180
 1077YOPC   GL215074  10.400   7.847   5.625 -0.2309 -0.3051 -0.0296
 1077YOPC   C1A15075  10.041   7.995   5.970 -0.1286 -0.1815  0.1240
 1077YOPC   D2A15076  10.075   8.058   6.388  0.2567 -0.1198 -0.0032
 1077YOPC   C3A15077  10.380   8.177   6.681  0.2999  0.0689 -0.0637
 1077YOPC   C4A15078  10.626   8.324   7.009  0.0216 -0.0696  0.1182
 1077YOPC   C1B15079  10.522   7.724   6.074 -0.0288  0.0943 -0.1351
 1077YOPC   C2B15080  10.934   7.590   6.369 -0.0371  0.2633  0.0072
 1077YOPC   D3B15081  11.198   7.297   6.301 -0.2563  0.0552 -0.0980
 1077YOPC   C4B15082  11.267   6.947   6.082  0.0042  0.2466  0.2949
 1078YOPC   NC315083  17.133   2.374   5.184  0.0732 -0.1892 -0.0346
 1078YOPC   PO415084  17.160   2.753   5.292  0.1464  0.1495  0.0772
 1078YOPC   GL115085  17.184   2.920   5.601 -0.1122  0.2385  0.0077
 1078YOPC   GL215086  17.428   2.813   5.810 -0.2777 -0.1237  0.2469
 1078YOPC   C1A15087  17.080   3.105   6.085 -0.3462  0.0035  0.1769
 1078YOPC   D2A15088  16.976   3.372   6.457  0.4395  0.0077  0.1900
 1078YOPC   C3A15089  16.998   3.568   6.825  0.2514  0.0926 -0.0376
 1078YOPC   C4A15090  16.974   3.882   7.094  0.3009 -0.0099 -0.1999
 1078YOPC   C1B15091  17.566   2.508   6.156  0.1911  0.1599 -0.0896
 1078YOPC   C2B15092  17.732   2.390   6.517 -0.0365 -0.2022 -0.0309
 1078YOPC   D3B15093  17.912   2.206   6.983 -0.0748  0.1708 -0.2089
 1078YOPC   C4B15094  17.994   2.424   7.354 -0.2186 -0.0003  0.2870
 1079YOPC   NC315095   0.420  12.218   4.800 -0.0897 -0.0773 -0.1700
 1079YOPC   PO415096   0.126  12.531   4.786 -0.0762 -0.0626 -0.0511
 1079YOPC   GL115097  -0.164  12.623   5.136  0.2986  0.0837 -0.2795
 1079YOPC   GL215098  -0.008  12.308   5.248  0.1796 -0.0569  0.1997
 1079YOPC   C1A15099  -0.355  12.646   5.479 -0.0175  0.3849  0.0537
 1079YOPC   D2A15100  -0.621  12.250   5.609  0.0077  0.0365  0.0475
 1079YOPC   C3A15101  -0.923  12.123   5.290 -0.2599  0.2344 -0.1402
 1079YOPC   C4A15102  -1.412  12.036   5.107 -0.3782  0.0458  0.0499
 1079YOPC   C1B15103  -0.016  12.223   5.659  0.0759  0.0849  0.4910
 1079YOPC   C2B15104  -0.204  12.472   5.939  0.1681 -0.2535 -0.0192
 1079YOPC   D3B15105  -0.682  12.433   6.097 -0.1612 -0.2435  0.0304
 1079YOPC   C4B15106  -0.961  12.204   6.332  0.2937  0.0459  0.2158
 1080YOPC   NC315107   1.316   7.044   5.019  0.1190  0.0612  0.2337
 1080YOPC   PO415108   1.801   6.794   5.032 -0.1802 -0.0160 -0.0381
 1080YOPC   GL115109   1.736   6.837   5.506  0.2739 -0.1423 -0.1442
 1080YOPC   GL215110   1.623   7.066   5.435  0.2067  0.1273 -0.3290
 1080YOPC   C1A15111   1.708   6.942   5.949 -0.0247 -0.3460 -0.1254
 1080YOPC   D2A15112   1.462   7.123   6.374 -0.0014  0.0809 -0.2919
 1080YOPC   C3A15113   1.461   6.751   6.664 -0.0165  0.2257 -0.1909
 1080YOPC   C4A15114   1.320   6.573   7.012  0.2932  0.1056 -0.1023
 1080YOPC   C1B15115   1.948   7.363   5.696  0.0991 -0.2325 -0.4308
 1080YOPC   C2B15116   1.781   7.416   6.111 -0.1591 -0.1235  0.0366
 1080YOPC   D3B15117   2.053   7.404   6.559 -0.0818 -0.3388 -0.3319
 1080YOPC   C4B15118   2.408   7.180   6.792 -0.3507  0.2272  0.0978
 1081YOPC   NC315119   1.757   0.447   5.230  0.2697  0.3027 -0.3016
 1081YOPC   PO415120   1.753  -0.011   5.289  0.1092  0.1629  0.1001
 1081YOPC   GL115121   2.013  -0.261   5.494 -0.3174 -0.2938 -0.2470
 1081YOPC   GL215122   2.384  -0.202   5.546 -0.0482  0.2530  0.1709
 1081YOPC   C1A15123   1.940  -0.166   5.933 -0.1388 -0.0323 -0.1633
 1081YOPC   D2A15124   1.653   0.119   6.270  0.1406 -0.0131 -0.0836
 1081YOPC   C3A15125   1.582  -0.027   6.702 -0.1232 -0.0588 -0.0042
 1081YOPC   C4A15126   1.468  -0.057   7.032 -0.3066 -0.2199 -0.0078
 1081YOPC   C1B15127   2.436  -0.176   6.008  0.1596  0.2412  0.1759
 1081YOPC   C2B15128   2.529   0.069   6.382 -0.3126 -0.3556  0.1109
 1081YOPC   D3B15129   2.983   0.262   6.411 -0.0880  0.1082  0.2148
 1081YOPC   C4B15130   3.028   0.351   6.843  0.3246  0.3375 -0.0650
 1082YOPC   NC315131  14.311   9.983   5.529  0.0089 -0.3058 -0.2512
 1082YOPC   PO415132  14.601  10.201   5.290 -0.2228  0.1388  0.0881
 1082YOPC   GL115133  14.758  10.022   5.700 -0.1224  0.3144 -0.0628
 1082YOPC   GL215134  14.838  10.284   5.840 -0.2260  0.0378 -0.1711
 1082YOPC   C1A15135  14.603   9.810   6.091  0.1709  0.0300  0.0031
 1082YOPC   D2A15136  14.370   9.519   6.418  0.0938 -0.2823  0.2779
 1082YOPC   C3A15137  14.034   9.624   6.661  0.0790  0.0732  0.0738
 1082YOPC   C4A15138  13.905   9.624   7.056  0.1225  0.1789  0.0571
 1082YOPC   C1B15139  14.971  10.202   6.337 -0.0970  0.3116 -0.0819
 1082YOPC   C2B15140  14.699   9.994   6.598 -0.2872  0.0011 -0.6214
 1082YOPC   D3B15141  14.840  10.224   6.985 -0.2162 -0.0353 -0.2664
 1082YOPC   C4B15142  14.959  10.137   7.449 -0.0255  0.0749  0.0549
 1083YOPC   NC315143   6.832   3.928   4.805  0.4915 -0.2320  0.3437
 1083YOPC   PO415144   6.923   4.350   5.024  0.2053  0.0730  0.2635
 1083YOPC   GL115145   7.226   4.499   5.424 -0.1879 -0.3554  0.0305
 1083YOPC   GL215146   7.448   4.272   5.514 -0.0065 -0.1348 -0.1036
 1083YOPC   C1A15147   7.063   4.694   5.788 -0.1113 -0.0090  0.1525
 1083YOPC   D2A15148   6.930   4.616   6.172 -0.2681 -0.2113  0.1842
 1083YOPC   C3A15149   6.549   4.473   6.315 -0.2369  0.0535  0.1731
 1083YOPC   C4A15150   6.216   4.466   6.382 -0.1374 -0.2347  0.0292
 1083YOPC   C1B15151   7.314   4.246   5.972 -0.1517  0.0005  0.1247
 1083YOPC   C2B15152   7.189   4.256   6.436 -0.1964 -0.1918 -0.0272
 1083YOPC   D3B15153   7.200   4.666   6.664 -0.2326  0.0987 -0.1795
 1083YOPC   C4B15154   7.007   4.720   7.149  0.2663  0.3591  0.1902
 1084YOPC   NC315155   4.430  16.146   5.351 -0.1907 -0.3879  0.1962
 1084YOPC   PO415156   4.402  15.951   5.686  0.1967 -0.0301  0.0616
 1084YOPC   GL115157   4.327  15.818   6.043  0.0034 -0.0386 -0.0666
 1084YOPC   GL215158   4.305  15.467   6.016 -0.3096  0.0121  0.2466
 1084YOPC   C1A15159   4.415  15.612   6.515 -0.1078 -0.0586 -0.2334
 1084YOPC   D2A15160   4.390  15.735   6.953  0.2577  0.0327  0.3334
 1084YOPC   C3A15161   4.250  15.357   7.278  0.2014  0.0644 -0.1164
 1084YOPC   C4A15162   4.013  15.025   7.535 -0.0060  0.0256 -0.0588
 1084YOPC   C1B15163   4.272  15.221   6.298  0.0419 -0.5454 -0.0206
 1084YOPC   C2B15164   4.269  15.201   6.789  0.0981  0.0803  0.1017
 1084YOPC   D3B15165   4.015  14.991   7.037 -0.0999 -0.0672  0.1742
 1084YOPC   C4B15166   3.621  15.019   7.258  0.0270 -0.1492 -0.0040
 1085YOPC   NC315167  10.290  16.167   5.676  0.1831  0.0948  0.0665
 1085YOPC   PO415168  10.491  15.916   6.021 -0.1377 -0.0067  0.1166
 1085YOPC   GL115169  10.647  15.747   6.344 -0.2136 -0.0424 -0.0235
 1085YOPC   GL215170  10.608  16.104   6.519  0.1351  0.1569 -0.1461
 1085YOPC   C1A15171  10.609  15.652   6.670  0.1204 -0.1136  0.1556
 1085YOPC   D2A15172  10.289  15.823   6.787 -0.0696 -0.0477  0.1555
 1085YOPC   C3A15173  10.152  15.757   7.149  0.2613 -0.0042  0.1191
 1085YOPC   C4A15174  10.130  15.550   7.623 -0.1228 -0.1355  0.3259
 1085YOPC   C1B15175  10.701  16.024   6.987  0.0877  0.0602  0.0194
 1085YOPC   C2B15176  11.008  15.961   7.309 -0.0778 -0.0430 -0.3203
 1085YOPC   D3B15177  11.333  16.249   7.474 -0.1919  0.0239 -0.2373
 1085YOPC   C4B15178  11.596  16.421   7.780  0.2361  0.2602 -0.2006
 1086YOPC   NC315179   0.990  12.526   4.252 -0.1550 -0.0772  0.6938
 1086YOPC   PO415180   1.243  12.454   4.744  0.0170 -0.0862  0.2140
 1086YOPC   GL115181   1.082  12.698   5.104  0.1184  0.1109  0.1110
 1086YOPC   GL215182   1.264  12.954   5.212 -0.2458  0.0802  0.3244
 1086YOPC   C1A15183   1.018  12.584   5.614  0.0375 -0.1459 -0.0544
 1086YOPC   D2A15184   0.870  12.344   5.873  0.1225  0.1222 -0.1866
 1086YOPC   C3A15185   0.721  12.488   6.291  0.2383  0.0366 -0.0693
 1086YOPC   C4A15186   0.783  12.610   6.687  0.0517 -0.1530 -0.2302
 1086YOPC   C1B15187   1.272  13.034   5.724 -0.0461 -0.0348 -0.3130
 1086YOPC   C2B15188   1.061  13.289   6.040  0.2155  0.0972  0.2604
 1086YOPC   D3B15189   1.220  13.465   6.392 -0.4850 -0.1831 -0.0700
 1086YOPC   C4B15190   1.692  13.539   6.589  0.0643  0.0981  0.0829
 1087YOPC   NC315191  12.099   2.969   5.408 -0.1540 -0.1918  0.4750
 1087YOPC   PO415192  12.171   2.507   5.389 -0.1038  0.1449  0.1220
 1087YOPC   GL115193  11.908   2.588   5.809  0.0866  0.1396 -0.0863
 1087YOPC   GL215194  11.641   2.540   5.902 -0.0202  0.0135  0.0876
 1087YOPC   C1A15195  11.883   2.785   6.209  0.0761 -0.1439 -0.2031
 1087YOPC   D2A15196  12.143   2.912   6.542 -0.1599 -0.1252 -0.1425
 1087YOPC   C3A15197  11.997   3.048   6.866 -0.1632 -0.0808  0.0252
 1087YOPC   C4A15198  11.723   3.147   7.237  0.0309  0.1049 -0.1136
 1087YOPC   C1B15199  11.374   2.672   6.281  0.1423  0.1223  0.0764
 1087YOPC   C2B15200  11.416   2.838   6.761  0.0650  0.0386 -0.1574
 1087YOPC   D3B15201  11.181   3.062   6.990 -0.2063  0.1831 -0.3573
 1087YOPC   C4B15202  10.832   3.328   7.198  0.1656 -0.5192 -0.0061
 1088YOPC   NC315203   3.074   7.432   4.474  0.0180  0.0623  0.1989
 1088YOPC   PO415204   3.352   7.263   4.769  0.1066 -0.0940 -0.1319
 1088YOPC   GL115205   3.574   7.073   5.133 -0.1380  0.2584 -0.4305
 1088YOPC   GL215206   3.899   6.869   5.146  0.0394  0.2862  0.1374
 1088YOPC   C1A15207   3.388   6.912   5.550 -0.0463 -0.1230  0.2669
 1088YOPC   D2A15208   3.523   6.903   5.970 -0.1203 -0.0475  0.0018
 1088YOPC   C3A15209   3.927   6.975   6.165  0.1003  0.0110  0.2460
 1088YOPC   C4A15210   4.286   7.173   6.364  0.0479 -0.4806  0.0684
 1088YOPC   C1B15211   3.983   6.841   5.706  0.0268 -0.2623  0.1074
 1088YOPC   C2B15212   4.042   6.516   6.010  0.0221 -0.0321 -0.2315
 1088YOPC   D3B15213   3.989   6.529   6.381 -0.1500  0.0208 -0.0724
 1088YOPC   C4B15214   4.168   6.572   6.787  0.1582 -0.4223 -0.1540
 1089YOPC   NC315215   4.003   7.787   4.625  0.1394 -0.0348  0.5438
 1089YOPC   PO415216   4.024   7.871   5.013 -0.0090  0.1723  0.2156
 1089YOPC   GL115217   4.300   7.962   5.278  0.2423 -0.2637  0.0778
 1089YOPC   GL215218   4.265   7.740   5.462 -0.2622  0.1151 -0.0071
 1089YOPC   C1A15219   4.144   8.284   5.615 -0.1094 -0.0309  0.2452
 1089YOPC   D2A15220   3.835   8.317   5.982 -0.2270  0.1430  0.0192
 1089YOPC   C3A15221   3.860   8.466   6.384  0.0827  0.0032  0.0006
 1089YOPC   C4A15222   3.648   8.345   6.774 -0.1467  0.0766  0.0145
 1089YOPC   C1B15223   4.080   7.791   5.839 -0.0189 -0.2755  0.0439
 1089YOPC   C2B15224   3.995   7.752   6.323  0.2109  0.1120 -0.2722
 1089YOPC   D3B15225   4.037   7.516   6.621 -0.0993  0.2391 -0.2689
 1089YOPC   C4B15226   4.233   7.359   6.948 -0.1112  0.2372  0.2305
 1090YOPC   NC315227   8.229  12.198   5.457 -0.1944  0.2576 -0.4038
 1090YOPC   PO415228   7.747  12.289   5.376  0.0221  0.0127  0.0251
 1090YOPC   GL115229   7.830  12.329   5.848 -0.0074  0.2230  0.1908
 1090YOPC   GL215230   7.964  12.655   6.031  0.2770  0.2078  0.0058
 1090YOPC   C1A15231   7.986  12.159   6.142  0.0079 -0.0322  0.1983
 1090YOPC   D2A15232   8.008  12.009   6.614 -0.2714 -0.4054  0.1160
 1090YOPC   C3A15233   7.691  11.735   6.723  0.0188  0.1124  0.2894
 1090YOPC   C4A15234   7.309  11.830   6.818 -0.2346  0.0540 -0.2247
 1090YOPC   C1B15235   7.843  12.559   6.448  0.1031  0.1080 -0.2238
 1090YOPC   C2B15236   7.556  12.356   6.737 -0.1237  0.2347  0.0158
 1090YOPC   D3B15237   7.636  12.190   7.071  0.0264  0.2272  0.2301
 1090YOPC   C4B15238   7.940  12.061   7.322 -0.0155 -0.1878  0.4206
 1091YOPC   NC315239  14.595   2.587   5.581 -0.1169  0.1905  0.1863
 1091YOPC   PO415240  14.968   2.478   5.826  0.1298 -0.1505 -0.0049
 1091YOPC   GL115241  14.993   2.313   6.276 -0.0540  0.0073  0.1448
 1091YOPC   GL215242  14.853   1.971   6.421 -0.0012  0.2083 -0.2399
 1091YOPC   C1A15243  14.931   2.340   6.740  0.2305 -0.1896  0.3488
 1091YOPC   D2A15244  15.066   2.058   7.107 -0.3694  0.0592 -0.1313
 1091YOPC   C3A15245  14.999   2.037   7.562 -0.0411 -0.0825  0.2816
 1091YOPC   C4A15246  14.665   1.998   7.956 -0.2875  0.2337 -0.1437
 1091YOPC   C1B15247  14.638   1.906   6.822  0.2187 -0.2407  0.2992
 1091YOPC   C2B15248  14.564   2.068   7.103 -0.1716  0.3597 -0.0684
 1091YOPC   D3B15249  14.329   2.329   7.379  0.1041  0.1057 -0.2194
 1091YOPC   C4B15250  13.972   2.453   7.758  0.3146 -0.4837 -0.1305
 1092YOPC   NC315251   0.019   3.207   5.422  0.2981 -0.1309  0.0524
 1092YOPC   PO415252  -0.446   3.115   5.322  0.0709  0.1538 -0.1332
 1092YOPC   GL115253  -0.446   3.243   5.774 -0.0451  0.0635 -0.0442
 1092YOPC   GL215254  -0.558   3.559   5.845 -0.0431 -0.0823 -0.0308
 1092YOPC   C1A15255  -0.474   3.160   6.242  0.1004  0.0233 -0.3060
 1092YOPC   D2A15256  -0.253   3.096   6.522 -0.0605  0.0724  0.0731
 1092YOPC   C3A15257  -0.250   3.346   6.873 -0.1427  0.1022 -0.2803
 1092YOPC   C4A15258  -0.296   3.666   7.278 -0.3267 -0.1485  0.0683
 1092YOPC   C1B15259  -0.901   3.405   6.086 -0.0154  0.0715  0.3620
 1092YOPC   C2B15260  -1.368   3.417   6.290 -0.1173  0.0373 -0.0121
 1092YOPC   D3B15261  -1.753   3.173   6.176 -0.2991  0.1259  0.0020
 1092YOPC   C4B15262  -1.987   2.917   6.426  0.2437  0.3180  0.0253
 1093YOPC   NC315263  18.021   5.275   5.127 -0.0649 -0.1692  0.2810
 1093YOPC   PO415264  17.549   5.197   5.340 -0.0516 -0.0056 -0.0503
 1093YOPC   GL115265  17.669   5.623   5.444  0.3749 -0.1424  0.2338
 1093YOPC   GL215266  17.949   5.692   5.430  0.0813 -0.0137  0.1119
 1093YOPC   C1A15267  17.462   5.804   5.848 -0.1760 -0.0133 -0.1258
 1093YOPC   D2A15268  17.307   5.738   6.240 -0.1993  0.0232  0.1671
 1093YOPC   C3A15269  17.661   5.522   6.415 -0.2886  0.3231 -0.0158
 1093YOPC   C4A15270  17.732   5.459   6.825 -0.0879  0.2664 -0.3480
 1093YOPC   C1B15271  18.209   5.794   5.740  0.1644  0.0949  0.1615
 1093YOPC   C2B15272  18.245   5.812   6.167  0.1088  0.3503 -0.1724
 1093YOPC   D3B15273  18.115   5.671   6.620 -0.1913 -0.3117 -0.3937
 1093YOPC   C4B15274  18.289   5.475   6.923  0.0161  0.1251 -0.3917
 1094YOPC   NC315275  13.882  15.153   5.652 -0.4289 -0.0084 -0.2535
 1094YOPC   PO415276  14.313  15.436   5.810 -0.2083  0.0197  0.2837
 1094YOPC   GL115277  14.296  15.478   6.240  0.0877  0.1529 -0.0102
 1094YOPC   GL215278  14.493  15.228   6.342  0.2175  0.2056  0.0755
 1094YOPC   C1A15279  14.696  15.533   6.623  0.1450 -0.0095 -0.3843
 1094YOPC   D2A15280  14.913  15.571   6.967 -0.1110  0.1887  0.2252
 1094YOPC   C3A15281  14.714  15.764   7.351 -0.0631 -0.3057  0.0614
 1094YOPC   C4A15282  14.602  16.045   7.556  0.1277 -0.1355 -0.1152
 1094YOPC   C1B15283  14.108  15.215   6.636 -0.0023 -0.2933 -0.3981
 1094YOPC   C2B15284  14.024  15.374   7.009  0.0066 -0.1813 -0.2166
 1094YOPC   D3B15285  14.047  15.673   7.320 -0.2148  0.3847 -0.3005
 1094YOPC   C4B15286  14.058  15.808   7.660 -0.0030 -0.1077 -0.1755
 1095YOPC   NC315287  12.781   1.065   5.677  0.1356 -0.2325  0.1525
 1095YOPC   PO415288  13.084   1.277   5.571 -0.0152 -0.4392  0.0862
 1095YOPC   GL115289  13.256   1.335   6.022 -0.3133 -0.0718  0.1596
 1095YOPC   GL215290  13.139   1.177   6.272  0.1787  0.1341  0.2356
 1095YOPC   C1A15291  13.413   1.639   6.321 -0.1225 -0.3938  0.1658
 1095YOPC   D2A15292  13.612   1.888   6.581 -0.1709 -0.2146 -0.0288
 1095YOPC   C3A15293  13.717   1.674   6.990  0.0417  0.1253  0.0246
 1095YOPC   C4A15294  13.897   1.333   6.961 -0.2719  0.1125 -0.3277
 1095YOPC   C1B15295  13.193   1.319   6.734  0.1539  0.3388 -0.0541
 1095YOPC   C2B15296  13.378   1.341   7.224  0.2649  0.0157 -0.3167
 1095YOPC   D3B15297  13.661   1.654   7.503 -0.4072  0.1289 -0.0580
 1095YOPC   C4B15298  13.775   1.674   7.934  0.2727 -0.2354  0.0015
 1096YOPC   NC315299   6.668  13.825   5.996  0.1039  0.1132  0.1740
 1096YOPC   PO415300   6.953  13.888   5.884  0.4770  0.1459  0.3393
 1096YOPC   GL115301   7.144  13.963   6.265  0.0314  0.2852  0.0234
 1096YOPC   GL215302   7.054  13.727   6.403 -0.0994  0.0555  0.0555
 1096YOPC   C1A15303   7.182  14.336   6.568 -0.1851  0.2256 -0.3150
 1096YOPC   D2A15304   7.052  14.538   6.953  0.2642  0.1156  0.0438
 1096YOPC   C3A15305   7.336  14.716   7.241 -0.1411 -0.1308 -0.1931
 1096YOPC   C4A15306   7.613  14.406   7.427  0.3666  0.3645 -0.1556
 1096YOPC   C1B15307   7.041  13.423   6.759 -0.0003 -0.1734  0.2588
 1096YOPC   C2B15308   7.294  13.074   6.919  0.4829 -0.2255 -0.0956
 1096YOPC   D3B15309   7.546  12.868   6.722  0.1669 -0.2046 -0.1393
 1096YOPC   C4B15310   7.590  12.974   6.251 -0.2824  0.4096  0.0856
 1097YOPC   NC315311   0.130  11.341   4.575  0.0992  0.1190  0.1487
 1097YOPC   PO415312   0.133  10.983   4.870  0.0769 -0.1771 -0.0494
 1097YOPC   GL115313   0.280  10.859   5.322 -0.3878 -0.0436 -0.0018
 1097YOPC   GL215314   0.480  11.097   5.421 -0.1465  0.1449 -0.1724
 1097YOPC   C1A15315  -0.022  11.007   5.683  0.0702  0.0506  0.0591
 1097YOPC   D2A15316  -0.152  11.342   5.929  0.0009  0.2394 -0.0679
 1097YOPC   C3A15317  -0.297  11.721   5.626 -0.1750 -0.0272  0.0037
 1097YOPC   C4A15318  -0.637  11.687   5.269 -0.1993  0.1249  0.1356
 1097YOPC   C1B15319   0.863  11.096   5.754 -0.0131  0.0016 -0.4355
 1097YOPC   C2B15320   0.980  10.762   5.889 -0.3110 -0.1268 -0.0691
 1097YOPC   D3B15321   1.039  10.770   6.261 -0.4017  0.2140 -0.0398
 1097YOPC   C4B15322   1.064  10.736   6.804 -0.3751 -0.1421  0.0245
 1098YOPC   NC315323  18.443  13.751   4.923  0.0134  0.2608 -0.3438
 1098YOPC   PO415324  18.112  14.021   4.913 -0.1065 -0.0306 -0.1087
 1098YOPC   GL115325  18.192  13.995   5.460 -0.2564  0.3230  0.3112
 1098YOPC   GL215326  18.032  13.930   5.665  0.1967  0.1437 -0.0268
 1098YOPC   C1A15327  18.384  14.307   5.725  0.0725 -0.1469  0.1817
 1098YOPC   D2A15328  18.681  14.566   5.735 -0.0620  0.5548 -0.1740
 1098YOPC   C3A15329  18.832  14.438   6.111  0.2254 -0.5119 -0.5027
 1098YOPC   C4A15330  19.138  14.521   6.444  0.4133 -0.0822  0.1124
 1098YOPC   C1B15331  18.256  13.832   6.015 -0.2024 -0.2288 -0.0288
 1098YOPC   C2B15332  18.256  13.584   6.334  0.1052  0.1128 -0.0357
 1098YOPC   D3B15333  18.478  13.345   6.652 -0.1816  0.2397 -0.1732
 1098YOPC   C4B15334  18.817  13.073   6.704  0.1240 -0.0371 -0.0556
 1099YOPC   NC315335   4.330   2.409   4.838  0.3765 -0.2339  0.5458
 1099YOPC   PO415336   4.625   2.783   4.602 -0.0450 -0.0373  0.0160
 1099YOPC   GL115337   4.773   2.817   5.020  0.3348 -0.0437 -0.0102
 1099YOPC   GL215338   4.636   3.066   5.172 -0.1298  0.1484  0.2151
 1099YOPC   C1A15339   5.065   2.654   5.440  0.0420 -0.0742  0.0083
 1099YOPC   D2A15340   5.353   3.005   5.560  0.1812  0.0653  0.0329
 1099YOPC   C3A15341   5.714   3.003   5.296  0.0607 -0.3658 -0.1443
 1099YOPC   C4A15342   6.108   2.659   5.206  0.0184  0.0895 -0.0510
 1099YOPC   C1B15343   4.463   2.842   5.456 -0.0806 -0.0020  0.0301
 1099YOPC   C2B15344   4.187   2.767   5.866  0.1946  0.0649  0.3608
 1099YOPC   D3B15345   4.270   2.530   6.207  0.2411  0.1866  0.1106
 1099YOPC   C4B15346   4.322   2.397   6.653  0.3607 -0.0007 -0.3233
 1100YOPC   NC315347  17.311   1.603   5.033 -0.0612 -0.2346  0.1400
 1100YOPC   PO415348  17.254   1.913   5.317  0.1570  0.1268  0.1647
 1100YOPC   GL115349  17.095   1.872   5.735  0.1817 -0.2047 -0.2684
 1100YOPC   GL215350  17.341   1.644   5.905  0.0756 -0.2806  0.3868
 1100YOPC   C1A15351  17.182   2.212   6.096  0.0135  0.0162 -0.1350
 1100YOPC   D2A15352  16.999   2.603   6.261  0.1362  0.2339 -0.3073
 1100YOPC   C3A15353  16.608   2.536   6.412  0.0801  0.3894 -0.0796
 1100YOPC   C4A15354  16.250   2.773   6.581  0.0681  0.0303  0.2604
 1100YOPC   C1B15355  17.291   1.814   6.309  0.0828  0.1663  0.2603
 1100YOPC   C2B15356  17.038   2.069   6.595 -0.0188  0.0009  0.3005
 1100YOPC   D3B15357  17.156   2.052   7.049  0.1637 -0.1436  0.1660
 1100YOPC   C4B15358  17.426   2.341   7.290 -0.2447 -0.1572  0.1564
 1101YOPC   NC315359   5.819   0.883   5.414  0.3760  0.4172 -0.0457
 1101YOPC   PO415360   6.190   0.581   5.282  0.3044 -0.3240  0.1813
 1101YOPC   GL115361   6.194   0.456   5.670  0.0286 -0.2180 -0.1767
 1101YOPC   GL215362   5.973   0.289   5.896 -0.1796  0.3669 -0.0142
 1101YOPC   C1A15363   6.366   0.680   6.098 -0.0819  0.4329  0.1365
 1101YOPC   D2A15364   6.388   0.866   6.540  0.1352 -0.2320 -0.0529
 1101YOPC   C3A15365   6.101   1.075   6.875 -0.1677  0.3332 -0.0031
 1101YOPC   C4A15366   6.033   1.377   6.985  0.0247 -0.1092  0.1672
 1101YOPC   C1B15367   5.911   0.399   6.292  0.1200  0.2116 -0.2474
 1101YOPC   C2B15368   5.804   0.690   6.679  0.3685 -0.0569 -0.3420
 1101YOPC   D3B15369   5.695   0.615   7.067  0.0573 -0.6007 -0.1912
 1101YOPC   C4B15370   5.807   0.892   7.231  0.2572  0.1062  0.0668
 1102YOPC   NC315371  13.740  16.761   5.600  0.1304 -0.2243  0.0351
 1102YOPC   PO415372  13.443  17.107   5.456  0.1046  0.1066 -0.1111
 1102YOPC   GL115373  13.188  16.980   5.901 -0.1588  0.1266 -0.3725
 1102YOPC   GL215374  12.871  17.156   6.122 -0.1848  0.1788 -0.0474
 1102YOPC   C1A15375  13.475  16.964   6.333  0.1357 -0.0574 -0.0062
 1102YOPC   D2A15376  13.531  17.097   6.754  0.2911 -0.1588  0.0237
 1102YOPC   C3A15377  13.342  17.478   7.072  0.4093 -0.1096 -0.0989
 1102YOPC   C4A15378  13.094  17.619   7.354  0.2107 -0.0286 -0.1319
 1102YOPC   C1B15379  12.736  17.228   6.529 -0.1474  0.1413 -0.2337
 1102YOPC   C2B15380  12.587  17.373   6.881 -0.1209  0.1791 -0.1070
 1102YOPC   D3B15381  12.454  17.328   7.326  0.3648  0.0564  0.1835
 1102YOPC   C4B15382  12.027  17.439   7.504  0.1355 -0.2420 -0.2922
 1103YOPC   NC315383   7.797   5.400   5.241 -0.0952 -0.1236 -0.0107
 1103YOPC   PO415384   8.198   5.533   5.421 -0.0545  0.2610  0.2488
 1103YOPC   GL115385   8.331   5.468   5.762 -0.1920  0.1320 -0.0107
 1103YOPC   GL215386   8.452   5.270   5.795  0.1012 -0.1941  0.2811
 1103YOPC   C1A15387   8.383   5.736   6.090 -0.1090 -0.0397  0.0096
 1103YOPC   D2A15388   8.192   5.593   6.430 -0.0853  0.0494  0.0428
 1103YOPC   C3A15389   8.240   5.357   6.884 -0.1107  0.3068  0.2848
 1103YOPC   C4A15390   7.959   5.157   7.359 -0.3399  0.0036 -0.0067
 1103YOPC   C1B15391   8.824   5.139   5.963 -0.0976  0.1850  0.2087
 1103YOPC   C2B15392   9.082   4.899   6.212  0.0887  0.2310  0.0317
 1103YOPC   D3B15393   8.988   4.872   6.669 -0.2187 -0.4772  0.0040
 1103YOPC   C4B15394   8.875   4.678   7.090  0.2275 -0.0574  0.1273
 1104YOPC   NC315395  18.573   6.040   4.781  0.2446  0.4033  0.0704
 1104YOPC   PO415396  18.449   6.402   5.019  0.1286  0.1004 -0.1522
 1104YOPC   GL115397  18.273   6.707   5.334  0.0205  0.0949  0.3995
 1104YOPC   GL215398  18.009   6.768   5.375  0.3509  0.0142  0.3352
 1104YOPC   C1A15399  18.411   6.806   5.746  0.0113 -0.2220 -0.1009
 1104YOPC   D2A15400  18.565   6.792   6.092 -0.0290  0.0943 -0.0665
 1104YOPC   C3A15401  18.787   6.493   6.139 -0.2097 -0.2664  0.0519
 1104YOPC   C4A15402  19.092   6.268   5.955  0.0249 -0.1318 -0.2126
 1104YOPC   C1B15403  17.960   6.601   5.707 -0.1731  0.2915 -0.0351
 1104YOPC   C2B15404  18.100   6.669   6.144  0.1826 -0.5232  0.0022
 1104YOPC   D3B15405  18.183   6.620   6.511  0.1300 -0.3207 -0.6003
 1104YOPC   C4B15406  18.291   6.666   6.873 -0.0962  0.1555 -0.0781
 1105YOPC   NC315407  13.027  11.038   5.640 -0.1501 -0.0534 -0.1633
 1105YOPC   PO415408  12.924  10.638   5.591 -0.2707  0.1233  0.1141
 1105YOPC   GL115409  12.966  10.537   5.918 -0.1091  0.1087  0.1472
 1105YOPC   GL215410  12.782  10.774   6.092 -0.2197  0.0970 -0.0747
 1105YOPC   C1A15411  13.033  10.311   6.350 -0.2215  0.0168  0.0251
 1105YOPC   D2A15412  13.230   9.966   6.533  0.0468  0.0855 -0.4898
 1105YOPC   C3A15413  13.664   9.712   6.305 -0.1839 -0.1902  0.2120
 1105YOPC   C4A15414  14.110   9.825   6.117 -0.3476  0.0241 -0.2103
 1105YOPC   C1B15415  12.657  10.872   6.426 -0.2347  0.2934  0.0388
 1105YOPC   C2B15416  12.722  10.892   6.889 -0.0417 -0.3088 -0.1912
 1105YOPC   D3B15417  13.124  10.967   7.084  0.0585  0.0574  0.0173
 1105YOPC   C4B15418  13.533  11.305   7.160 -0.1678 -0.0434  0.1539
 1106YOPC   NC315419   6.971  17.098   5.170 -0.3148  0.0237 -0.1174
 1106YOPC   PO415420   6.621  17.086   5.448  0.0794  0.0135  0.1379
 1106YOPC   GL115421   6.638  17.141   5.901  0.0100  0.5513 -0.0188
 1106YOPC   GL215422   6.519  17.388   6.088 -0.0704  0.0815 -0.3011
 1106YOPC   C1A15423   6.988  16.983   6.143  0.2978 -0.2801  0.2548
 1106YOPC   D2A15424   7.106  16.907   6.623  0.1651  0.0762 -0.1335
 1106YOPC   C3A15425   7.604  17.079   6.778  0.0619 -0.1007 -0.2500
 1106YOPC   C4A15426   7.791  17.371   7.050 -0.0406  0.1840  0.3102
 1106YOPC   C1B15427   6.198  17.383   6.312  0.1503 -0.1171  0.2265
 1106YOPC   C2B15428   6.019  17.414   6.692  0.0319  0.1987  0.0911
 1106YOPC   D3B15429   6.224  17.516   7.056 -0.1568 -0.4059  0.2778
 1106YOPC   C4B15430   6.628  17.331   7.228 -0.1896  0.1557 -0.0681
 1107YOPC   NC315431  18.197   2.871   5.419 -0.2352  0.3607  0.1899
 1107YOPC   PO415432  17.989   2.523   5.633 -0.0984 -0.0590  0.1577
 1107YOPC   GL115433  18.274   2.329   6.006  0.2851  0.0816  0.0506
 1107YOPC   GL215434  18.100   2.516   6.184  0.2123  0.0113  0.0768
 1107YOPC   C1A15435  18.468   2.117   6.381  0.1233  0.1170  0.2443
 1107YOPC   D2A15436  18.417   2.107   6.855  0.1739  0.0911  0.3130
 1107YOPC   C3A15437  18.620   1.950   7.254  0.1408  0.1842  0.0550
 1107YOPC   C4A15438  18.586   1.670   7.423  0.1733  0.0940 -0.0054
 1107YOPC   C1B15439  18.209   2.447   6.616 -0.2290  0.2600  0.3585
 1107YOPC   C2B15440  18.297   2.538   7.015 -0.1379  0.1080  0.2567
 1107YOPC   D3B15441  18.212   2.999   6.977  0.2353  0.2160 -0.0554
 1107YOPC   C4B15442  18.009   3.376   6.786  0.2225  0.2889 -0.1325
 1108YOPC   NC315443  11.203  18.232   5.861 -0.0885 -0.0638  0.2265
 1108YOPC   PO415444  10.860  18.010   5.860  0.1866  0.0972  0.0935
 1108YOPC   GL115445  10.933  18.089   6.234 -0.2961  0.2872 -0.2197
 1108YOPC   GL215446  10.712  18.373   6.243  0.0162  0.2385  0.2390
 1108YOPC   C1A15447  11.136  18.112   6.623  0.2684 -0.0245  0.2520
 1108YOPC   D2A15448  11.112  18.420   6.989  0.1057 -0.0447 -0.3949
 1108YOPC   C3A15449  11.070  18.365   7.425  0.1393  0.2728 -0.1300
 1108YOPC   C4A15450  10.970  18.384   7.888 -0.0660  0.1497 -0.2385
 1108YOPC   C1B15451  10.910  18.611   6.575 -0.2990  0.4510 -0.1915
 1108YOPC   C2B15452  11.253  18.903   6.795  0.2082  0.3589 -0.0710
 1108YOPC   D3B15453  11.614  18.920   6.716 -0.0249  0.0742 -0.0393
 1108YOPC   C4B15454  11.834  19.290   6.499 -0.0960 -0.0089 -0.3104
 1109YOPC   NC315455  17.642  11.056   4.523 -0.0156 -0.1954 -0.2193
 1109YOPC   PO415456  17.565  10.729   4.803 -0.0024  0.1887  0.2359
 1109YOPC   GL115457  17.499  10.869   5.154 -0.0503  0.0348 -0.1783
 1109YOPC   GL215458  17.360  10.713   5.441 -0.1281  0.2106 -0.0389
 1109YOPC   C1A15459  17.508  11.194   5.450  0.1270  0.0005 -0.2282
 1109YOPC   D2A15460  17.497  11.538   5.661 -0.0382  0.1714  0.1302
 1109YOPC   C3A15461  17.226  11.424   6.030 -0.2070 -0.2343 -0.0576
 1109YOPC   C4A15462  16.983  11.223   6.486  0.2608 -0.2639 -0.0309
 1109YOPC   C1B15463  17.557  10.836   5.901 -0.2539  0.2849 -0.0081
 1109YOPC   C2B15464  17.818  10.787   6.249  0.0317  0.1310 -0.2266
 1109YOPC   D3B15465  17.711  10.496   6.541 -0.0333 -0.0171 -0.0453
 1109YOPC   C4B15466  17.465  10.201   6.707 -0.3265  0.0931  0.0248
 1110YOPC   NC315467   7.760   7.679   4.672 -0.1951 -0.2753  0.1689
 1110YOPC   PO415468   8.109   7.544   4.929  0.4566  0.1186  0.0469
 1110YOPC   GL115469   8.064   7.671   5.375 -0.4166  0.2480  0.4694
 1110YOPC   GL215470   8.191   7.431   5.586 -0.0770  0.2297 -0.2216
 1110YOPC   C1A15471   7.676   7.677   5.471  0.0983 -0.1830 -0.0934
 1110YOPC   D2A15472   7.284   7.365   5.673 -0.2277 -0.0578 -0.1145
 1110YOPC   C3A15473   7.318   7.466   6.179  0.3549 -0.4235 -0.1102
 1110YOPC   C4A15474   7.025   7.634   6.567  0.0218  0.2720  0.0965
 1110YOPC   C1B15475   7.966   7.348   5.834 -0.1799 -0.0078  0.1807
 1110YOPC   C2B15476   7.602   7.122   6.008 -0.1478  0.1631 -0.1567
 1110YOPC   D3B15477   7.561   7.056   6.440 -0.1420  0.0144  0.0341
 1110YOPC   C4B15478   7.585   7.045   6.792 -0.2177 -0.0054  0.2624
 1111YOPC   NC315479   6.360   7.451   4.982 -0.2334  0.0338 -0.2314
 1111YOPC   PO415480   6.427   7.946   5.067  0.1875 -0.2941 -0.2022
 1111YOPC   GL115481   6.211   7.776   5.345  0.0779 -0.0186 -0.2038
 1111YOPC   GL215482   6.283   8.007   5.535  0.1592  0.3123  0.2649
 1111YOPC   C1A15483   6.076   7.531   5.697 -0.0332  0.2648 -0.2987
 1111YOPC   D2A15484   6.054   7.342   6.094  0.0289 -0.0001 -0.2464
 1111YOPC   C3A15485   5.914   7.437   6.513 -0.3723  0.2403  0.2070
 1111YOPC   C4A15486   5.694   7.285   6.822 -0.4108 -0.2349 -0.0638
 1111YOPC   C1B15487   6.352   7.935   5.924 -0.0568 -0.0112 -0.1906
 1111YOPC   C2B15488   6.225   7.780   6.284  0.3574 -0.0572 -0.1726
 1111YOPC   D3B15489   6.333   7.871   6.703  0.4997 -0.1670  0.3274
 1111YOPC   C4B15490   6.335   8.390   6.823 -0.1311  0.0082 -0.2333
 1112YOPC   NC315491   4.440  14.170   5.234  0.2622 -0.0007  0.0350
 1112YOPC   PO415492   4.078  13.996   5.392 -0.0573  0.5172  0.0026
 1112YOPC   GL115493   3.811  13.686   5.627  0.0347  0.1254 -0.0435
 1112YOPC   GL215494   3.818  13.566   5.881  0.0393 -0.1313  0.2712
 1112YOPC   C1A15495   3.370  13.616   5.631 -0.0440 -0.1436 -0.1223
 1112YOPC   D2A15496   2.962  13.384   5.642  0.4334 -0.2244 -0.0442
 1112YOPC   C3A15497   2.891  13.410   6.057  0.1070  0.2827 -0.0049
 1112YOPC   C4A15498   2.459  13.259   6.131 -0.0145 -0.0522  0.1365
 1112YOPC   C1B15499   3.874  13.258   6.205  0.0916 -0.1387 -0.0134
 1112YOPC   C2B15500   3.904  13.038   6.677  0.2014 -0.1262  0.1201
 1112YOPC   D3B15501   4.054  12.624   6.688 -0.2910  0.2413  0.0610
 1112YOPC   C4B15502   4.082  12.400   7.037 -0.0660 -0.0738 -0.0231
 1113YOPC   NC315503   2.686  14.500   4.706 -0.1434 -0.0670 -0.0037
 1113YOPC   PO415504   2.368  14.412   5.025  0.2552 -0.3568  0.2543
 1113YOPC   GL115505   2.119  14.473   5.414 -0.1802  0.2199  0.3198
 1113YOPC   GL215506   2.258  14.624   5.662 -0.2879  0.5348 -0.1576
 1113YOPC   C1A15507   2.128  14.080   5.759  0.1808  0.3258  0.1552
 1113YOPC   D2A15508   2.130  14.120   6.181 -0.3793  0.1338 -0.2254
 1113YOPC   C3A15509   2.387  14.046   6.611 -0.2442  0.2857 -0.1335
 1113YOPC   C4A15510   2.465  14.117   7.072 -0.1238 -0.0829  0.1249
 1113YOPC   C1B15511   2.242  14.609   5.984  0.2528 -0.0880  0.2659
 1113YOPC   C2B15512   2.346  14.600   6.427 -0.0399 -0.0969  0.0727
 1113YOPC   D3B15513   2.288  14.488   6.831  0.0975  0.2498 -0.2962
 1113YOPC   C4B15514   2.231  14.622   7.195 -0.2238 -0.2156 -0.1352
 1114YOPC   NC315515   9.708   2.369   4.915 -0.1335 -0.0089  0.3576
 1114YOPC   PO415516   9.607   2.733   5.225  0.3052  0.0084  0.2820
 1114YOPC   GL115517   9.452   2.887   5.568 -0.0527  0.2236 -0.0778
 1114YOPC   GL215518   9.156   2.789   5.708 -0.1655  0.2366 -0.0933
 1114YOPC   C1A15519   9.511   3.219   5.831  0.1173 -0.2554 -0.3745
 1114YOPC   D2A15520   9.484   3.596   6.181  0.2565  0.2279  0.3322
 1114YOPC   C3A15521   9.458   3.498   6.630 -0.0181 -0.1182 -0.1379
 1114YOPC   C4A15522   9.443   3.398   7.167  0.1341  0.3650  0.0801
 1114YOPC   C1B15523   9.257   2.927   6.150 -0.1694 -0.1517 -0.0472
 1114YOPC   C2B15524   9.582   3.109   6.362 -0.0147 -0.1000  0.0240
 1114YOPC   D3B15525   9.744   3.186   6.825  0.1616  0.1151 -0.1796
 1114YOPC   C4B15526   9.947   3.121   7.133 -0.0380 -0.0304 -0.0421
 1115YOPC   NC315527  16.645   4.150   5.489  0.0108 -0.1487  0.1138
 1115YOPC   PO415528  16.671   3.688   5.305  0.0929  0.0835 -0.2872
 1115YOPC   GL115529  16.963   3.755   5.724 -0.3262  0.1003  0.0714
 1115YOPC   GL215530  16.771   3.770   5.905 -0.1695  0.2101  0.3070
 1115YOPC   C1A15531  17.377   3.878   5.701  0.0608 -0.0704  0.1545
 1115YOPC   D2A15532  17.574   4.217   5.806 -0.1466  0.0022 -0.0790
 1115YOPC   C3A15533  17.522   4.424   6.125  0.0283 -0.1840 -0.0790
 1115YOPC   C4A15534  17.803   4.644   6.303  0.4112 -0.0102 -0.1401
 1115YOPC   C1B15535  16.674   3.379   6.101  0.0095  0.2811 -0.3150
 1115YOPC   C2B15536  16.630   3.017   6.338  0.0093  0.3294 -0.0424
 1115YOPC   D3B15537  16.907   2.925   6.585 -0.1691  0.2024 -0.4182
 1115YOPC   C4B15538  16.904   2.967   6.922  0.0193  0.3603  0.0217
 1116YOPC   NC315539   2.304  13.401   4.505 -0.0604 -0.2061  0.2765
 1116YOPC   PO415540   2.171  12.995   4.668  0.1085 -0.2482  0.2690
 1116YOPC   GL115541   2.043  13.076   5.092 -0.1419  0.0492 -0.2100
 1116YOPC   GL215542   1.700  13.249   5.035  0.1365  0.2373  0.0021
 1116YOPC   C1A15543   1.818  12.969   5.464 -0.0026 -0.0620  0.0781
 1116YOPC   D2A15544   1.564  12.573   5.592  0.1531  0.1792 -0.0517
 1116YOPC   C3A15545   1.380  12.383   5.906  0.3278  0.1679  0.0114
 1116YOPC   C4A15546   1.343  12.667   6.141  0.0629 -0.0598 -0.0112
 1116YOPC   C1B15547   1.506  13.399   5.386 -0.2395 -0.2897 -0.2077
 1116YOPC   C2B15548   1.102  13.494   5.589 -0.0561  0.3397 -0.1276
 1116YOPC   D3B15549   0.990  13.847   5.865 -0.0346  0.4379  0.1900
 1116YOPC   C4B15550   1.227  13.917   6.143 -0.1329 -0.0393 -0.3731
 1117YOPC   NC315551  13.964  17.473   6.072  0.0586 -0.3143 -0.0468
 1117YOPC   PO415552  13.788  17.921   6.141 -0.2510  0.1412  0.3674
 1117YOPC   GL115553  13.926  17.748   6.471 -0.1026  0.0397 -0.0428
 1117YOPC   GL215554  14.206  17.928   6.514 -0.6902 -0.3583 -0.2968
 1117YOPC   C1A15555  13.718  17.601   6.745  0.1164  0.0033 -0.0067
 1117YOPC   D2A15556  13.818  17.637   7.106  0.0680  0.1694 -0.0455
 1117YOPC   C3A15557  13.591  17.431   7.455 -0.1933 -0.0258 -0.1222
 1117YOPC   C4A15558  13.417  17.577   7.860  0.0289  0.0856  0.0795
 1117YOPC   C1B15559  14.212  17.847   6.935  0.0535  0.0147  0.1648
 1117YOPC   C2B15560  14.311  18.008   7.287  0.1326  0.2014  0.0051
 1117YOPC   D3B15561  14.531  17.781   7.514  0.2969 -0.1998  0.3736
 1117YOPC   C4B15562  14.361  17.695   7.913 -0.1120  0.0836 -0.0702
 1118YOPC   NC315563  16.931   6.147   4.769  0.2000 -0.0971 -0.0881
 1118YOPC   PO415564  17.035   5.981   5.067 -0.0280  0.2351  0.0647
 1118YOPC   GL115565  17.102   6.053   5.585  0.3124 -0.0964 -0.0597
 1118YOPC   GL215566  17.380   6.336   5.721 -0.5094 -0.0523  0.4179
 1118YOPC   C1A15567  16.931   5.826   5.906  0.3313 -0.0399  0.1539
 1118YOPC   D2A15568  16.793   5.499   6.236  0.1054 -0.0699 -0.1476
 1118YOPC   C3A15569  16.856   5.446   6.728  0.1000 -0.0136  0.0808
 1118YOPC   C4A15570  16.719   5.394   7.161 -0.1027  0.1368 -0.3131
 1118YOPC   C1B15571  17.182   6.254   6.114 -0.3931 -0.3556  0.1122
 1118YOPC   C2B15572  17.181   6.391   6.466  0.3670 -0.0063  0.0825
 1118YOPC   D3B15573  17.384   6.340   6.827 -0.0501 -0.0967 -0.0706
 1118YOPC   C4B15574  17.825   6.387   6.824  0.0903  0.1951  0.1715
 1119YOPC   NC315575   0.600  18.753   4.971 -0.4407  0.0139  0.1345
 1119YOPC   PO415576   0.915  18.844   5.292  0.1786  0.0215 -0.2391
 1119YOPC   GL115577   0.760  18.726   5.713  0.2760 -0.0574  0.3330
 1119YOPC   GL215578   0.537  18.956   5.852  0.0481  0.2161  0.2273
 1119YOPC   C1A15579   0.923  18.462   5.967  0.1690 -0.0117  0.0614
 1119YOPC   D2A15580   1.010  18.268   6.387  0.0552 -0.0660 -0.1677
 1119YOPC   C3A15581   1.304  18.532   6.348  0.3418 -0.0229  0.3114
 1119YOPC   C4A15582   1.431  18.882   6.646 -0.0656  0.2493 -0.2987
 1119YOPC   C1B15583   0.622  18.857   6.216  0.1506 -0.2605  0.0649
 1119YOPC   C2B15584   0.831  18.675   6.528  0.1639 -0.2177  0.2397
 1119YOPC   D3B15585   1.056  18.783   6.915  0.1075  0.1015 -0.0549
 1119YOPC   C4B15586   1.051  19.055   7.309  0.2027 -0.1120 -0.0806
 1120YOPC   NC315587   3.990   8.789   4.589 -0.1770  0.0984  0.1551
 1120YOPC   PO415588   3.899   8.770   5.094 -0.1132 -0.3247 -0.0424
 1120YOPC   GL115589   3.910   8.959   5.534 -0.0062  0.0465 -0.2342
 1120YOPC   GL215590   3.786   8.755   5.707 -0.1487 -0.1199 -0.2780
 1120YOPC   C1A15591   4.122   9.170   5.904 -0.2133 -0.2289  0.0462
 1120YOPC   D2A15592   4.083   9.297   6.280 -0.0989 -0.0756 -0.1131
 1120YOPC   C3A15593   3.958   9.619   6.458 -0.0876 -0.1647 -0.3209
 1120YOPC   C4A15594   3.696   9.777   6.812 -0.1123 -0.0194  0.1158
 1120YOPC   C1B15595   3.814   8.906   6.203  0.1207 -0.1318  0.1625
 1120YOPC   C2B15596   4.084   8.898   6.558 -0.0362 -0.0463 -0.0760
 1120YOPC   D3B15597   4.411   8.579   6.471 -0.2404 -0.0239  0.0890
 1120YOPC   C4B15598   4.239   8.188   6.217 -0.0696 -0.2028 -0.1950
 1121YOPC   NC315599   0.290  17.948   5.273  0.0578 -0.0403 -0.1278
 1121YOPC   PO415600   0.659  17.798   5.144 -0.0700 -0.3289  0.3281
 1121YOPC   GL115601   0.628  17.870   5.634  0.0403 -0.1850  0.1146
 1121YOPC   GL215602   0.825  17.970   5.747  0.1457 -0.4062 -0.0570
 1121YOPC   C1A15603   0.193  17.790   5.894  0.2014  0.2243 -0.2038
 1121YOPC   D2A15604  -0.072  17.770   6.254  0.0470 -0.0437 -0.0024
 1121YOPC   C3A15605  -0.007  18.089   6.547  0.0374  0.1322 -0.2929
 1121YOPC   C4A15606   0.213  18.083   6.916  0.0019 -0.6107 -0.1058
 1121YOPC   C1B15607   0.606  17.978   6.111  0.0957 -0.2957  0.5444
 1121YOPC   C2B15608   0.495  17.938   6.502 -0.2365  0.0130  0.0974
 1121YOPC   D3B15609   0.743  18.217   6.815 -0.1250  0.0062  0.3976
 1121YOPC   C4B15610   0.604  18.207   7.218  0.1465  0.1562  0.2496
 1122YOPC   NC315611  13.302  13.776   5.525  0.2092  0.0173  0.2322
 1122YOPC   PO415612  13.638  13.764   5.789 -0.2727  0.1056  0.1272
 1122YOPC   GL115613  13.831  13.597   6.140  0.3932  0.1642 -0.0929
 1122YOPC   GL215614  13.641  13.456   6.237  0.2699 -0.0682  0.0037
 1122YOPC   C1A15615  14.060  13.657   6.545  0.0581  0.1616 -0.0833
 1122YOPC   D2A15616  14.032  13.642   6.943 -0.3095 -0.0594  0.1236
 1122YOPC   C3A15617  14.232  13.357   7.234 -0.0969  0.4348 -0.2159
 1122YOPC   C4A15618  14.507  13.215   7.509 -0.2577  0.2475  0.0052
 1122YOPC   C1B15619  13.707  13.246   6.603  0.2692 -0.1328 -0.2504
 1122YOPC   C2B15620  13.761  13.200   6.981 -0.2985  0.0391 -0.0177
 1122YOPC   D3B15621  13.455  12.972   7.268  0.2234  0.0495  0.1389
 1122YOPC   C4B15622  13.135  12.605   7.105 -0.0182 -0.1008 -0.1579
 1123YOPC   NC315623   0.845   5.668   5.230 -0.1605 -0.0612 -0.0562
 1123YOPC   PO415624   0.915   5.343   5.419  0.3270  0.0956  0.2312
 1123YOPC   GL115625   0.679   5.414   5.702  0.0501 -0.3641 -0.1876
 1123YOPC   GL215626   0.968   5.557   5.852 -0.0696  0.4033 -0.2001
 1123YOPC   C1A15627   0.258   5.513   5.916  0.0033  0.2929  0.1051
 1123YOPC   D2A15628  -0.076   5.397   6.076 -0.2453 -0.1339 -0.0200
 1123YOPC   C3A15629   0.140   5.302   6.456 -0.1424  0.1615 -0.3363
 1123YOPC   C4A15630   0.400   5.238   6.913 -0.0523 -0.1524 -0.0893
 1123YOPC   C1B15631   1.173   5.778   6.270  0.0112  0.2039 -0.1991
 1123YOPC   C2B15632   1.233   5.562   6.646 -0.4284 -0.0313 -0.1322
 1123YOPC   D3B15633   1.552   5.723   6.874 -0.0781 -0.0488  0.2201
 1123YOPC   C4B15634   1.922   5.983   7.044 -0.1974  0.3194 -0.0024
 1124YOPC   NC315635   9.821  13.982   5.527 -0.0079 -0.0196 -0.0790
 1124YOPC   PO415636   9.332  14.067   5.568  0.1060 -0.2396 -0.0902
 1124YOPC   GL115637   9.182  13.865   5.848 -0.0412  0.3990 -0.0044
 1124YOPC   GL215638   9.100  13.568   5.869 -0.2564  0.1588 -0.2693
 1124YOPC   C1A15639   9.114  13.698   6.340  0.0109  0.2965 -0.1863
 1124YOPC   D2A15640   9.159  14.029   6.727  0.1370 -0.0620  0.0972
 1124YOPC   C3A15641   8.791  13.926   7.014 -0.1060  0.0043 -0.0371
 1124YOPC   C4A15642   8.535  13.655   7.149  0.1779 -0.1123  0.1525
 1124YOPC   C1B15643   8.930  13.263   6.076  0.1670  0.3433  0.0705
 1124YOPC   C2B15644   8.668  13.047   6.316 -0.0391 -0.1366 -0.1191
 1124YOPC   D3B15645   8.481  13.089   6.691 -0.0082 -0.0131 -0.0678
 1124YOPC   C4B15646   8.496  12.869   7.097 -0.0675  0.2396 -0.0300
 1125YOPC   NC315647  10.302  14.592   5.979 -0.0018 -0.1036  0.2132
 1125YOPC   PO415648  10.300  15.005   6.043 -0.1511 -0.0201 -0.0771
 1125YOPC   GL115649  10.124  15.058   6.376 -0.0477 -0.1473  0.1730
 1125YOPC   GL215650  10.346  15.121   6.554  0.1447  0.1647  0.0745
 1125YOPC   C1A15651   9.973  14.917   6.773  0.1259  0.1869 -0.0970
 1125YOPC   D2A15652   9.811  14.792   7.225  0.1186  0.2794  0.0889
 1125YOPC   C3A15653   9.904  14.350   7.406 -0.1468  0.0782 -0.0898
 1125YOPC   C4A15654  10.105  14.101   7.785 -0.0443 -0.0172  0.3130
 1125YOPC   C1B15655  10.329  15.372   6.960 -0.2551  0.2598 -0.0324
 1125YOPC   C2B15656  10.562  15.562   7.300  0.3406  0.0168  0.2663
 1125YOPC   D3B15657  10.723  15.411   7.700 -0.1274 -0.2128 -0.0328
 1125YOPC   C4B15658  11.042  15.233   7.943  0.0490 -0.4206 -0.1564
 1126YOPC   NC315659   3.599   5.302   4.262 -0.1168  0.0985 -0.3081
 1126YOPC   PO415660   3.773   5.047   4.610  0.1251  0.3298  0.0943
 1126YOPC   GL115661   3.675   4.808   4.979 -0.0784 -0.0837  0.0966
 1126YOPC   GL215662   3.507   5.114   5.171  0.4307 -0.2931  0.0830
 1126YOPC   C1A15663   3.472   4.650   5.346  0.1123 -0.1028  0.0195
 1126YOPC   D2A15664   3.437   4.596   5.750 -0.0125 -0.2339  0.0103
 1126YOPC   C3A15665   3.362   4.496   6.187  0.0078  0.2518 -0.0452
 1126YOPC   C4A15666   3.371   4.542   6.643 -0.1063  0.2724  0.1253
 1126YOPC   C1B15667   3.646   5.506   5.462  0.2052  0.0634 -0.2424
 1126YOPC   C2B15668   3.547   5.877   5.674  0.0933 -0.2751 -0.2963
 1126YOPC   D3B15669   3.486   5.792   6.002 -0.1721  0.1543  0.3439
 1126YOPC   C4B15670   3.260   5.879   6.280 -0.1958  0.0874  0.0351
 1127YOPC   NC315671  17.635   0.447   4.862  0.5016  0.0391 -0.0845
 1127YOPC   PO415672  17.514   0.549   5.395  0.1408  0.2799 -0.0949
 1127YOPC   GL115673  17.522   0.928   5.757  0.0372 -0.2028  0.1097
 1127YOPC   GL215674  17.655   1.282   5.806 -0.1262  0.1488  0.0399
 1127YOPC   C1A15675  17.727   0.959   6.200  0.1470 -0.0761  0.1287
 1127YOPC   D2A15676  18.000   0.923   6.507  0.5809 -0.1382 -0.2190
 1127YOPC   C3A15677  18.240   0.612   6.706  0.1806  0.2522  0.1236
 1127YOPC   C4A15678  18.469   0.261   6.800  0.1564  0.0263 -0.0264
 1127YOPC   C1B15679  17.574   1.395   6.308 -0.3107 -0.3045 -0.0279
 1127YOPC   C2B15680  17.576   1.550   6.685  0.1215 -0.0888 -0.1473
 1127YOPC   D3B15681  17.516   1.997   6.773  0.1552 -0.2460 -0.2332
 1127YOPC   C4B15682  17.315   2.492   6.799  0.0177  0.2078  0.5356
 1128YOPC   NC315683  16.692  18.936   5.954  0.0943 -0.0035  0.0265
 1128YOPC   PO415684  17.054  18.710   5.757  0.0189 -0.4488 -0.1296
 1128YOPC   GL115685  17.237  18.625   6.154  0.1582  0.3601 -0.1663
 1128YOPC   GL215686  17.323  18.859   6.404 -0.0212 -0.3027 -0.1059
 1128YOPC   C1A15687  17.536  18.378   6.419  0.0177 -0.0410 -0.1707
 1128YOPC   D2A15688  17.764  17.937   6.560 -0.4663 -0.1991  0.2063
 1128YOPC   C3A15689  17.642  17.532   6.362  0.0452 -0.2461  0.0838
 1128YOPC   C4A15690  17.600  17.339   5.968 -0.1737  0.1261 -0.2319
 1128YOPC   C1B15691  17.294  18.686   6.807  0.3317 -0.3778  0.1968
 1128YOPC   C2B15692  17.441  18.676   7.104 -0.0371  0.0599  0.2973
 1128YOPC   D3B15693  17.745  18.665   7.403 -0.0672 -0.0257 -0.0138
 1128YOPC   C4B15694  17.908  18.795   7.820 -0.2138  0.4915  0.2280
 1129YOPC   NC315695  18.763  15.986   5.301 -0.0647  0.2928 -0.4277
 1129YOPC   PO415696  18.895  15.692   5.364  0.1444 -0.2801  0.1110
 1129YOPC   GL115697  18.968  15.869   5.824  0.0122 -0.2098  0.0014
 1129YOPC   GL215698  18.744  15.808   5.992 -0.0180 -0.1358 -0.1887
 1129YOPC   C1A15699  19.230  15.799   6.079 -0.0228  0.0302  0.0797
 1129YOPC   D2A15700  18.977  15.764   6.457  0.0792  0.3252 -0.0808
 1129YOPC   C3A15701  18.947  15.800   6.961  0.0581 -0.5884 -0.3059
 1129YOPC   C4A15702  19.174  15.964   7.377  0.1337 -0.1110 -0.1391
 1129YOPC   C1B15703  18.281  15.993   6.054 -0.0152  0.1299 -0.3312
 1129YOPC   C2B15704  18.082  16.239   6.307 -0.1276  0.0008 -0.0858
 1129YOPC   D3B15705  17.977  16.129   6.771  0.2136  0.2455 -0.1793
 1129YOPC   C4B15706  17.693  16.254   7.118 -0.0639  0.2888 -0.0954
 1130YOPC   NC315707  11.248   8.667   5.216  0.0463  0.0262  0.0466
 1130YOPC   PO415708  11.701   8.615   5.089 -0.1373 -0.3558  0.0131
 1130YOPC   GL115709  11.926   8.774   5.437 -0.1504  0.0137  0.2194
 1130YOPC   GL215710  12.014   9.270   5.514 -0.0022  0.1694 -0.1128
 1130YOPC   C1A15711  11.997   8.642   5.836  0.2082 -0.0232 -0.1100
 1130YOPC   D2A15712  12.220   8.751   6.159 -0.0568  0.2693 -0.1818
 1130YOPC   C3A15713  12.057   8.780   6.517  0.3034 -0.2292 -0.0960
 1130YOPC   C4A15714  11.976   8.657   6.926 -0.2616  0.4253 -0.3940
 1130YOPC   C1B15715  11.823   9.524   5.861 -0.1862  0.2410 -0.2872
 1130YOPC   C2B15716  11.568   9.652   6.154 -0.2828 -0.2367  0.1062
 1130YOPC   D3B15717  11.246   9.372   6.222 -0.0762 -0.1233 -0.2417
 1130YOPC   C4B15718  10.814   9.168   6.427  0.2781 -0.0071 -0.1816
 1131YOPC   NC315719  10.149  10.411   5.126 -0.1735  0.3487 -0.0449
 1131YOPC   PO415720  10.175  10.116   5.484 -0.0784 -0.0498  0.1035
 1131YOPC   GL115721  10.360   9.944   5.767  0.4003  0.4906 -0.1170
 1131YOPC   GL215722  10.652  10.096   6.039  0.0556  0.1069 -0.3831
 1131YOPC   C1A15723  10.303   9.801   6.126 -0.0411  0.2354  0.0565
 1131YOPC   D2A15724  10.231   9.779   6.537 -0.0687  0.1848  0.0359
 1131YOPC   C3A15725  10.059   9.967   6.846  0.2369 -0.1249 -0.1474
 1131YOPC   C4A15726   9.962   9.975   7.242 -0.0079 -0.0044 -0.2846
 1131YOPC   C1B15727  10.684   9.963   6.401 -0.3096  0.1362 -0.3159
 1131YOPC   C2B15728  10.697   9.630   6.656 -0.0198  0.1604  0.2098
 1131YOPC   D3B15729  10.459   9.599   7.105 -0.0209  0.0939 -0.0338
 1131YOPC   C4B15730  10.130   9.501   7.408  0.1237  0.0439 -0.0828
 1132YOPC   NC315731   4.664   9.350   4.894  0.2312 -0.0068 -0.4107
 1132YOPC   PO415732   4.497   8.967   4.982 -0.3337 -0.2019 -0.4143
 1132YOPC   GL115733   4.351   9.056   5.318  0.1663  0.1901 -0.0489
 1132YOPC   GL215734   4.364   9.424   5.325 -0.2550 -0.0595 -0.2858
 1132YOPC   C1A15735   4.569   8.816   5.627 -0.3519 -0.1651  0.1160
 1132YOPC   D2A15736   5.003   8.550   5.696 -0.0811 -0.0992  0.0112
 1132YOPC   C3A15737   5.195   8.503   6.097 -0.3116  0.1337  0.1140
 1132YOPC   C4A15738   5.401   8.268   6.344  0.2336 -0.1428  0.0531
 1132YOPC   C1B15739   4.488   9.504   5.685 -0.2046 -0.3555  0.1194
 1132YOPC   C2B15740   4.464   9.510   6.113  0.0974  0.3019  0.0671
 1132YOPC   D3B15741   4.463   9.828   6.280 -0.1034 -0.0616  0.0619
 1132YOPC   C4B15742   4.585  10.060   6.553  0.6086 -0.0587 -0.1022
 1133YOPC   NC315743  13.075   2.090   5.910  0.0102  0.0751 -0.0775
 1133YOPC   PO415744  13.042   2.468   5.770 -0.0123 -0.1251 -0.4717
 1133YOPC   GL115745  12.797   2.470   6.186 -0.1719 -0.1072 -0.2268
 1133YOPC   GL215746  13.127   2.362   6.334 -0.0659 -0.2094 -0.1509
 1133YOPC   C1A15747  12.415   2.522   6.486  0.1035  0.0189  0.1906
 1133YOPC   D2A15748  12.452   2.559   6.879  0.1113  0.0243  0.0710
 1133YOPC   C3A15749  12.321   2.302   7.163  0.1509 -0.0732  0.0221
 1133YOPC   C4A15750  12.115   2.255   7.500 -0.0999 -0.0677 -0.1231
 1133YOPC   C1B15751  13.372   2.448   6.648 -0.0521  0.0468 -0.2347
 1133YOPC   C2B15752  13.504   2.670   7.023 -0.3158 -0.1205  0.0217
 1133YOPC   D3B15753  13.216   2.889   7.289  0.4264 -0.2085 -0.1341
 1133YOPC   C4B15754  13.000   2.605   7.611 -0.1426  0.1306 -0.1433
 1134YOPC   NC315755   0.644   0.756   5.359 -0.2609 -0.0988  0.0077
 1134YOPC   PO415756   0.471   1.141   5.266  0.1209 -0.4614 -0.0858
 1134YOPC   GL115757   0.312   1.189   5.655  0.2357  0.2142  0.0397
 1134YOPC   GL215758   0.080   1.003   5.677 -0.4221  0.1325 -0.1023
 1134YOPC   C1A15759   0.375   1.295   6.071 -0.2502 -0.2651  0.0457
 1134YOPC   D2A15760   0.395   1.375   6.464 -0.0950 -0.1086  0.1478
 1134YOPC   C3A15761   0.087   1.700   6.560  0.1101  0.0013 -0.1002
 1134YOPC   C4A15762  -0.007   2.126   6.340 -0.4423  0.0205  0.0624
 1134YOPC   C1B15763   0.061   0.932   6.023  0.0972 -0.2427 -0.0803
 1134YOPC   C2B15764  -0.142   0.652   6.368 -0.1756 -0.0453 -0.1330
 1134YOPC   D3B15765   0.065   0.292   6.483  0.1460 -0.1229 -0.0807
 1134YOPC   C4B15766   0.313   0.224   6.898  0.0847  0.0475  0.1562
 1135YOPC   NC315767  11.469  10.405   4.873 -0.0153 -0.0434  0.0510
 1135YOPC   PO415768  11.134  10.244   5.165 -0.0135 -0.2538  0.2181
 1135YOPC   GL115769  11.258  10.049   5.595  0.1956 -0.2137 -0.0722
 1135YOPC   GL215770  11.651   9.901   5.547  0.0369  0.0775 -0.1347
 1135YOPC   C1A15771  11.135   9.894   6.102  0.1118  0.1229 -0.1210
 1135YOPC   D2A15772  11.141   9.707   6.533 -0.1127 -0.1483  0.0313
 1135YOPC   C3A15773  11.138   9.278   6.749  0.0118 -0.1626 -0.4254
 1135YOPC   C4A15774  10.861   9.079   7.022 -0.1374  0.1151 -0.2381
 1135YOPC   C1B15775  11.355   9.607   5.704 -0.0657 -0.1429 -0.3058
 1135YOPC   C2B15776  11.064   9.153   5.763 -0.0160  0.3429  0.0956
 1135YOPC   D3B15777  10.803   9.137   5.927  0.0876  0.0722  0.2937
 1135YOPC   C4B15778  10.733   9.573   6.124  0.1206  0.0247  0.0304
 1136YOPC   NC315779  18.012   8.701   4.845  0.1710 -0.1979 -0.0842
 1136YOPC   PO415780  18.199   8.990   5.042 -0.2314 -0.3940  0.0058
 1136YOPC   GL115781  18.155   8.830   5.448  0.1131  0.1589 -0.0774
 1136YOPC   GL215782  17.833   8.830   5.613  0.0877  0.4301 -0.0822
 1136YOPC   C1A15783  18.313   8.821   5.962  0.1981  0.0286  0.0339
 1136YOPC   D2A15784  18.692   8.631   6.154  0.1914  0.0465 -0.1292
 1136YOPC   C3A15785  18.722   8.317   6.316 -0.0117  0.1816  0.1217
 1136YOPC   C4A15786  19.021   7.960   6.304  0.0725 -0.0646  0.1616
 1136YOPC   C1B15787  17.810   8.707   6.049 -0.2399 -0.0652 -0.2576
 1136YOPC   C2B15788  17.593   8.624   6.456  0.0337  0.0178 -0.1360
 1136YOPC   D3B15789  17.791   8.692   6.785 -0.0179  0.0190  0.2339
 1136YOPC   C4B15790  18.086   8.747   7.066 -0.1830 -0.0613  0.0881
 1137YOPC   NC315791   8.105   6.633   5.265 -0.1390 -0.0422 -0.2351
 1137YOPC   PO415792   7.716   6.408   5.425  0.0157 -0.1232 -0.1064
 1137YOPC   GL115793   7.206   6.383   5.530  0.0081  0.1216  0.1465
 1137YOPC   GL215794   7.355   6.612   5.804 -0.1933 -0.2177 -0.3331
 1137YOPC   C1A15795   6.934   6.370   5.924 -0.2598  0.0901  0.0087
 1137YOPC   D2A15796   6.861   6.132   6.231  0.0274 -0.2376  0.3946
 1137YOPC   C3A15797   7.034   5.861   6.031 -0.0019 -0.0044  0.0557
 1137YOPC   C4A15798   7.268   5.526   6.129  0.0730  0.1400  0.2593
 1137YOPC   C1B15799   7.664   6.659   6.136 -0.1588 -0.2280 -0.0336
 1137YOPC   C2B15800   7.847   6.505   6.444 -0.1811 -0.2194 -0.2614
 1137YOPC   D3B15801   8.251   6.505   6.451  0.0081  0.0222 -0.1422
 1137YOPC   C4B15802   8.649   6.626   6.140 -0.3145  0.2273 -0.3096
 1138YOPC   NC315803   6.364   1.640   4.627 -0.0053  0.0770 -0.2373
 1138YOPC   PO415804   6.038   2.039   4.693 -0.1903 -0.0030 -0.3660
 1138YOPC   GL115805   6.201   2.176   5.163  0.0604  0.0277  0.0239
 1138YOPC   GL215806   6.451   2.220   5.348  0.0504 -0.0827  0.4057
 1138YOPC   C1A15807   6.056   2.320   5.590  0.3890 -0.2948 -0.2247
 1138YOPC   D2A15808   5.820   2.432   6.019  0.3186  0.2055  0.4406
 1138YOPC   C3A15809   6.018   2.248   6.351 -0.2568 -0.0786 -0.1247
 1138YOPC   C4A15810   6.040   2.372   6.784 -0.0896  0.0882  0.3063
 1138YOPC   C1B15811   6.317   1.874   5.580  0.1750 -0.2683  0.3555
 1138YOPC   C2B15812   6.364   1.566   5.958 -0.4110  0.1448  0.1415
 1138YOPC   D3B15813   6.112   1.246   6.014 -0.1430  0.3842 -0.2132
 1138YOPC   C4B15814   5.820   0.975   6.208 -0.2078  0.1850 -0.2100
 1139YOPC   NC315815   8.579   8.825   4.687  0.0155  0.0380  0.0437
 1139YOPC   PO415816   8.960   9.054   5.025  0.0481 -0.2215  0.0513
 1139YOPC   GL115817   8.849   8.767   5.508  0.3132 -0.0515 -0.1460
 1139YOPC   GL215818   8.690   9.093   5.661  0.1973  0.1574  0.1600
 1139YOPC   C1A15819   8.604   8.485   5.836  0.0041 -0.1039 -0.1650
 1139YOPC   D2A15820   8.475   8.420   6.219  0.0562 -0.0569 -0.1553
 1139YOPC   C3A15821   8.644   8.314   6.666  0.2529  0.1537 -0.1873
 1139YOPC   C4A15822   8.641   8.379   7.074 -0.0512 -0.1999 -0.2223
 1139YOPC   C1B15823   9.015   8.901   6.032 -0.0597 -0.4069  0.0236
 1139YOPC   C2B15824   9.158   9.141   6.381 -0.2581  0.0826 -0.2030
 1139YOPC   D3B15825   9.449   9.163   6.330 -0.1573  0.2568 -0.1576
 1139YOPC   C4B15826   9.558   9.037   6.001  0.1353 -0.1636  0.0382
 1140YOPC   NC315827   8.041  17.614   6.009 -0.0424  0.0302  0.0338
 1140YOPC   PO415828   7.961  17.060   5.887  0.1255 -0.0081  0.2653
 1140YOPC   GL115829   7.722  17.131   6.300 -0.0098  0.3428 -0.3182
 1140YOPC   GL215830   7.835  17.473   6.505 -0.2405  0.1298 -0.0488
 1140YOPC   C1A15831   7.345  17.376   6.498 -0.0089 -0.0904 -0.2526
 1140YOPC   D2A15832   7.138  17.747   6.489  0.2136  0.3523 -0.2274
 1140YOPC   C3A15833   6.943  17.883   6.811 -0.2307  0.0831 -0.2008
 1140YOPC   C4A15834   6.701  17.823   7.096 -0.1143  0.1721 -0.0328
 1140YOPC   C1B15835   8.015  17.764   6.818 -0.0615  0.0196  0.1582
 1140YOPC   C2B15836   8.122  17.835   7.250  0.2007 -0.1071  0.0899
 1140YOPC   D3B15837   7.811  17.583   7.464  0.1132 -0.1904 -0.3034
 1140YOPC   C4B15838   7.426  17.400   7.507 -0.2666  0.1958  0.2632
 1141YOPC   NC315839   0.610   0.845   4.871  0.0498  0.0334 -0.0011
 1141YOPC   PO415840   1.009   1.013   5.033  0.3009  0.0796  0.0317
 1141YOPC   GL115841   1.144   0.753   5.400 -0.3015 -0.0430  0.0629
 1141YOPC   GL215842   1.092   0.664   5.728 -0.0003 -0.3294  0.0849
 1141YOPC   C1A15843   1.331   1.054   5.716  0.3714  0.6593 -0.1401
 1141YOPC   D2A15844   1.363   1.560   5.681  0.0373 -0.0131 -0.0380
 1141YOPC   C3A15845   1.265   1.890   5.925  0.1224  0.0251 -0.1458
 1141YOPC   C4A15846   0.871   2.023   5.886  0.0836  0.4409 -0.3216
 1141YOPC   C1B15847   1.140   0.847   6.159 -0.1001 -0.1669 -0.3687
 1141YOPC   C2B15848   1.326   1.088   6.503 -0.0860  0.2793 -0.3475
 1141YOPC   D3B15849   1.677   0.923   6.491 -0.2507  0.1237 -0.0323
 1141YOPC   C4B15850   1.744   0.655   6.164 -0.2627 -0.1825  0.4415
 1142YOPC   NC315851  12.856  13.270   5.581  0.0194 -0.3707  0.0783
 1142YOPC   PO415852  12.555  12.982   5.484 -0.1241 -0.2001 -0.1182
 1142YOPC   GL115853  12.551  12.868   5.882  0.1296  0.0326  0.2600
 1142YOPC   GL215854  12.950  12.958   6.050  0.0994  0.0571  0.0020
 1142YOPC   C1A15855  12.435  12.742   6.287  0.0478  0.0910 -0.1409
 1142YOPC   D2A15856  12.471  12.663   6.781  0.0377  0.2252 -0.1333
 1142YOPC   C3A15857  12.601  12.461   7.169 -0.0376  0.0719  0.2753
 1142YOPC   C4A15858  12.498  12.412   7.533  0.1398 -0.1638 -0.0829
 1142YOPC   C1B15859  13.011  12.666   6.457  0.2871 -0.1806 -0.0500
 1142YOPC   C2B15860  13.257  12.207   6.690 -0.0571 -0.0308  0.1307
 1142YOPC   D3B15861  13.578  12.198   6.982 -0.0160 -0.2675  0.0855
 1142YOPC   C4B15862  13.921  12.489   7.119  0.2351  0.0609  0.3615
 1143ERGO   ROH15863   3.432   6.274   5.376 -0.2396 -0.0632  0.0974
 1143ERGO    R115864   3.526   6.381   5.621  0.0939 -0.0345 -0.0388
 1143ERGO    R215865   3.356   6.455   5.825  0.3448  0.3576  0.0332
 1143ERGO    R315866   3.513   6.289   5.972  0.2024  0.2223  0.0360
 1143ERGO    R415867   3.328   6.407   6.166  0.1777  0.2460  0.0056
 1143ERGO    R515868   3.546   6.405   6.179  0.1757  0.1323  0.0943
 1143ERGO    C115869   3.459   6.223   6.503 -0.0533  0.0539 -0.0078
 1143ERGO    C215870   3.250   6.227   6.792  0.2255 -0.1511 -0.3326
 1144ERGO   ROH15871   8.390  12.453   5.855  0.0009  0.3146  0.0470
 1144ERGO    R115872   8.476  12.414   6.122 -0.0824  0.1238  0.0476
 1144ERGO    R215873   8.441  12.605   6.320 -0.1045 -0.0001  0.1629
 1144ERGO    R315874   8.321  12.399   6.451 -0.1783 -0.0650 -0.0049
 1144ERGO    R415875   8.305  12.623   6.637 -0.1307 -0.1995  0.1647
 1144ERGO    R515876   8.386  12.426   6.679 -0.1925 -0.2565  0.0239
 1144ERGO    C115877   8.113  12.440   6.944 -0.2152 -0.3765  0.0082
 1144ERGO    C215878   8.020  12.528   7.159 -0.1650  0.0832 -0.0939
 1145ERGO   ROH15879  13.360   9.578   5.929 -0.0555  0.1825  0.1943
 1145ERGO    R115880  13.184   9.550   6.149 -0.0537  0.1111  0.1872
 1145ERGO    R215881  13.138   9.307   6.274 -0.1408  0.0479  0.0368
 1145ERGO    R315882  13.210   9.445   6.497 -0.0735 -0.1206  0.1205
 1145ERGO    R415883  13.030   9.234   6.594 -0.4576  0.1153 -0.0523
 1145ERGO    R515884  13.011   9.448   6.631 -0.1593  0.1386 -0.0064
 1145ERGO    C115885  13.033   9.321   6.989 -0.5788 -0.0036 -0.0255
 1145ERGO    C215886  12.868   9.154   7.137 -0.0010  0.4705 -0.0275
 1146ERGO   ROH15887  10.365   9.299   5.569  0.0734  0.0543  0.2264
 1146ERGO    R115888  10.314   9.354   5.842  0.1785  0.0222  0.2536
 1146ERGO    R215889  10.168   9.184   6.003  0.0615  0.1005  0.2371
 1146ERGO    R315890  10.388   9.197   6.162  0.1108 -0.1360  0.1915
 1146ERGO    R415891  10.166   9.154   6.347  0.0916  0.2062  0.2465
 1146ERGO    R515892  10.314   9.313   6.357  0.2994  0.0186  0.1713
 1146ERGO    C115893  10.372   9.149   6.697  0.1554  0.0457  0.2091
 1146ERGO    C215894  10.433   8.915   6.921  0.0149  0.0681 -0.1688
 1147ERGO   ROH15895  15.679  14.779   6.011  0.0912  0.1899 -0.0636
 1147ERGO    R115896  15.790  14.693   6.257 -0.0766  0.0405 -0.0407
 1147ERGO    R215897  15.945  14.858   6.417 -0.0686 -0.1079  0.0866
 1147ERGO    R315898  15.763  14.790   6.607 -0.1887 -0.0763 -0.0122
 1147ERGO    R415899  15.995  14.883   6.758 -0.1555 -0.2934  0.1158
 1147ERGO    R515900  15.892  14.693   6.782 -0.3002 -0.2498 -0.0097
 1147ERGO    C115901  15.853  14.833   7.135 -0.3189 -0.3718  0.0400
 1147ERGO    C215902  16.006  14.914   7.476 -0.3316 -0.0239 -0.1004
 1148ERGO   ROH15903  11.624   9.273   5.240 -0.1421  0.0334 -0.1384
 1148ERGO    R115904  11.542   9.220   5.506 -0.0849  0.0215 -0.1233
 1148ERGO    R215905  11.482   8.966   5.595 -0.0017  0.0101 -0.1046
 1148ERGO    R315906  11.666   9.025   5.787  0.0127  0.0656 -0.1345
 1148ERGO    R415907  11.455   8.877   5.928  0.1579 -0.1474 -0.1316
 1148ERGO    R515908  11.534   9.073   5.982  0.0316 -0.1090 -0.0754
 1148ERGO    C115909  11.611   8.881   6.302  0.2644 -0.1871 -0.1754
 1148ERGO    C215910  11.630   8.936   6.675  0.0608 -0.1949  0.2411
 1149ERGO   ROH15911   1.640   2.109   5.549 -0.1770  0.0145  0.1221
 1149ERGO    R115912   1.738   2.103   5.814 -0.0673 -0.0392  0.0819
 1149ERGO    R215913   1.746   1.872   5.966  0.1237 -0.1005 -0.0120
 1149ERGO    R315914   2.009   1.938   5.993  0.0984  0.0371 -0.0960
 1149ERGO    R415915   1.954   1.755   6.215  0.2367  0.1101 -0.0055
 1149ERGO    R515916   2.042   1.954   6.229  0.1440  0.1566 -0.1120
 1149ERGO    C115917   2.321   1.747   6.386  0.2787  0.3620 -0.0806
 1149ERGO    C215918   2.617   1.644   6.553  0.0152  0.0720 -0.0292
 1150ERGO   ROH15919   6.126  13.032   6.177  0.0979 -0.0133 -0.2376
 1150ERGO    R115920   5.966  13.015   6.410  0.1941 -0.1842 -0.1834
 1150ERGO    R215921   6.060  12.908   6.647  0.4837  0.1604 -0.1374
 1150ERGO    R315922   5.979  13.147   6.749  0.0234  0.0725 -0.2727
 1150ERGO    R415923   5.921  12.952   6.961  0.5893  0.0885 -0.0792
 1150ERGO    R515924   5.781  13.094   6.873  0.2092 -0.2773 -0.1047
 1150ERGO    C115925   5.763  13.201   7.239  0.2186 -0.0359 -0.1723
 1150ERGO    C215926   5.727  13.365   7.587 -0.0371  0.0968 -0.1607
 1151ERGO   ROH15927   5.211  18.573   6.108  0.0840 -0.5900 -0.0199
 1151ERGO    R115928   5.066  18.662   6.334  0.0680 -0.4272 -0.0926
 1151ERGO    R215929   5.067  18.526   6.575  0.0447 -0.2602  0.0049
 1151ERGO    R315930   5.143  18.768   6.674  0.0447 -0.1920 -0.1599
 1151ERGO    R415931   5.099  18.602   6.911  0.0750 -0.0341 -0.0473
 1151ERGO    R515932   5.010  18.796   6.871  0.0646 -0.0654 -0.1661
 1151ERGO    C115933   5.189  18.873   7.199  0.0924  0.1617 -0.2325
 1151ERGO    C215934   5.328  18.663   7.491  0.3109 -0.3544  0.3971
 1152ERGO   ROH15935  18.935   3.999   5.671  0.2647 -0.0000  0.0420
 1152ERGO    R115936  19.081   4.136   5.871  0.0848  0.1337  0.0833
 1152ERGO    R215937  18.965   4.325   6.036 -0.1632 -0.0568  0.1326
 1152ERGO    R315938  19.067   4.169   6.233  0.0331  0.0177  0.0922
 1152ERGO    R415939  19.124   4.443   6.319 -0.0414  0.0574  0.0180
 1152ERGO    R515940  19.268   4.281   6.300  0.0236  0.1217 -0.0484
 1152ERGO    C115941  19.313   4.365   6.669  0.2138  0.1938 -0.0866
 1152ERGO    C215942  19.663   4.381   6.943 -0.2818  0.0928 -0.1024
 1153ERGO   ROH15943  11.949  17.725   9.653 -0.0924  0.2052  0.0495
 1153ERGO    R115944  11.804  17.687   9.413 -0.0730  0.1734  0.0430
 1153ERGO    R215945  11.778  17.885   9.222  0.0243  0.1158 -0.0287
 1153ERGO    R315946  11.878  17.694   9.056 -0.0226  0.0229  0.0490
 1153ERGO    R415947  11.708  17.861   8.885  0.2526  0.1833 -0.0830
 1153ERGO    R515948  11.696  17.644   8.908  0.0379  0.1890 -0.0874
 1153ERGO    C115949  11.760  17.667   8.533  0.3415  0.1355 -0.0418
 1153ERGO    C215950  11.882  17.758   8.106 -0.1302  0.3061  0.1997
 1154ERGO   ROH15951   8.906  17.621   6.547  0.0653  0.0310 -0.0161
 1154ERGO    R115952   8.762  17.587   6.789  0.1241 -0.1499 -0.0053
 1154ERGO    R215953   8.858  17.435   6.999  0.3294 -0.0375 -0.0141
 1154ERGO    R315954   8.814  17.663   7.141  0.0595 -0.0884 -0.0091
 1154ERGO    R415955   8.793  17.447   7.338  0.3538 -0.1143 -0.0063
 1154ERGO    R515956   8.645  17.603   7.299  0.1524 -0.2988  0.0115
 1154ERGO    C115957   8.715  17.668   7.669  0.1147 -0.2067  0.0030
 1154ERGO    C215958   8.828  17.628   8.099 -0.0395  0.2257 -0.0692
 1155ERGO   ROH15959  14.304   4.414   5.745  0.1757 -0.1615 -0.0630
 1155ERGO    R115960  14.432   4.376   5.995  0.1229 -0.0724 -0.0217
 1155ERGO    R215961  14.708   4.373   6.021  0.1187 -0.0596  0.0387
 1155ERGO    R315962  14.660   4.566   6.206  0.0749  0.0055 -0.0402
 1155ERGO    R415963  14.909   4.438   6.295 -0.0471 -0.0850  0.1683
 1155ERGO    R515964  14.728   4.468   6.414 -0.1179  0.0248  0.0329
 1155ERGO    C115965  14.981   4.658   6.627 -0.1847 -0.0388  0.1697
 1155ERGO    C215966  15.034   4.686   6.928 -0.2572  0.2847  0.0989
 1156ERGO   ROH15967   9.168   8.177   5.424  0.1920 -0.1176  0.1020
 1156ERGO    R115968   9.065   8.273   5.669  0.1028 -0.0665  0.0445
 1156ERGO    R215969   8.966   8.105   5.865 -0.0305 -0.0202  0.0146
 1156ERGO    R315970   9.145   8.237   6.022 -0.0713 -0.0507  0.0872
 1156ERGO    R415971   8.954   8.117   6.210 -0.3354  0.2093  0.0004
 1156ERGO    R515972   9.012   8.327   6.200 -0.1698  0.1644 -0.0874
 1156ERGO    C115973   9.114   8.247   6.559 -0.5511  0.3144  0.0602
 1156ERGO    C215974   9.137   8.123   6.947  0.0489  0.0932 -0.0364
 1157ERGO   ROH15975  18.752  17.212   5.710  0.0426 -0.0077  0.0308
 1157ERGO    R115976  18.866  17.344   5.933 -0.0305  0.1984 -0.0496
 1157ERGO    R215977  18.770  17.585   6.030 -0.3475  0.0734 -0.0306
 1157ERGO    R315978  18.754  17.447   6.264 -0.0112  0.0738 -0.0042
 1157ERGO    R415979  18.727  17.728   6.342 -0.1778  0.0518  0.0029
 1157ERGO    R515980  18.869  17.585   6.422  0.0197  0.1794 -0.1201
 1157ERGO    C115981  18.687  17.681   6.743  0.2370  0.0396  0.0470
 1157ERGO    C215982  18.483  17.691   7.111 -0.2029 -0.0253  0.0492
 1158ERGO   ROH15983   1.075  18.949   6.083  0.0012 -0.0178 -0.0929
 1158ERGO    R115984   1.116  19.050   6.344 -0.0858 -0.0328 -0.0731
 1158ERGO    R215985   1.163  19.317   6.395  0.1614 -0.0744 -0.0696
 1158ERGO    R315986   0.952  19.289   6.564  0.0020  0.1672 -0.2228
 1158ERGO    R415987   1.120  19.496   6.688  0.2894 -0.2062  0.0316
 1158ERGO    R515988   1.047  19.314   6.783 -0.0886 -0.1556 -0.1425
 1158ERGO    C115989   0.896  19.575   7.017  0.2142 -0.0562 -0.0531
 1158ERGO    C215990   0.628  19.835   7.154 -0.0767 -0.3874  0.2411
 1159ERGO   ROH15991   6.737   7.740   5.469 -0.0362 -0.0624 -0.1896
 1159ERGO    R115992   6.680   7.560   5.680 -0.0905  0.0235 -0.1300
 1159ERGO    R215993   6.843   7.535   5.902 -0.0273 -0.0458 -0.1860
 1159ERGO    R315994   6.611   7.583   6.036  0.0564  0.1495 -0.1077
 1159ERGO    R415995   6.761   7.402   6.211 -0.0711 -0.0691 -0.2077
 1159ERGO    R515996   6.557   7.374   6.140 -0.1261  0.1633 -0.1640
 1159ERGO    C115997   6.496   7.371   6.516 -0.0181  0.1006 -0.1468
 1159ERGO    C215998   6.600   7.485   6.860  0.2716 -0.0191  0.0698
 1160ERGO   ROH15999  11.965  10.303   5.708 -0.1194  0.0331 -0.0081
 1160ERGO    R116000  12.012  10.057   5.841 -0.2014  0.0064 -0.0274
 1160ERGO    R216001  12.230  10.017   6.007 -0.1993 -0.0891 -0.0546
 1160ERGO    R316002  12.038   9.944   6.186 -0.2069 -0.0251 -0.0364
 1160ERGO    R416003  12.269   9.776   6.252 -0.2420 -0.0888 -0.0478
 1160ERGO    R516004  12.066   9.708   6.210 -0.2684 -0.0343 -0.0295
 1160ERGO    C116005  12.112   9.567   6.561 -0.2742 -0.0285 -0.0269
 1160ERGO    C216006  12.085   9.282   6.721  0.0665  0.0514  0.1435
 1161ERGO   ROH16007   9.355  14.986   6.063  0.0556  0.4129  0.0310
 1161ERGO    R116008   9.156  14.845   6.207  0.1009  0.3008 -0.0162
 1161ERGO    R216009   9.215  14.633   6.374  0.1786  0.3219 -0.0224
 1161ERGO    R316010   9.079  14.781   6.557  0.0659  0.2358 -0.0346
 1161ERGO    R416011   9.123  14.522   6.688  0.1861  0.2433 -0.0471
 1161ERGO    R516012   8.932  14.624   6.662  0.1317  0.1434 -0.0732
 1161ERGO    C116013   8.941  14.596   7.043  0.0844  0.1165 -0.0730
 1161ERGO    C216014   8.772  14.486   7.181 -0.1915  0.0487 -0.1889
 1162ERGO   ROH16015   7.166   3.437   5.548 -0.3473  0.1172 -0.1222
 1162ERGO    R116016   6.965   3.462   5.746 -0.2844  0.2818 -0.0767
 1162ERGO    R216017   6.938   3.282   5.954 -0.5341  0.1588 -0.2070
 1162ERGO    R316018   6.953   3.507   6.107 -0.1590  0.0275 -0.0396
 1162ERGO    R416019   6.869   3.296   6.292 -0.2623 -0.0169 -0.1415
 1162ERGO    R516020   6.770   3.487   6.259 -0.0672  0.1260  0.0828
 1162ERGO    C116021   6.843   3.514   6.633  0.2482 -0.2425  0.0538
 1162ERGO    C216022   6.960   3.648   6.899 -0.1470 -0.1081 -0.0335
 1163ERGO   ROH16023  14.349  10.247   6.034  0.0272 -0.1016 -0.0038
 1163ERGO    R116024  14.441  10.252   6.301  0.0864  0.0669 -0.0254
 1163ERGO    R216025  14.517  10.486   6.428 -0.1923  0.1975 -0.0826
 1163ERGO    R316026  14.336  10.406   6.614 -0.0472 -0.0162 -0.0302
 1163ERGO    R416027  14.504  10.600   6.754 -0.3274  0.2917 -0.1206
 1163ERGO    R516028  14.460  10.397   6.818 -0.0074  0.2452 -0.0429
 1163ERGO    C116029  14.326  10.591   7.118 -0.2698  0.1460 -0.0936
 1163ERGO    C216030  14.094  10.714   7.296 -0.1266  0.1596 -0.3682
 1164ERGO   ROH16031   2.465   3.388   5.389 -0.0925 -0.1082 -0.0479
 1164ERGO    R116032   2.557   3.327   5.650 -0.1256  0.0474  0.0012
 1164ERGO    R216033   2.583   3.518   5.847 -0.2115  0.1546 -0.0909
 1164ERGO    R316034   2.425   3.347   5.988 -0.1942  0.1860 -0.0331
 1164ERGO    R416035   2.644   3.416   6.171 -0.0829  0.1000 -0.1320
 1164ERGO    R516036   2.580   3.215   6.115 -0.1711  0.1252 -0.1237
 1164ERGO    C116037   2.533   3.196   6.493  0.0082  0.0976 -0.1016
 1164ERGO    C216038   2.706   3.225   6.694  0.2477 -0.1888 -0.1788
 1165ERGO   ROH16039  12.172   5.409   6.138 -0.2886 -0.1100 -0.1549
 1165ERGO    R116040  12.168   5.477   6.413 -0.0405 -0.2361 -0.1196
 1165ERGO    R216041  11.934   5.538   6.548  0.1108 -0.0899  0.0617
 1165ERGO    R316042  12.019   5.342   6.716  0.0452 -0.2428 -0.0771
 1165ERGO    R416043  11.839   5.505   6.879  0.2475 -0.1627  0.0963
 1165ERGO    R516044  12.044   5.451   6.927  0.2409 -0.3520 -0.0336
 1165ERGO    C116045  11.864   5.302   7.229  0.2655 -0.3487 -0.0140
 1165ERGO    C216046  11.854   5.239   7.530  0.2106  0.0565  0.2746
 1166ERGO   ROH16047  16.956   8.552   5.464  0.1472 -0.0843 -0.0526
 1166ERGO    R116048  16.824   8.437   5.687  0.0869 -0.0901 -0.0901
 1166ERGO    R216049  16.895   8.191   5.791  0.0403 -0.1074 -0.0926
 1166ERGO    R316050  16.916   8.332   6.023  0.0039 -0.1262 -0.0790
 1166ERGO    R416051  17.004   8.062   6.093  0.0854 -0.1066 -0.1096
 1166ERGO    R516052  16.849   8.178   6.193  0.0543 -0.1634 -0.0942
 1166ERGO    C116053  17.087   8.118   6.485  0.0775 -0.1237 -0.1066
 1166ERGO    C216054  17.050   8.232   6.835  0.2542 -0.0017  0.0324
 1167ERGO   ROH16055   2.973   4.541   5.084  0.1169  0.1706  0.0004
 1167ERGO    R116056   2.959   4.683   5.328  0.0693  0.0757  0.0533
 1167ERGO    R216057   2.740   4.670   5.496 -0.0044  0.0894 -0.0440
 1167ERGO    R316058   2.926   4.600   5.681 -0.1087 -0.0555  0.0078
 1167ERGO    R416059   2.722   4.747   5.832  0.0659  0.3058 -0.0883
 1167ERGO    R516060   2.936   4.788   5.829  0.1271  0.0209 -0.0975
 1167ERGO    C116061   2.886   4.726   6.202  0.0088  0.2957 -0.0654
 1167ERGO    C216062   2.816   4.586   6.559  0.4070 -0.1407  0.0437
 1168ERGO   ROH16063  14.272  12.583   5.917  0.2514  0.1455  0.1423
 1168ERGO    R116064  14.226  12.576   6.197  0.1591  0.0356  0.1254
 1168ERGO    R216065  14.004  12.455   6.308  0.0233  0.1538 -0.0075
 1168ERGO    R316066  14.191  12.320   6.453 -0.1276 -0.0735 -0.0202
 1168ERGO    R416067  13.937  12.264   6.588 -0.2249 -0.0422 -0.1953
 1168ERGO    R516068  14.118  12.343   6.680 -0.2265 -0.2214 -0.0369
 1168ERGO    C116069  14.073  12.027   6.887 -0.5111 -0.3697 -0.3167
 1168ERGO    C216070  14.010  11.802   7.025  0.3760  0.0201 -0.1381
 1169ERGO   ROH16071  10.505  18.797   6.150  0.0670  0.0076 -0.1248
 1169ERGO    R116072  10.380  18.798   6.404  0.1540  0.2265 -0.0815
 1169ERGO    R216073  10.335  18.568   6.549 -0.4037  0.2685 -0.1705
 1169ERGO    R316074  10.470  18.701   6.743  0.0266 -0.1627 -0.1534
 1169ERGO    R416075  10.296  18.515   6.888 -0.4474  0.2324 -0.1808
 1169ERGO    R516076  10.309  18.731   6.918  0.1441  0.2042 -0.0956
 1169ERGO    C116077  10.400  18.610   7.268 -0.0689 -0.1932 -0.1707
 1169ERGO    C216078  10.547  18.579   7.621 -0.4842 -0.2481 -0.0941
 1170ERGO   ROH16079   6.852   1.769   5.516 -0.2206  0.0293 -0.0814
 1170ERGO    R116080   6.870   2.007   5.669 -0.3786  0.0051 -0.0235
 1170ERGO    R216081   6.699   2.061   5.880 -0.1741 -0.3481  0.2403
 1170ERGO    R316082   6.932   2.092   6.017 -0.0153 -0.0292 -0.0732
 1170ERGO    R416083   6.734   2.245   6.170 -0.0707 -0.3876  0.2532
 1170ERGO    R516084   6.925   2.318   6.095 -0.2736 -0.0534  0.0030
 1170ERGO    C116085   6.973   2.382   6.468  0.1387 -0.1112 -0.0335
 1170ERGO    C216086   7.252   2.436   6.854 -0.0620 -0.0398 -0.2591
 1171ERGO   ROH16087   1.383  18.242   5.834 -0.0039 -0.1027  0.0019
 1171ERGO    R116088   1.534  18.175   6.064 -0.2091 -0.0419  0.1563
 1171ERGO    R216089   1.419  18.075   6.294 -0.3705 -0.4171 -0.0831
 1171ERGO    R316090   1.600  17.875   6.260  0.0088 -0.1008 -0.0005
 1171ERGO    R416091   1.595  17.922   6.549 -0.3348 -0.2030  0.0234
 1171ERGO    R516092   1.771  17.922   6.420 -0.2085  0.1439  0.1743
 1171ERGO    C116093   1.868  17.646   6.665  0.0421  0.2188  0.1630
 1171ERGO    C216094   1.820  17.558   7.036  0.0348 -0.1163  0.1759
 1172ERGO   ROH16095  14.530   7.726   5.701  0.0212  0.0096  0.0055
 1172ERGO    R116096  14.754   7.636   5.848 -0.0267  0.0081  0.0773
 1172ERGO    R216097  15.000   7.762   5.837  0.0011 -0.0480  0.0847
 1172ERGO    R316098  14.971   7.770   6.108 -0.0481  0.0431  0.0778
 1172ERGO    R416099  15.166   7.981   6.047  0.0054 -0.0128  0.0452
 1172ERGO    R516100  15.191   7.818   6.189 -0.0526  0.0260  0.1029
 1172ERGO    C116101  15.236   8.116   6.423 -0.0383  0.0932  0.0157
 1172ERGO    C216102  15.355   8.180   6.775  0.4349  0.1170  0.2880
 1173ERGO   ROH16103  12.975   3.722   6.274  0.2319 -0.0864 -0.0522
 1173ERGO    R116104  13.056   3.567   6.497  0.0214 -0.1333 -0.0058
 1173ERGO    R216105  13.038   3.660   6.757  0.0734 -0.0615 -0.0251
 1173ERGO    R316106  12.898   3.430   6.796 -0.1886  0.0976 -0.0086
 1173ERGO    R416107  12.981   3.515   7.065  0.1050 -0.1002 -0.0376
 1173ERGO    R516108  13.015   3.319   6.973 -0.2035 -0.1127 -0.1302
 1173ERGO    C116109  12.816   3.214   7.281 -0.1225  0.0266 -0.0295
 1173ERGO    C216110  12.759   3.097   7.563 -0.1417 -0.1546  0.2575
 1174ERGO   ROH16111   3.871  15.752   6.171  0.1213 -0.3046  0.0845
 1174ERGO    R116112   3.781  15.608   6.397  0.1500 -0.2346  0.1401
 1174ERGO    R216113   3.947  15.542   6.608  0.1219  0.0259  0.2410
 1174ERGO    R316114   3.755  15.666   6.755 -0.0298 -0.0334  0.0974
 1174ERGO    R416115   3.873  15.470   6.938  0.1683  0.2612  0.3053
 1174ERGO    R516116   3.662  15.492   6.891  0.1431 -0.0109  0.2555
 1174ERGO    C116117   3.650  15.545   7.268  0.0529  0.3425  0.2080
 1174ERGO    C216118   3.791  15.454   7.484  0.2395 -0.0987 -0.1275
 1175ERGO   ROH16119   2.282  12.676   5.427 -0.1413 -0.0750  0.1052
 1175ERGO    R116120   2.096  12.604   5.628 -0.1026 -0.1945  0.1005
 1175ERGO    R216121   2.097  12.356   5.750  0.0423 -0.2035  0.0931
 1175ERGO    R316122   2.109  12.503   5.977 -0.0451 -0.2016  0.0953
 1175ERGO    R416123   2.066  12.228   6.069 -0.0548 -0.1999  0.0840
 1175ERGO    R516124   1.947  12.403   6.122 -0.0838 -0.2106  0.0421
 1175ERGO    C116125   2.059  12.293   6.469 -0.1935 -0.1961  0.0807
 1175ERGO    C216126   2.150  12.190   6.848  0.0046  0.0076 -0.0891
 1176ERGO   ROH16127   6.304  11.167   5.685  0.3697  0.2303  0.0462
 1176ERGO    R116128   6.285  11.060   5.946  0.1212  0.1504 -0.0027
 1176ERGO    R216129   6.397  11.184   6.166 -0.0117  0.0373  0.1265
 1176ERGO    R316130   6.144  11.164   6.265 -0.0990  0.0929 -0.0783
 1176ERGO    R416131   6.311  11.222   6.499 -0.2371 -0.1588  0.0941
 1176ERGO    R516132   6.171  11.056   6.477 -0.3095 -0.0768 -0.1311
 1176ERGO    C116133   6.024  11.226   6.785 -0.4502 -0.2208 -0.1170
 1176ERGO    C216134   6.009  11.456   7.117  0.1770 -0.2043 -0.0015
 1177ERGO   ROH16135  16.717  18.463   6.059 -0.0504  0.1028  0.1174
 1177ERGO    R116136  16.776  18.305   6.286  0.0165  0.0154  0.0406
 1177ERGO    R216137  17.007  18.155   6.308  0.0532  0.0540 -0.0589
 1177ERGO    R316138  17.036  18.293   6.540  0.0565 -0.0389 -0.0035
 1177ERGO    R416139  17.215  18.063   6.568  0.0692 -0.0368 -0.1035
 1177ERGO    R516140  17.059  18.124   6.708  0.0740 -0.1030 -0.0722
 1177ERGO    C116141  17.363  18.139   6.937  0.0817 -0.1767 -0.0774
 1177ERGO    C216142  17.534  18.208   7.344 -0.3753 -0.3635  0.0113
 1178ERGO   ROH16143   4.930   6.135   5.081  0.2084 -0.1279  0.1222
 1178ERGO    R116144   4.827   6.091   5.341  0.1342 -0.1103  0.0973
 1178ERGO    R216145   4.570   6.000   5.385  0.0214  0.1528  0.0406
 1178ERGO    R316146   4.698   5.808   5.529 -0.1957 -0.0415 -0.0231
 1178ERGO    R416147   4.452   5.863   5.680 -0.0569  0.2873  0.0716
 1178ERGO    R516148   4.656   5.867   5.757 -0.0250 -0.0068 -0.0047
 1178ERGO    C116149   4.504   5.603   5.986 -0.3064  0.1832  0.0300
 1178ERGO    C216150   4.310   5.570   6.212  0.0948 -0.2872  0.0158
 1179ERGO   ROH16151  17.865  18.545   6.087  0.2147 -0.2504  0.0194
 1179ERGO    R116152  17.939  18.668   6.331  0.1748 -0.1357 -0.0250
 1179ERGO    R216153  17.863  18.925   6.397  0.1254 -0.1170 -0.1370
 1179ERGO    R316154  17.768  18.805   6.622  0.1265 -0.0438 -0.0978
 1179ERGO    R416155  17.838  19.078   6.706 -0.0538  0.0346 -0.2254
 1179ERGO    R516156  17.906  18.892   6.798  0.0217  0.1271 -0.1030
 1179ERGO    C116157  17.733  19.055   7.097 -0.1570  0.1915 -0.2401
 1179ERGO    C216158  17.781  19.197   7.444  0.1965  0.0704  0.1387
 1180ERGO   ROH16159  11.633   3.095   5.867 -0.0334 -0.3466  0.2236
 1180ERGO    R116160  11.484   3.154   6.100 -0.0912 -0.0209  0.1088
 1180ERGO    R216161  11.577   3.096   6.354 -0.3848 -0.1731  0.1826
 1180ERGO    R316162  11.528   3.360   6.397  0.1025 -0.0624  0.1110
 1180ERGO    R416163  11.619   3.258   6.656 -0.4327 -0.2605  0.2368
 1180ERGO    R516164  11.435   3.368   6.617 -0.1675  0.1256 -0.0023
 1180ERGO    C116165  11.599   3.599   6.873 -0.0029 -0.2075  0.2012
 1180ERGO    C216166  11.572   3.988   7.050 -0.1499 -0.1106  0.1019
 1181ERGO   ROH16167   9.682   1.659   5.940  0.1662 -0.0461  0.0902
 1181ERGO    R116168   9.633   1.652   6.219  0.2407 -0.1720  0.1005
 1181ERGO    R216169   9.780   1.493   6.391  0.4792 -0.0348  0.0278
 1181ERGO    R316170   9.820   1.728   6.522  0.2213 -0.0126  0.0732
 1181ERGO    R416171   9.788   1.530   6.735  0.3463 -0.0727  0.0361
 1181ERGO    R516172   9.676   1.715   6.713  0.1770 -0.1732  0.0308
 1181ERGO    C116173   9.830   1.772   7.057  0.0268 -0.0740  0.0833
 1181ERGO    C216174   9.682   1.882   7.400 -0.1441  0.1195  0.1331
 1182ERGO   ROH16175   7.990   5.117   5.562  0.2512 -0.1812  0.0661
 1182ERGO    R116176   8.055   5.031   5.824  0.1455 -0.0173  0.1489
 1182ERGO    R216177   8.053   5.203   6.041 -0.0469  0.0988  0.0650
 1182ERGO    R316178   7.886   5.016   6.146 -0.0264  0.0817  0.0640
 1182ERGO    R416179   7.916   5.216   6.358 -0.1986  0.1732 -0.0041
 1182ERGO    R516180   7.949   5.001   6.376 -0.1297  0.1961  0.0975
 1182ERGO    C116181   7.678   5.048   6.640 -0.2677  0.2003 -0.0454
 1182ERGO    C216182   7.538   4.980   7.019 -0.1951  0.0622  0.1045
 1183ERGO   ROH16183   9.805  14.781   6.081  0.2091 -0.1484 -0.0179
 1183ERGO    R116184   9.746  14.556   6.242  0.0636 -0.0937  0.0048
 1183ERGO    R216185   9.870  14.511   6.485 -0.0818 -0.0656  0.0812
 1183ERGO    R316186   9.614  14.499   6.577 -0.1352  0.0183 -0.0514
 1183ERGO    R416187   9.779  14.434   6.810 -0.2751 -0.1630  0.0069
 1183ERGO    R516188   9.614  14.316   6.731 -0.2971 -0.0521 -0.1278
 1183ERGO    C116189   9.487  14.379   7.085 -0.4378 -0.1408 -0.1609
 1183ERGO    C216190   9.401  14.496   7.312 -0.1455  0.1769  0.5262
 1184ERGO   ROH16191  17.371  16.851   5.920  0.1157 -0.0581  0.0284
 1184ERGO    R116192  17.413  16.829   6.200  0.0578  0.0477  0.0457
 1184ERGO    R216193  17.464  17.049   6.360 -0.0785  0.1201 -0.0104
 1184ERGO    R316194  17.252  16.954   6.501 -0.0701  0.0708 -0.0309
 1184ERGO    R416195  17.349  17.182   6.657  0.0583 -0.0925  0.1407
 1184ERGO    R516196  17.316  16.980   6.730  0.0095 -0.1487 -0.0248
 1184ERGO    C116197  17.083  17.171   6.963  0.1458 -0.2626  0.2095
 1184ERGO    C216198  17.139  17.295   7.333  0.1169  0.2354  0.2068
 1185ERGO   ROH16199  13.788  19.180   6.718  0.1662  0.0476 -0.0370
 1185ERGO    R116200  13.625  19.103   6.937  0.0758  0.0762 -0.0942
 1185ERGO    R216201  13.699  19.146   7.199  0.0474 -0.0481 -0.0686
 1185ERGO    R316202  13.457  19.269   7.214  0.1156  0.0895 -0.0766
 1185ERGO    R416203  13.522  19.199   7.491 -0.0727 -0.2415 -0.1037
 1185ERGO    R516204  13.339  19.148   7.384 -0.0513 -0.0188 -0.2608
 1185ERGO    C116205  13.192  19.346   7.675 -0.0787 -0.2250 -0.1316
 1185ERGO    C216206  13.115  19.314   7.958  0.2183  0.0915 -0.1324
 1186ERGO   ROH16207   4.765  12.680   5.643  0.1230  0.1547  0.0030
 1186ERGO    R116208   4.610  12.570   5.853 -0.0455  0.4025  0.0103
 1186ERGO    R216209   4.701  12.366   6.014 -0.4827  0.0232 -0.2090
 1186ERGO    R316210   4.638  12.539   6.214  0.1005  0.0462 -0.0259
 1186ERGO    R416211   4.645  12.276   6.343 -0.6777 -0.1390 -0.2838
 1186ERGO    R516212   4.481  12.419   6.349 -0.2527  0.3837 -0.1113
 1186ERGO    C116213   4.553  12.386   6.723 -0.2437 -0.2118 -0.1555
 1186ERGO    C216214   4.707  12.390   7.071  0.0776 -0.0510 -0.3559
 1187ERGO   ROH16215   0.356   3.068   5.707  0.0940  0.1518 -0.1131
 1187ERGO    R116216   0.609   2.978   5.796 -0.0393 -0.2280 -0.1017
 1187ERGO    R216217   0.759   3.117   5.983  0.3389 -0.2213 -0.4039
 1187ERGO    R316218   0.757   2.878   6.113 -0.0884 -0.0214 -0.0106
 1187ERGO    R416219   0.937   3.047   6.271  0.2841 -0.0908 -0.3362
 1187ERGO    R516220   0.982   2.850   6.190 -0.1114 -0.3264 -0.0332
 1187ERGO    C116221   1.039   2.783   6.561 -0.1489  0.1728  0.0725
 1187ERGO    C216222   1.248   2.697   6.872  0.0434  0.2215 -0.0316
 1188ERGO   ROH16223   4.814   4.321   5.706  0.1963  0.0427 -0.0167
 1188ERGO    R116224   4.720   4.364   5.969 -0.0061 -0.0017 -0.0804
 1188ERGO    R216225   4.811   4.570   6.129  0.0580 -0.1774  0.1121
 1188ERGO    R316226   4.547   4.629   6.149  0.0945  0.0804 -0.1035
 1188ERGO    R416227   4.661   4.711   6.406 -0.0552 -0.1726  0.0494
 1188ERGO    R516228   4.492   4.577   6.376 -0.1681  0.0130 -0.1782
 1188ERGO    C116229   4.326   4.849   6.587 -0.0868  0.0722 -0.1893
 1188ERGO    C216230   4.260   5.240   6.758  0.1526 -0.0121  0.0969
 1189ERGO   ROH16231  10.552  11.876   5.969  0.0557 -0.1407  0.1429
 1189ERGO    R116232  10.519  11.928   6.245  0.0278  0.0381  0.1073
 1189ERGO    R216233  10.351  12.128   6.340 -0.0900  0.0124 -0.0326
 1189ERGO    R316234  10.244  11.924   6.484  0.0314  0.0482  0.1101
 1189ERGO    R416235  10.228  12.156   6.661 -0.1105  0.1592 -0.0535
 1189ERGO    R516236  10.318  11.963   6.708  0.0035  0.2476  0.0831
 1189ERGO    C116237  10.055  11.981   6.983 -0.0086  0.2785  0.0683
 1189ERGO    C216238   9.771  11.844   7.148  0.0374 -0.1790  0.1073
 1190ERGO   ROH16239  17.880   4.645   5.822 -0.1918  0.0293  0.0705
 1190ERGO    R116240  18.028   4.418   5.903 -0.0428  0.0678 -0.0841
 1190ERGO    R216241  18.154   4.403   6.149  0.0640  0.0264 -0.1393
 1190ERGO    R316242  18.010   4.174   6.172  0.1882 -0.0563 -0.1787
 1190ERGO    R416243  18.177   4.182   6.413 -0.1019  0.1993  0.0218
 1190ERGO    R516244  18.162   4.017   6.271  0.1792  0.1032  0.0978
 1190ERGO    C116245  18.055   3.838   6.590 -0.0818  0.2224  0.0785
 1190ERGO    C216246  18.208   3.805   6.885  0.1225 -0.1758 -0.1680
 1191ERGO   ROH16247  11.184   0.370   6.182  0.0722  0.0805 -0.0243
 1191ERGO    R116248  10.993   0.440   6.379 -0.0569 -0.0473 -0.1026
 1191ERGO    R216249  10.920   0.267   6.582 -0.0029 -0.0863 -0.1191
 1191ERGO    R316250  10.989   0.476   6.742 -0.2239 -0.0193 -0.1058
 1191ERGO    R416251  10.800   0.321   6.902  0.0045 -0.2872 -0.0806
 1191ERGO    R516252  10.788   0.534   6.856 -0.2735 -0.2899 -0.0470
 1191ERGO    C116253  10.795   0.549   7.237 -0.1986 -0.3412 -0.0457
 1191ERGO    C216254  10.619   0.729   7.520  0.0430 -0.0265  0.2112
 1192ERGO   ROH16255   9.062   3.283   5.587 -0.0033  0.2561  0.0235
 1192ERGO    R116256   9.033   3.410   5.838  0.0901 -0.0004  0.1680
 1192ERGO    R216257   8.825   3.355   6.009  0.0099  0.0109  0.0716
 1192ERGO    R316258   9.025   3.308   6.187 -0.0615 -0.3942  0.0559
 1192ERGO    R416259   8.797   3.392   6.352  0.1978  0.4414  0.0468
 1192ERGO    R516260   8.997   3.479   6.353  0.4689 -0.1268 -0.1024
 1192ERGO    C116261   8.968   3.370   6.718  0.2403  0.3118  0.0178
 1192ERGO    C216262   9.020   3.226   6.996  0.0045  0.0238  0.0202
 1193ERGO   ROH16263  17.850   0.369   8.070 -0.0207  0.3628  0.4597
 1193ERGO    R116264  18.110   0.333   8.177  0.0398  0.1726  0.2551
 1193ERGO    R216265  18.178   0.411   8.433  0.2808  0.0553  0.2316
 1193ERGO    R316266  18.259   0.153   8.455  0.1397 -0.0026  0.0896
 1193ERGO    R416267  18.310   0.270   8.719  0.1458 -0.2005  0.1705
 1193ERGO    R516268  18.453   0.163   8.595  0.1140 -0.1969  0.1378
 1193ERGO    C116269  18.462  -0.055   8.907 -0.0651 -0.4037  0.0015
 1193ERGO    C216270  18.548  -0.051   9.219 -0.0493  0.0164  0.0362
 1194ERGO   ROH16271   7.176  15.733   6.268 -0.0576  0.1499  0.0175
 1194ERGO    R116272   7.330  15.926   6.406 -0.0855  0.1513  0.0474
 1194ERGO    R216273   7.244  16.045   6.640 -0.0905  0.0815  0.0837
 1194ERGO    R316274   7.482  15.955   6.736 -0.0637  0.1077  0.0407
 1194ERGO    R416275   7.375  16.122   6.951 -0.1167 -0.0384  0.1247
 1194ERGO    R516276   7.571  16.140   6.858 -0.1227  0.0710  0.1371
 1194ERGO    C116277   7.675  16.083   7.221 -0.1067 -0.0838  0.1083
 1194ERGO    C216278   7.747  16.166   7.496  0.2512  0.2038  0.1281
 1195ERGO   ROH16279  16.833   8.870   5.846  0.0222  0.2497 -0.0052
 1195ERGO    R116280  16.810   9.064   6.051  0.0223  0.2184  0.0241
 1195ERGO    R216281  16.763   8.995   6.315  0.0487  0.1772  0.0174
 1195ERGO    R316282  16.986   9.144   6.359  0.0396  0.1895  0.0220
 1195ERGO    R416283  16.846   9.143   6.616  0.0954  0.0764  0.0545
 1195ERGO    R516284  16.914   9.318   6.506  0.0486  0.1266  0.1031
 1195ERGO    C116285  17.105   9.369   6.833  0.1139  0.0293  0.0806
 1195ERGO    C216286  17.313   9.301   7.013  0.2384  0.0692  0.2517
 1196ERGO   ROH16287   6.237  16.889   6.109  0.1037  0.1131 -0.2017
 1196ERGO    R116288   6.435  16.896   6.311  0.1460 -0.1268 -0.2321
 1196ERGO    R216289   6.410  17.050   6.539  0.3652 -0.1014 -0.2246
 1196ERGO    R316290   6.454  16.814   6.665  0.1056 -0.1589 -0.2365
 1196ERGO    R416291   6.502  17.018   6.870  0.4405 -0.2041 -0.2553
 1196ERGO    R516292   6.638  16.858   6.812  0.2190 -0.3862 -0.3015
 1196ERGO    C116293   6.596  16.777   7.182  0.2406 -0.3175 -0.2845
 1196ERGO    C216294   6.688  16.648   7.359 -0.0533 -0.0296 -0.3106
 1197ERGO   ROH16295   2.381  11.253   5.423  0.1868  0.0582  0.0224
 1197ERGO    R116296   2.437  11.385   5.668  0.2853 -0.0096  0.0374
 1197ERGO    R216297   2.269  11.368   5.887  0.1309  0.3061 -0.0482
 1197ERGO    R316298   2.496  11.286   6.013 -0.0732 -0.0809  0.0815
 1197ERGO    R416299   2.307  11.347   6.230 -0.0497  0.3778 -0.0232
 1197ERGO    R516300   2.509  11.426   6.207  0.1179 -0.0212  0.0249
 1197ERGO    C116301   2.541  11.258   6.548 -0.3465  0.0565  0.1130
 1197ERGO    C216302   2.702  11.189   6.783  0.2087  0.2890  0.2321
 1198ERGO   ROH16303   9.439  16.152   6.268 -0.0788  0.0633 -0.0347
 1198ERGO    R116304   9.580  16.150   6.514 -0.2966  0.1212  0.0944
 1198ERGO    R216305   9.454  16.172   6.758 -0.5529 -0.1605 -0.0034
 1198ERGO    R316306   9.588  15.942   6.812 -0.3085 -0.0218 -0.0042
 1198ERGO    R416307   9.473  16.023   7.069 -0.2913 -0.0846  0.0197
 1198ERGO    R516308   9.682  15.977   7.030 -0.2615  0.1107 -0.0467
 1198ERGO    C116309   9.609  15.719   7.301  0.0905  0.0897  0.0324
 1198ERGO    C216310   9.507  15.586   7.571 -0.1767 -0.2600 -0.0654
 1199ERGO   ROH16311   8.990   0.539   6.310 -0.4668 -0.0108 -0.0182
 1199ERGO    R116312   9.040   0.744   6.499 -0.3501  0.0466 -0.1113
 1199ERGO    R216313   8.839   0.904   6.601 -0.3113 -0.0405  0.0915
 1199ERGO    R316314   8.939   0.819   6.840  0.0087  0.0564 -0.0008
 1199ERGO    R416315   8.882   1.104   6.880 -0.3619 -0.0122  0.0796
 1199ERGO    R516316   9.071   1.003   6.918 -0.1779  0.2400 -0.0916
 1199ERGO    C116317   9.000   1.142   7.266 -0.0910  0.0953 -0.0140
 1199ERGO    C216318   8.909   1.265   7.536 -0.3078 -0.2198  0.2387
 1200ERGO   ROH16319   2.280   2.841   5.443 -0.0429  0.0407 -0.0086
 1200ERGO    R116320   2.280   3.003   5.676  0.0443  0.1191 -0.0631
 1200ERGO    R216321   2.048   3.072   5.808  0.0957  0.1564  0.0035
 1200ERGO    R316322   2.177   2.966   6.023  0.1825  0.2341 -0.0088
 1200ERGO    R416323   1.915   3.049   6.127  0.1386  0.0723  0.0163
 1200ERGO    R516324   2.111   3.105   6.207  0.1134  0.1933 -0.0014
 1200ERGO    C116325   1.959   2.937   6.513  0.2451  0.0963  0.0123
 1200ERGO    C216326   1.736   2.949   6.795 -0.0870 -0.0001  0.2588
 1201ERGO   ROH16327  15.884   7.454   5.483 -0.1721 -0.1663 -0.0393
 1201ERGO    R116328  16.002   7.336   5.711 -0.1124 -0.0373 -0.0027
 1201ERGO    R216329  16.092   7.485   5.925 -0.0255  0.0874 -0.1239
 1201ERGO    R316330  15.930   7.319   6.067 -0.0000  0.1944  0.0327
 1201ERGO    R416331  16.025   7.516   6.263  0.2153  0.2097 -0.0852
 1201ERGO    R516332  16.038   7.299   6.281  0.1359  0.2091 -0.0337
 1201ERGO    C116333  15.834   7.379   6.593  0.3793  0.3813  0.0844
 1201ERGO    C216334  15.897   7.507   6.853 -0.1439 -0.1655 -0.0562
 1202ERGO   ROH16335  16.871   1.509   6.105  0.0134 -0.1665  0.0266
 1202ERGO    R116336  16.856   1.558   6.383 -0.1096 -0.2632  0.0378
 1202ERGO    R216337  16.891   1.358   6.572  0.1133 -0.2745 -0.0096
 1202ERGO    R316338  17.079   1.528   6.669 -0.1271 -0.0513  0.0735
 1202ERGO    R416339  17.011   1.357   6.896  0.1289 -0.2677 -0.0154
 1202ERGO    R516340  17.009   1.575   6.893 -0.1850 -0.2686  0.0992
 1202ERGO    C116341  17.257   1.516   7.176 -0.0875 -0.0542  0.0593
 1202ERGO    C216342  17.437   1.218   7.511  0.1631 -0.3926  0.2609
 1203ERGO   ROH16343   3.785  11.062   8.958 -0.0583  0.1072  0.0129
 1203ERGO    R116344   3.763  10.890   8.734  0.0189  0.0806  0.0258
 1203ERGO    R216345   3.532  10.870   8.585  0.0271 -0.0375  0.0311
 1203ERGO    R316346   3.699  10.927   8.378 -0.0028  0.0243  0.0231
 1203ERGO    R416347   3.432  10.920   8.258 -0.0061 -0.1174  0.0287
 1203ERGO    R516348   3.607  10.808   8.192  0.0497 -0.0402  0.0360
 1203ERGO    C116349   3.531  11.003   7.873 -0.0534 -0.1058  0.0196
 1203ERGO    C216350   3.298  11.001   7.591  0.0412  0.2865 -0.0873
 1204ERGO   ROH16351  14.824   5.370   5.678 -0.1844  0.0478 -0.1010
 1204ERGO    R116352  14.853   5.523   5.915 -0.1168  0.0594 -0.1160
 1204ERGO    R216353  14.638   5.588   6.076 -0.0688  0.0470 -0.0438
 1204ERGO    R316354  14.791   5.474   6.270  0.0088  0.0660 -0.0937
 1204ERGO    R416355  14.688   5.721   6.391 -0.1127 -0.0338 -0.0025
 1204ERGO    R516356  14.897   5.659   6.378 -0.0826  0.0848 -0.0398
 1204ERGO    C116357  14.861   5.691   6.757 -0.0653 -0.0629 -0.0253
 1204ERGO    C216358  14.785   5.670   7.070 -0.1200 -0.0864 -0.0180
 1205ERGO   ROH16359  17.412   0.608   6.350 -0.2169 -0.0831  0.0017
 1205ERGO    R116360  17.469   0.489   6.601 -0.1981  0.0508  0.0613
 1205ERGO    R216361  17.666   0.585   6.769 -0.2164  0.1694  0.0161
 1205ERGO    R316362  17.463   0.593   6.949 -0.2199  0.2229  0.0105
 1205ERGO    R416363  17.700   0.678   7.100 -0.2058  0.1723  0.0144
 1205ERGO    R516364  17.563   0.517   7.154 -0.2443  0.2066  0.0160
 1205ERGO    C116365  17.530   0.739   7.462 -0.2029  0.2241  0.0083
 1205ERGO    C216366  17.492   0.740   7.716  0.5023 -0.2236  0.1368
 1206ERGO   ROH16367  15.496   0.150   6.155  0.0438  0.0503 -0.0113
 1206ERGO    R116368  15.678   0.193   6.368  0.0510 -0.1177  0.0168
 1206ERGO    R216369  15.620   0.124   6.630  0.0302 -0.2529 -0.0260
 1206ERGO    R316370  15.853  -0.014   6.611 -0.0027 -0.3008 -0.0964
 1206ERGO    R416371  15.806   0.014   6.899  0.2345 -0.0299 -0.0721
 1206ERGO    R516372  15.987   0.071   6.791  0.1578 -0.1490 -0.2777
 1206ERGO    C116373  16.134  -0.180   7.038  0.3227  0.0550 -0.1650
 1206ERGO    C216374  16.443  -0.378   7.090 -0.0530  0.0535 -0.4151
 1207ERGO   ROH16375   4.443  19.200   5.864  0.1138 -0.2018  0.0694
 1207ERGO    R116376   4.251  19.283   6.055  0.1094 -0.0612  0.0036
 1207ERGO    R216377   4.172  19.124   6.267  0.0395  0.0603  0.0663
 1207ERGO    R316378   4.243  19.341   6.414  0.0724  0.1119 -0.0230
 1207ERGO    R416379   3.992  19.249   6.534  0.1035  0.1381  0.0742
 1207ERGO    R516380   4.036  19.450   6.463  0.0783  0.1198 -0.0044
 1207ERGO    C116381   3.954  19.525   6.828  0.1718  0.2319 -0.0050
 1207ERGO    C216382   3.915  19.772   7.176 -0.1805  0.1216 -0.0760
 1208ERGO   ROH16383   0.380   6.047   5.399  0.0712  0.1951  0.1915
 1208ERGO    R116384   0.379   6.039   5.682  0.1240  0.0656  0.1887
 1208ERGO    R216385   0.563   5.891   5.827  0.1982  0.0557  0.0896
 1208ERGO    R316386   0.609   6.129   5.949  0.1437  0.0165  0.1874
 1208ERGO    R416387   0.773   5.938   6.097  0.4348  0.0508 -0.0908
 1208ERGO    R516388   0.627   6.075   6.181  0.4169 -0.1084  0.1386
 1208ERGO    C116389   0.939   6.190   6.369  0.5215  0.0112 -0.1040
 1208ERGO    C216390   1.040   6.549   6.469  0.0070  0.0267 -0.0452
 1209ERGO   ROH16391  10.067   2.923   5.587  0.0826  0.0705 -0.0880
 1209ERGO    R116392   9.910   2.762   5.758 -0.0265  0.1084 -0.1524
 1209ERGO    R216393  10.013   2.636   5.982 -0.1116 -0.0471 -0.2023
 1209ERGO    R316394   9.811   2.765   6.108 -0.0276  0.0365 -0.1508
 1209ERGO    R416395   9.929   2.592   6.314 -0.1312 -0.1246 -0.2169
 1209ERGO    R516396   9.719   2.601   6.256 -0.1309  0.0337 -0.2131
 1209ERGO    C116397   9.689   2.688   6.626 -0.0637 -0.0913 -0.1771
 1209ERGO    C216398   9.669   2.588   6.903  0.0768  0.1806  0.1395
 1210ERGO   ROH16399   8.517  12.323   9.883  0.0866  0.0179 -0.1523
 1210ERGO    R116400   8.366  12.314   9.643  0.1451  0.0535 -0.1887
 1210ERGO    R216401   8.173  12.503   9.582  0.0660 -0.0228 -0.1378
 1210ERGO    R316402   8.318  12.529   9.353  0.0941  0.1647 -0.1021
 1210ERGO    R416403   8.050  12.625   9.283  0.0715  0.1802 -0.0597
 1210ERGO    R516404   8.164  12.472   9.179  0.1126  0.2646 -0.1619
 1210ERGO    C116405   8.115  12.721   8.894  0.1010  0.4745  0.0193
 1210ERGO    C216406   8.062  12.702   8.550  0.0896  0.0443  0.1711
 1211ERGO   ROH16407  16.173  12.668   5.890  0.0306 -0.0788 -0.0011
 1211ERGO    R116408  16.378  12.534   6.032  0.0060  0.0038  0.1105
 1211ERGO    R216409  16.586  12.668   6.156 -0.0580  0.0774  0.1214
 1211ERGO    R316410  16.503  12.528   6.373 -0.0944  0.1429  0.1525
 1211ERGO    R416411  16.765  12.635   6.449 -0.0154  0.0226  0.0914
 1211ERGO    R516412  16.702  12.427   6.459 -0.1238  0.0485  0.1250
 1211ERGO    C116413  16.791  12.485   6.825 -0.0248  0.0522  0.1031
 1211ERGO    C216414  16.945  12.274   7.069  0.0581 -0.1802  0.1007
 1212ERGO   ROH16415   8.010  13.517   6.300  0.1926  0.1152  0.1550
 1212ERGO    R116416   8.029  13.575   6.577  0.1862  0.0259  0.1735
 1212ERGO    R216417   8.223  13.741   6.681  0.1141  0.0757  0.2156
 1212ERGO    R316418   8.009  13.871   6.787  0.0650 -0.0576  0.2846
 1212ERGO    R416419   8.238  13.965   6.944  0.1103  0.2669  0.0558
 1212ERGO    R516420   8.054  13.878   7.022  0.2422  0.1380  0.2529
 1212ERGO    C116421   8.046  14.218   7.196  0.0620  0.2532  0.0275
 1212ERGO    C216422   8.275  14.557   7.328 -0.0716 -0.0804 -0.1520
 1213ERGO   ROH16423   5.424   9.922   5.666  0.1202  0.0704 -0.0800
 1213ERGO    R116424   5.512   9.753   5.875 -0.0497  0.0988  0.0128
 1213ERGO    R216425   5.358   9.698   6.097 -0.3027 -0.0192 -0.2053
 1213ERGO    R316426   5.405   9.440   6.026 -0.0509  0.0087 -0.1628
 1213ERGO    R416427   5.416   9.439   6.319 -0.3060  0.0443 -0.1259
 1213ERGO    R516428   5.569   9.363   6.182 -0.1193  0.1456 -0.0033
 1213ERGO    C116429   5.495   9.046   6.380 -0.0715  0.1075 -0.0399
 1213ERGO    C216430   5.368   8.766   6.476 -0.0394 -0.1890  0.1630
 1214ERGO   ROH16431   9.088  11.731   6.012  0.2452  0.3421  0.0451
 1214ERGO    R116432   9.107  11.783   6.289  0.3911  0.1625  0.0714
 1214ERGO    R216433   8.905  11.718   6.467  0.2659  0.4943  0.0610
 1214ERGO    R316434   9.106  11.587   6.595  0.0137 -0.0015 -0.0299
 1214ERGO    R416435   8.921  11.663   6.808  0.2542  0.3973  0.0456
 1214ERGO    R516436   9.134  11.705   6.801  0.3612 -0.0959 -0.0171
 1214ERGO    C116437   9.118  11.508   7.127  0.0107 -0.1247 -0.0487
 1214ERGO    C216438   9.124  11.310   7.446  0.4069 -0.2462 -0.1705
 1215ERGO   ROH16439  19.269   7.382   5.394  0.0034  0.2345 -0.1057
 1215ERGO    R116440  19.235   7.314   5.667 -0.2665  0.2090 -0.1430
 1215ERGO    R216441  19.421   7.379   5.861 -0.1571 -0.3358 -0.0478
 1215ERGO    R316442  19.206   7.494   5.982  0.0779  0.1685 -0.0854
 1215ERGO    R416443  19.392   7.431   6.201 -0.1846 -0.4784 -0.0280
 1215ERGO    R516444  19.182   7.372   6.187 -0.3521  0.0899 -0.1743
 1215ERGO    C116445  19.174   7.570   6.513  0.0200 -0.0881 -0.0517
 1215ERGO    C216446  19.153   7.713   6.882 -0.1395  0.2028  0.0023
 1216ERGO   ROH16447  12.614   6.378   6.142  0.0502 -0.1782 -0.0960
 1216ERGO    R116448  12.579   6.319   6.416  0.1086  0.0258 -0.0418
 1216ERGO    R216449  12.553   6.515   6.609  0.0530  0.1735 -0.1907
 1216ERGO    R316450  12.325   6.380   6.670  0.1145  0.1274 -0.0625
 1216ERGO    R416451  12.405   6.508   6.921  0.1359  0.2671 -0.1494
 1216ERGO    R516452  12.363   6.296   6.891  0.1973  0.2434 -0.0360
 1216ERGO    C116453  12.105   6.377   7.161  0.2417  0.2783 -0.0051
 1216ERGO    C216454  11.816   6.244   7.368 -0.2141 -0.1076 -0.0532
 1217ERGO   ROH16455  16.508   4.888   5.433  0.0567 -0.1302 -0.0128
 1217ERGO    R116456  16.339   5.006   5.627  0.0387 -0.2505  0.0464
 1217ERGO    R216457  16.308   4.902   5.881  0.3659 -0.1565  0.1334
 1217ERGO    R316458  16.377   5.153   5.957  0.0907 -0.0168 -0.0625
 1217ERGO    R416459  16.272   5.028   6.201  0.2862  0.0408  0.0471
 1217ERGO    R516460  16.208   5.217   6.113  0.0498 -0.0973 -0.0775
 1217ERGO    C116461  16.317   5.338   6.458 -0.0190  0.2868 -0.1870
 1217ERGO    C216462  16.374   5.410   6.782  0.0305  0.3748  0.3190
 1218ERGO   ROH16463   1.455   4.250   5.475  0.0807 -0.1010 -0.0985
 1218ERGO    R116464   1.456   4.181   5.749  0.0034 -0.0068 -0.0736
 1218ERGO    R216465   1.365   3.938   5.842 -0.0915  0.0503 -0.0062
 1218ERGO    R316466   1.610   3.926   5.958 -0.1177  0.0161  0.0444
 1218ERGO    R416467   1.450   3.724   6.100 -0.1272 -0.0703 -0.0940
 1218ERGO    R516468   1.564   3.888   6.190 -0.1649 -0.1057  0.0137
 1218ERGO    C116469   1.731   3.589   6.360 -0.1725 -0.1726 -0.0976
 1218ERGO    C216470   1.853   3.410   6.625  0.1851 -0.1532 -0.1173
 1219ERGO   ROH16471   3.404  16.376   5.924 -0.1554 -0.0924  0.0727
 1219ERGO    R116472   3.341  16.341   6.198 -0.1239 -0.1884  0.0686
 1219ERGO    R216473   3.195  16.525   6.342  0.1182 -0.1067  0.2207
 1219ERGO    R316474   3.038  16.310   6.398 -0.1101  0.0310  0.1247
 1219ERGO    R416475   2.963  16.511   6.598  0.2690 -0.0555  0.3611
 1219ERGO    R516476   3.026  16.306   6.638  0.0454 -0.1724  0.1304
 1219ERGO    C116477   2.681  16.301   6.800  0.1424  0.1039  0.3527
 1219ERGO    C216478   2.460  16.355   7.135 -0.0135 -0.2878  0.0528
 1220ERGO   ROH16479   9.590   4.337   5.809  0.0975 -0.0954  0.0075
 1220ERGO    R116480   9.557   4.305   6.088 -0.0324  0.0699  0.0127
 1220ERGO    R216481   9.603   4.065   6.217 -0.3365  0.0777  0.1421
 1220ERGO    R316482   9.769   4.216   6.370 -0.2230 -0.0298  0.1265
 1220ERGO    R416483   9.784   3.948   6.487 -0.1960 -0.0978 -0.0251
 1220ERGO    R516484   9.737   4.133   6.592 -0.1065 -0.1448  0.1021
 1220ERGO    C116485  10.045   4.022   6.788 -0.0077 -0.3007 -0.1372
 1220ERGO    C216486  10.157   3.998   7.152 -0.4517 -0.0603  0.0431
 1221ERGO   ROH16487  11.995  16.838   6.347 -0.1002 -0.0031 -0.1187
 1221ERGO    R116488  11.931  16.661   6.558 -0.2377  0.0263 -0.1354
 1221ERGO    R216489  12.085  16.640   6.786 -0.1970 -0.1860 -0.1832
 1221ERGO    R316490  11.849  16.690   6.912 -0.1103  0.0497 -0.1067
 1221ERGO    R416491  12.048  16.679   7.128 -0.0556 -0.2213 -0.1626
 1221ERGO    R516492  11.863  16.564   7.115 -0.1915 -0.0148 -0.1386
 1221ERGO    C116493  11.804  16.748   7.444  0.1082 -0.0206 -0.0788
 1221ERGO    C216494  11.913  16.822   7.785 -0.1807  0.1652 -0.3663
 1222ERGO   ROH16495   0.374  18.296   5.855 -0.1523 -0.2610  0.1986
 1222ERGO    R116496   0.363  18.465   6.082 -0.0561 -0.0666  0.0609
 1222ERGO    R216497   0.186  18.424   6.290  0.0121  0.1274  0.1580
 1222ERGO    R316498   0.412  18.430   6.441  0.0643  0.2336  0.0772
 1222ERGO    R416499   0.197  18.508   6.625  0.0638 -0.0360  0.1985
 1222ERGO    R516500   0.381  18.618   6.586 -0.0385  0.1360  0.1857
 1222ERGO    C116501   0.416  18.562   6.962  0.1428 -0.0316  0.1461
 1222ERGO    C216502   0.293  18.601   7.266 -0.0387 -0.4666  0.1342
 1223ERGO   ROH16503   6.182   9.777   6.669 -0.0390  0.0893  0.0116
 1223ERGO    R116504   6.126   9.832   6.941 -0.0040  0.0702  0.0215
 1223ERGO    R216505   5.953  10.033   7.020 -0.0884 -0.0207  0.0522
 1223ERGO    R316506   5.833   9.830   7.157  0.0475 -0.0756  0.0940
 1223ERGO    R416507   5.761  10.072   7.305 -0.0108 -0.0978  0.1169
 1223ERGO    R516508   5.853   9.893   7.387  0.0996 -0.0603  0.0893
 1223ERGO    C116509   5.536   9.905   7.598  0.1619 -0.1943  0.1939
 1223ERGO    C216510   5.421   9.793   7.952  0.0511 -0.0996 -0.0515
 1224ERGO   ROH16511   8.042  10.447   5.789 -0.0275  0.1564  0.0806
 1224ERGO    R116512   8.153  10.482   6.047  0.0563  0.1996  0.0417
 1224ERGO    R216513   7.998  10.486   6.276  0.1143  0.3309  0.0933
 1224ERGO    R316514   8.168  10.290   6.356  0.0629  0.2896  0.0938
 1224ERGO    R416515   8.055  10.396   6.605 -0.0693  0.1467  0.0746
 1224ERGO    R516516   8.267  10.375   6.558 -0.0524  0.1704  0.1917
 1224ERGO    C116517   8.248  10.160   6.872 -0.2244  0.0009  0.0641
 1224ERGO    C216518   8.398  10.085   7.081  0.0256  0.0712  0.2249
 1225ERGO   ROH16519   7.434   0.326   6.033 -0.0005  0.0495 -0.0042
 1225ERGO    R116520   7.480   0.426   6.294  0.0658 -0.0128  0.0081
 1225ERGO    R216521   7.313   0.609   6.416  0.1923  0.0920  0.0263
 1225ERGO    R316522   7.305   0.423   6.613  0.0581  0.0736  0.0049
 1225ERGO    R416523   7.280   0.679   6.752 -0.0813  0.0581  0.0095
 1225ERGO    R516524   7.426   0.523   6.794 -0.0952  0.0714  0.1102
 1225ERGO    C116525   7.254   0.545   7.134 -0.3666  0.0211 -0.0203
 1225ERGO    C216526   7.292   0.338   7.380  0.3478  0.2969 -0.2222
 1226ERGO   ROH16527   4.801   6.839   8.648  0.0554  0.0536  0.0151
 1226ERGO    R116528   4.913   6.937   8.407 -0.0937 -0.0319 -0.0918
 1226ERGO    R216529   4.763   7.068   8.216 -0.1567  0.1849  0.0981
 1226ERGO    R316530   4.952   7.261   8.247  0.1093 -0.0431 -0.0662
 1226ERGO    R416531   4.856   7.294   7.971 -0.2247  0.1867  0.0747
 1226ERGO    R516532   5.063   7.269   8.034 -0.1634 -0.0788 -0.2129
 1226ERGO    C116533   5.087   7.606   7.857 -0.0144 -0.0263 -0.0931
 1226ERGO    C216534   5.116   7.952   7.706  0.0848 -0.3227  0.2098
 1227ERGO   ROH16535   6.500   0.122   6.017 -0.1753  0.1179 -0.1253
 1227ERGO    R116536   6.351   0.154   6.256 -0.1728  0.1281 -0.1254
 1227ERGO    R216537   6.460   0.113   6.506 -0.2419 -0.1206 -0.1359
 1227ERGO    R316538   6.368   0.365   6.552 -0.0031 -0.0548 -0.0017
 1227ERGO    R416539   6.389   0.243   6.818 -0.1988 -0.2575 -0.0683
 1227ERGO    R516540   6.213   0.339   6.733 -0.0829 -0.0226 -0.0615
 1227ERGO    C116541   6.262   0.556   7.043  0.0505 -0.2755  0.0971
 1227ERGO    C216542   6.397   0.785   7.237  0.0739 -0.4737 -0.1242
 1228ERGO   ROH16543  14.483   0.343   6.447 -0.1310 -0.0810 -0.0234
 1228ERGO    R116544  14.423   0.463   6.697 -0.1350  0.0015 -0.0620
 1228ERGO    R216545  14.440   0.325   6.936 -0.2142  0.0555 -0.0179
 1228ERGO    R316546  14.602   0.532   7.006 -0.1611  0.0240 -0.0537
 1228ERGO    R416547  14.450   0.470   7.250 -0.1755  0.1144 -0.0477
 1228ERGO    R516548  14.467   0.665   7.153 -0.1219  0.0876 -0.0812
 1228ERGO    C116549  14.607   0.748   7.498 -0.1030  0.1191 -0.0987
 1228ERGO    C216550  14.830   0.859   7.777 -0.3765  0.1446  0.0519
 1229ERGO   ROH16551  16.520  15.729   5.976  0.1884  0.2495 -0.1154
 1229ERGO    R116552  16.368  15.770   6.211  0.1035  0.1613 -0.1541
 1229ERGO    R216553  16.455  15.689   6.461 -0.0136  0.0157 -0.1607
 1229ERGO    R316554  16.410  15.949   6.525  0.0160 -0.0076 -0.0435
 1229ERGO    R416555  16.431  15.812   6.783 -0.3103 -0.1850 -0.1023
 1229ERGO    R516556  16.267  15.940   6.717 -0.1949 -0.0809 -0.1987
 1229ERGO    C116557  16.375  16.128   7.031 -0.4555 -0.3237  0.0417
 1229ERGO    C216558  16.448  16.369   7.304 -0.1456 -0.5005  0.2726
 1230ERGO   ROH16559  12.624  19.262   7.692 -0.0241  0.0417  0.0860
 1230ERGO    R116560  12.607  19.273   7.974 -0.0394  0.0336  0.0862
 1230ERGO    R216561  12.660  19.504   8.117  0.0017  0.0199  0.1017
 1230ERGO    R316562  12.413  19.458   8.220 -0.0159  0.0663  0.0779
 1230ERGO    R416563  12.512  19.690   8.369 -0.0235  0.0805  0.0419
 1230ERGO    R516564  12.435  19.505   8.454 -0.0509  0.1111  0.0679
 1230ERGO    C116565  12.193  19.754   8.611 -0.0548  0.1593 -0.0154
 1230ERGO    C216566  12.093  19.928   8.940  0.3268  0.0235  0.1860
 1231ERGO   ROH16567  11.220   5.164   5.568  0.1317 -0.2138 -0.1648
 1231ERGO    R116568  11.057   5.203   5.796  0.0758 -0.1050 -0.2215
 1231ERGO    R216569  11.066   5.036   6.016  0.0129 -0.0117 -0.1399
 1231ERGO    R316570  11.109   5.269   6.150 -0.0059  0.0480 -0.2388
 1231ERGO    R416571  10.944   5.108   6.331 -0.1235  0.1877 -0.2369
 1231ERGO    R516572  10.903   5.311   6.264 -0.0467  0.1559 -0.3610
 1231ERGO    C116573  10.913   5.369   6.641 -0.2204  0.3599 -0.3862
 1231ERGO    C216574  10.862   5.366   7.002  0.1242  0.0415  0.4274
 1232ERGO   ROH16575   0.287   8.636   5.427 -0.2523 -0.1454  0.0749
 1232ERGO    R116576   0.374   8.676   5.694 -0.0382 -0.0763 -0.0034
 1232ERGO    R216577   0.199   8.690   5.907  0.1435 -0.1929  0.1548
 1232ERGO    R316578   0.356   8.493   6.008  0.3746 -0.0798  0.0243
 1232ERGO    R416579   0.262   8.639   6.243  0.2225 -0.3199  0.1216
 1232ERGO    R516580   0.469   8.595   6.193  0.2741 -0.0587  0.0770
 1232ERGO    C116581   0.446   8.424   6.533  0.4853 -0.2876 -0.0202
 1232ERGO    C216582   0.516   8.338   6.788 -0.2964 -0.0164  0.3866
 1233ERGO   ROH16583  17.538   2.183   5.660  0.1016  0.1274  0.0994
 1233ERGO    R116584  17.625   2.041   5.888  0.1410  0.0175  0.0167
 1233ERGO    R216585  17.867   1.908   5.898  0.2227  0.1624 -0.0274
 1233ERGO    R316586  17.904   2.058   6.121  0.0796  0.0273  0.0904
 1233ERGO    R416587  17.930   1.781   6.213  0.1359 -0.0286 -0.0852
 1233ERGO    R516588  17.797   1.934   6.295  0.0491 -0.1279 -0.0359
 1233ERGO    C116589  18.001   1.849   6.607 -0.0490 -0.2667 -0.0082
 1233ERGO    C216590  18.294   1.737   6.583 -0.2495  0.1420  0.2601
 1234ERGO   ROH16591   8.444   7.446   6.039 -0.1020  0.1209 -0.1632
 1234ERGO    R116592   8.266   7.520   6.246 -0.0252  0.0417 -0.0692
 1234ERGO    R216593   8.027   7.650   6.198 -0.0603  0.0191  0.0655
 1234ERGO    R316594   7.923   7.443   6.340  0.0238 -0.0295  0.0587
 1234ERGO    R416595   7.748   7.671   6.400 -0.1300 -0.1171 -0.0140
 1234ERGO    R516596   7.850   7.544   6.545 -0.0905 -0.0448  0.0301
 1234ERGO    C116597   7.487   7.489   6.652 -0.0915 -0.2421 -0.0667
 1234ERGO    C216598   7.347   7.503   6.890  0.5219  0.1010  0.1083
 1235ERGO   ROH16599   1.964   0.945   6.967  0.0067  0.0145 -0.0825
 1235ERGO    R116600   2.087   1.054   7.197 -0.0828 -0.0242 -0.0167
 1235ERGO    R216601   2.250   1.277   7.187 -0.1056 -0.0068  0.0884
 1235ERGO    R316602   2.078   1.372   7.375 -0.1756 -0.0652  0.0551
 1235ERGO    R416603   2.278   1.583   7.345 -0.1660 -0.0455  0.1758
 1235ERGO    R516604   2.218   1.488   7.531 -0.2274 -0.1004  0.1340
 1235ERGO    C116605   2.133   1.850   7.614 -0.2669 -0.1229  0.1956
 1235ERGO    C216606   2.084   1.946   7.987  0.2362  0.0790 -0.2318
 1236ERGO   ROH16607  17.564  19.352   6.323  0.4062  0.0438  0.1278
 1236ERGO    R116608  17.404  19.380   6.555  0.1866  0.3695 -0.0541
 1236ERGO    R216609  17.439  19.224   6.780 -0.5846  0.0595 -0.1085
 1236ERGO    R316610  17.457  19.465   6.904  0.0310 -0.0667  0.0796
 1236ERGO    R416611  17.329  19.290   7.101 -0.4143  0.1123 -0.0605
 1236ERGO    R516612  17.255  19.482   7.031  0.0722  0.3611  0.0899
 1236ERGO    C116613  17.282  19.554   7.404  0.2626  0.0248  0.1441
 1236ERGO    C216614  17.238  19.726   7.586 -0.0899  0.0564 -0.2088
 1237ERGO   ROH16615  15.879  11.317   5.915 -0.0165  0.2266  0.1550
 1237ERGO    R116616  15.830  11.302   6.194 -0.1058 -0.0573  0.1259
 1237ERGO    R216617  15.928  11.098   6.351  0.2085  0.0116  0.0168
 1237ERGO    R316618  16.030  11.302   6.498 -0.2282  0.1032  0.2098
 1237ERGO    R416619  16.019  11.075   6.684  0.4759 -0.1978 -0.0654
 1237ERGO    R516620  15.932  11.273   6.715 -0.0313 -0.4397  0.2455
 1237ERGO    C116621  16.167  11.254   7.016  0.2216 -0.2337  0.0678
 1237ERGO    C216622  16.260  11.413   7.300  0.0907  0.2364  0.3528
 1238ERGO   ROH16623   4.705  17.415   9.554 -0.1001 -0.0799 -0.0666
 1238ERGO    R116624   4.635  17.400   9.280  0.0616 -0.1729 -0.1029
 1238ERGO    R216625   4.639  17.620   9.113 -0.1503 -0.1665 -0.0913
 1238ERGO    R316626   4.799  17.461   8.962  0.1440  0.0527 -0.0208
 1238ERGO    R416627   4.702  17.666   8.776 -0.2354 -0.1860 -0.1115
 1238ERGO    R516628   4.690  17.450   8.749  0.1537 -0.2340 -0.0200
 1238ERGO    C116629   4.890  17.543   8.438 -0.0086  0.0085 -0.0570
 1238ERGO    C216630   4.972  17.417   8.115 -0.2244 -0.0396 -0.2994
 1239ERGO   ROH16631  12.088   0.854   6.548 -0.0236  0.0279  0.0356
 1239ERGO    R116632  12.153   0.818   6.822 -0.0410  0.1201  0.0517
 1239ERGO    R216633  12.040   0.970   7.023 -0.1406  0.1089  0.0016
 1239ERGO    R316634  11.975   0.726   7.126 -0.0348  0.1002  0.0501
 1239ERGO    R416635  11.965   0.909   7.355 -0.1000  0.1428  0.0175
 1239ERGO    R516636  12.079   0.724   7.342 -0.0219  0.1857  0.0472
 1239ERGO    C116637  11.860   0.645   7.644  0.0230  0.1543  0.0724
 1239ERGO    C216638  11.732   0.448   7.758 -0.0625 -0.1151  0.2867
 1240ERGO   ROH16639   2.125   6.497   5.300 -0.0618 -0.1256  0.0696
 1240ERGO    R116640   2.143   6.601   5.563  0.2072 -0.1462  0.0623
 1240ERGO    R216641   2.384   6.664   5.682  0.3205  0.0530 -0.2618
 1240ERGO    R316642   2.266   6.906   5.719  0.1512 -0.0554 -0.0678
 1240ERGO    R416643   2.457   6.882   5.940  0.3382 -0.0067 -0.2160
 1240ERGO    R516644   2.244   6.926   5.956  0.3101 -0.1828 -0.0389
 1240ERGO    C116645   2.389   7.237   6.124  0.1895 -0.1432 -0.0073
 1240ERGO    C216646   2.642   7.451   6.395  0.0248  0.2203  0.2983
 1241ERGO   ROH16647   2.590  14.264   5.721  0.1411 -0.1819  0.0334
 1241ERGO    R116648   2.620  14.273   6.002  0.0356 -0.0449  0.0418
 1241ERGO    R216649   2.867  14.264   6.126 -0.0110 -0.0612  0.1439
 1241ERGO    R316650   2.781  14.493   6.244  0.0144  0.0305 -0.0143
 1241ERGO    R416651   3.007  14.405   6.409  0.1276  0.2407 -0.0699
 1241ERGO    R516652   2.806  14.452   6.478  0.1655  0.2601  0.0089
 1241ERGO    C116653   3.007  14.702   6.684  0.2322  0.5025 -0.3428
 1241ERGO    C216654   3.231  14.989   6.889 -0.1302  0.2851  0.0882
 1242ERGO   ROH16655  13.736   6.003   5.908 -0.0417  0.0133  0.0073
 1242ERGO    R116656  13.687   5.996   6.187 -0.1660  0.0108 -0.0142
 1242ERGO    R216657  13.796   6.179   6.362  0.0152 -0.1776  0.0747
 1242ERGO    R316658  13.536   6.216   6.435  0.0299  0.1580 -0.0233
 1242ERGO    R416659  13.685   6.218   6.687 -0.0789 -0.2567  0.0527
 1242ERGO    R516660  13.514   6.092   6.639 -0.2507  0.0336 -0.1239
 1242ERGO    C116661  13.377   6.275   6.945 -0.1198  0.0123 -0.0522
 1242ERGO    C216662  13.463   6.393   7.224 -0.1765 -0.1495 -0.0662
 1243ERGO   ROH16663  17.824   6.099   5.656  0.2101  0.1502  0.0139
 1243ERGO    R116664  17.903   6.102   5.928  0.1625 -0.0605  0.0320
 1243ERGO    R216665  17.764   6.240   6.122  0.2881  0.0296  0.0632
 1243ERGO    R316666  17.759   5.998   6.246 -0.0286 -0.0250 -0.0413
 1243ERGO    R416667  17.601   6.172   6.420  0.1436  0.0940 -0.0011
 1243ERGO    R516668  17.771   6.050   6.479 -0.0131 -0.1392 -0.0164
 1243ERGO    C116669  17.502   5.906   6.709 -0.2375  0.0802 -0.1368
 1243ERGO    C216670  17.259   5.668   6.939  0.1792  0.2458 -0.0352
 1244ERGO   ROH16671  12.149   2.230   6.171 -0.0167  0.1939 -0.1053
 1244ERGO    R116672  11.940   2.328   6.335 -0.0455 -0.0767  0.0256
 1244ERGO    R216673  11.882   2.220   6.582  0.2875 -0.1193  0.0919
 1244ERGO    R316674  11.912   2.477   6.666 -0.0209 -0.0560  0.0180
 1244ERGO    R416675  11.901   2.319   6.913  0.0008  0.0230  0.0674
 1244ERGO    R516676  11.777   2.491   6.863 -0.1472 -0.1201 -0.0642
 1244ERGO    C116677  11.939   2.618   7.184 -0.4557  0.1653 -0.0161
 1244ERGO    C216678  11.901   2.784   7.531 -0.1159  0.1216 -0.0988
 1245ERGO   ROH16679  15.839  18.287   6.321 -0.0006  0.0217 -0.1526
 1245ERGO    R116680  15.816  18.115   6.544 -0.0935  0.1305 -0.0764
 1245ERGO    R216681  16.004  18.109   6.747 -0.0388  0.0439 -0.1270
 1245ERGO    R316682  15.787  18.152   6.905  0.0417  0.3048 -0.0821
 1245ERGO    R416683  15.992  18.046   7.087 -0.1823 -0.3862 -0.2066
 1245ERGO    R516684  15.789  17.968   7.060 -0.3567  0.0823 -0.3230
 1245ERGO    C116685  15.781  18.048   7.433 -0.1906 -0.3917 -0.2107
 1245ERGO    C216686  15.698  17.990   7.644  0.3821  0.2038 -0.3093
 1246ERGO   ROH16687  11.650  14.337   6.500 -0.0526 -0.0606 -0.0350
 1246ERGO    R116688  11.586  14.441   6.756 -0.0264 -0.0226 -0.0444
 1246ERGO    R216689  11.740  14.392   6.979 -0.0756 -0.0959 -0.0296
 1246ERGO    R316690  11.743  14.663   6.998  0.0601 -0.0956 -0.0312
 1246ERGO    R416691  11.852  14.570   7.254  0.0082 -0.1565 -0.0237
 1246ERGO    R516692  11.685  14.708   7.226  0.0745 -0.0698 -0.0296
 1246ERGO    C116693  11.919  14.929   7.431  0.1842 -0.1915 -0.0217
 1246ERGO    C216694  12.189  15.108   7.628 -0.3111 -0.2000 -0.3664
 1247ERGO   ROH16695  12.431  11.742   6.217  0.0201  0.1110  0.0168
 1247ERGO    R116696  12.364  11.874   6.458  0.0563  0.0388  0.0649
 1247ERGO    R216697  12.252  11.742   6.674  0.0480 -0.0135  0.0183
 1247ERGO    R316698  12.462  11.851   6.808  0.0687 -0.0942  0.0559
 1247ERGO    R416699  12.256  11.811   7.013 -0.0507  0.1047 -0.0025
 1247ERGO    R516700  12.360  11.997   6.969  0.0869  0.0318 -0.0354
 1247ERGO    C116701  12.455  11.953   7.336 -0.0887  0.0977  0.0207
 1247ERGO    C216702  12.684  11.935   7.573  0.3449  0.0628  0.0513
 1248ERGO   ROH16703   6.719   5.375   5.886 -0.1596  0.0360  0.0462
 1248ERGO    R116704   6.807   5.201   6.091 -0.1274 -0.0952 -0.0785
 1248ERGO    R216705   6.775   5.258   6.359  0.1982 -0.1157 -0.0354
 1248ERGO    R316706   6.655   5.015   6.364 -0.0421 -0.0002  0.0368
 1248ERGO    R416707   6.655   5.102   6.643  0.3507 -0.0516  0.0664
 1248ERGO    R516708   6.732   4.913   6.566  0.0837 -0.1187 -0.0641
 1248ERGO    C116709   6.472   4.782   6.812  0.2139  0.0941  0.1934
 1248ERGO    C216710   6.445   4.480   6.984  0.0449 -0.3637  0.0272
 1249ERGO   ROH16711  14.008  14.332   6.565 -0.0078  0.2746  0.1428
 1249ERGO    R116712  14.002  14.144   6.777 -0.0627  0.0452 -0.0582
 1249ERGO    R216713  14.000  14.220   7.042  0.3511 -0.2420  0.0320
 1249ERGO    R316714  13.778  14.064   7.053  0.1125  0.0899  0.1004
 1249ERGO    R416715  13.829  14.140   7.331  0.5625 -0.3016  0.1439
 1249ERGO    R516716  13.804  13.938   7.255  0.1578 -0.1854 -0.0694
 1249ERGO    C116717  13.520  13.947   7.509  0.4615 -0.0248  0.2733
 1249ERGO    C216718  13.308  13.930   7.781 -0.1027  0.4577  0.1313
 1250ERGO   ROH16719  14.621  14.228   6.246 -0.2422 -0.0431  0.0299
 1250ERGO    R116720  14.711  14.164   6.506 -0.1731  0.0213  0.0227
 1250ERGO    R216721  14.956  14.247   6.604 -0.1180 -0.0067 -0.0842
 1250ERGO    R316722  14.805  14.347   6.806 -0.0290  0.0998 -0.0700
 1250ERGO    R416723  15.081  14.368   6.903 -0.0180 -0.2721 -0.0163
 1250ERGO    R516724  14.914  14.272   7.005 -0.1515 -0.1104 -0.0811
 1250ERGO    C116725  15.011  14.532   7.267  0.1240 -0.3267  0.0367
 1250ERGO    C216726  15.080  14.647   7.617  0.2274 -0.0964 -0.0456
 1251ERGO   ROH16727  10.981   7.225   8.327  0.2178 -0.1838  0.0436
 1251ERGO    R116728  10.818   7.136   8.114  0.1168 -0.0271  0.0534
 1251ERGO    R216729  10.791   7.277   7.878  0.2234  0.0091  0.0624
 1251ERGO    R316730  10.866   7.040   7.766  0.0005 -0.0555  0.0446
 1251ERGO    R416731  10.731   7.186   7.550  0.1804  0.1118  0.0414
 1251ERGO    R516732  10.685   6.984   7.619 -0.0364  0.1472  0.0092
 1251ERGO    C116733  10.766   6.911   7.254 -0.0537  0.1109  0.0125
 1251ERGO    C216734  10.630   6.913   6.951  0.1187 -0.0071 -0.3858
 1252ERGO   ROH16735  13.239   0.693   6.454 -0.0572 -0.1374 -0.0881
 1252ERGO    R116736  13.121   0.799   6.688 -0.0601 -0.2195 -0.0526
 1252ERGO    R216737  13.058   0.643   6.907  0.2155 -0.2449  0.0074
 1252ERGO    R316738  13.209   0.827   7.040  0.0810 -0.0534 -0.0983
 1252ERGO    R416739  13.013   0.734   7.237  0.1180 -0.0610 -0.0551
 1252ERGO    R516740  13.053   0.941   7.181 -0.0155 -0.0657 -0.1889
 1252ERGO    C116741  13.128   0.960   7.554 -0.0651  0.2258 -0.1907
 1252ERGO    C216742  13.124   0.890   7.914  0.1492  0.0953  0.0491
 1253ERGO   ROH16743   5.264  14.432   6.205  0.1831  0.1412  0.0687
 1253ERGO    R116744   5.232  14.241   6.411 -0.1255  0.2074  0.0889
 1253ERGO    R216745   5.447  14.126   6.541 -0.2923 -0.2918 -0.0478
 1253ERGO    R316746   5.320  14.216   6.763  0.0496  0.0154  0.0324
 1253ERGO    R416747   5.477  13.987   6.856 -0.5730 -0.4878 -0.1038
 1253ERGO    R516748   5.264  14.017   6.885 -0.4872  0.1291 -0.0118
 1253ERGO    C116749   5.376  13.991   7.248 -0.4155 -0.3135 -0.0612
 1253ERGO    C216750   5.549  13.897   7.579 -0.3568  0.0800 -0.1230
 1254ERGO   ROH16751   7.428   5.974   5.714 -0.2087  0.2953 -0.0557
 1254ERGO    R116752   7.532   6.062   5.962  0.1337 -0.1589 -0.0256
 1254ERGO    R216753   7.388   6.224   6.134  0.6540  0.1676  0.1126
 1254ERGO    R316754   7.442   6.027   6.313  0.1307 -0.1161 -0.0198
 1254ERGO    R416755   7.294   6.229   6.467  0.9125  0.3621  0.1875
 1254ERGO    R516756   7.488   6.143   6.518  0.6934 -0.3349  0.0022
 1254ERGO    C116757   7.290   6.046   6.829  0.5716  0.2090  0.1067
 1254ERGO    C216758   7.287   5.921   7.137  0.0344  0.0847 -0.0838
 1255ERGO   ROH16759   4.106  11.687   5.537  0.0241 -0.2227  0.1417
 1255ERGO    R116760   3.892  11.692   5.722 -0.0539 -0.0467  0.0481
 1255ERGO    R216761   3.932  11.697   5.996 -0.1695 -0.0169  0.0629
 1255ERGO    R316762   3.773  11.917   5.983 -0.0241  0.0836 -0.0492
 1255ERGO    R416763   3.787  11.852   6.268 -0.3142  0.0330 -0.0407
 1255ERGO    R516764   3.606  11.880   6.150 -0.1966  0.1610 -0.1990
 1255ERGO    C116765   3.554  12.150   6.415 -0.2619  0.1565 -0.2062
 1255ERGO    C216766   3.620  12.327   6.621  0.1412  0.4092 -0.0260
 1256ERGO   ROH16767   2.415  10.078   5.530 -0.2484  0.0186  0.2256
 1256ERGO    R116768   2.320   9.991   5.782 -0.1183 -0.4253  0.1312
 1256ERGO    R216769   2.438   9.785   5.923  0.5663 -0.0566  0.1407
 1256ERGO    R316770   2.450   9.971   6.121 -0.2635 -0.0452  0.2150
 1256ERGO    R416771   2.440   9.713   6.261  0.6667 -0.1706  0.1163
 1256ERGO    R516772   2.308   9.884   6.293 -0.0369 -0.6717  0.1115
 1256ERGO    C116773   2.453   9.846   6.644 -0.0539 -0.2263  0.1717
 1256ERGO    C216774   2.463   9.965   6.964 -0.0687 -0.1148  0.0341
 1257ERGO   ROH16775   3.949   0.663   5.641  0.0103  0.0080  0.1234
 1257ERGO    R116776   3.807   0.775   5.858  0.0217 -0.0080  0.1408
 1257ERGO    R216777   3.927   0.838   6.099  0.0257 -0.0770  0.1646
 1257ERGO    R316778   3.820   1.083   6.052  0.0761 -0.0496  0.1997
 1257ERGO    R416779   3.808   1.051   6.344 -0.3754 -0.2799  0.1537
 1257ERGO    R516780   3.642   1.101   6.212 -0.1738 -0.1909 -0.0611
 1257ERGO    C116781   3.638   1.405   6.442 -0.5616 -0.3724  0.1802
 1257ERGO    C216782   3.455   1.599   6.668 -0.2635  0.0942 -0.2199
 1258ERGO   ROH16783   8.821   5.588   5.924 -0.5040 -0.0200 -0.0191
 1258ERGO    R116784   8.884   5.532   6.194 -0.2800  0.0896 -0.0477
 1258ERGO    R216785   8.729   5.621   6.405 -0.2210 -0.0051  0.0303
 1258ERGO    R316786   8.727   5.358   6.472  0.0533  0.0055  0.0950
 1258ERGO    R416787   8.708   5.500   6.728 -0.1547  0.0610  0.0604
 1258ERGO    R516788   8.854   5.347   6.675  0.0286  0.2016  0.1274
 1258ERGO    C116789   8.693   5.182   6.979  0.1412  0.1095  0.1386
 1258ERGO    C216790   8.647   5.062   7.358  0.2274  0.0407  0.1453
 1259ERGO   ROH16791  14.790  10.839   5.888  0.2349 -0.1454  0.0503
 1259ERGO    R116792  14.821  10.735   6.149  0.1360 -0.0818  0.0877
 1259ERGO    R216793  15.065  10.655   6.250  0.0838 -0.1409  0.1677
 1259ERGO    R316794  15.002  10.827   6.451  0.0983 -0.0608  0.1044
 1259ERGO    R416795  15.191  10.638   6.572 -0.0308 -0.1243  0.2139
 1259ERGO    R516796  14.993  10.689   6.647 -0.0330 -0.0104  0.1356
 1259ERGO    C116797  15.205  10.789   6.948 -0.0840 -0.0392  0.1812
 1259ERGO    C216798  15.252  10.498   7.211  0.0536 -0.0563  0.0232
 1260ERGO   ROH16799  10.081  13.028   5.963 -0.1010  0.0899 -0.0463
 1260ERGO    R116800   9.946  13.155   6.178 -0.0092 -0.0089  0.0711
 1260ERGO    R216801   9.894  13.028   6.417  0.1505 -0.0990  0.0575
 1260ERGO    R316802  10.022  13.243   6.522  0.1630 -0.1070  0.0600
 1260ERGO    R416803   9.870  13.130   6.746  0.0293 -0.0110  0.0226
 1260ERGO    R516804   9.864  13.337   6.677  0.1168 -0.0251 -0.0336
 1260ERGO    C116805   9.977  13.392   7.037 -0.0297  0.0326  0.0045
 1260ERGO    C216806  10.105  13.447   7.331 -0.2821 -0.1040  0.1723
 1261ERGO   ROH16807  18.339   7.187   5.437 -0.1703  0.1200 -0.0543
 1261ERGO    R116808  18.218   7.277   5.676  0.1005  0.1286  0.0855
 1261ERGO    R216809  17.998   7.151   5.788 -0.1056  0.4344  0.0536
 1261ERGO    R316810  18.157   7.142   6.009 -0.0142 -0.0842 -0.0221
 1261ERGO    R416811  17.884   7.158   6.114  0.0743  0.5331  0.1152
 1261ERGO    R516812  18.050   7.289   6.164  0.4269  0.0949  0.1167
 1261ERGO    C116813  17.966   7.154   6.511  0.2650  0.1037  0.0801
 1261ERGO    C216814  17.915   7.074   6.819 -0.6109  0.1642  0.3428
 1262ERGO   ROH16815   1.743  17.132   5.823  0.0588  0.0446  0.0812
 1262ERGO    R116816   1.578  16.964   5.982  0.0835 -0.0872 -0.0307
 1262ERGO    R216817   1.680  16.790   6.171  0.0972 -0.0268  0.0163
 1262ERGO    R316818   1.509  16.921   6.336 -0.0990 -0.1630 -0.0740
 1262ERGO    R416819   1.565  16.669   6.473  0.1265 -0.0708  0.0104
 1262ERGO    R516820   1.369  16.750   6.425  0.0530 -0.2916 -0.0757
 1262ERGO    C116821   1.337  16.722   6.804 -0.0407 -0.2241 -0.0778
 1262ERGO    C216822   1.311  16.679   7.138  0.0221  0.0484  0.0728
 1263ERGO   ROH16823   6.993   3.947   5.319 -0.1773  0.0787  0.1270
 1263ERGO    R116824   7.040   3.974   5.597 -0.1469  0.0934  0.1197
 1263ERGO    R216825   6.875   4.122   5.761 -0.1913  0.0066  0.1469
 1263ERGO    R316826   6.863   3.891   5.904 -0.0564 -0.0011  0.1480
 1263ERGO    R416827   6.799   4.102   6.098 -0.2480 -0.0344  0.1325
 1263ERGO    R516828   6.953   3.949   6.118 -0.1396  0.0723  0.1671
 1263ERGO    C116829   6.744   3.874   6.428 -0.1544 -0.0655  0.1251
 1263ERGO    C216830   6.520   3.962   6.480 -0.3735  0.1444  0.1078
 1264ERGO   ROH16831   2.986  18.278   5.880  0.2271 -0.1305 -0.0665
 1264ERGO    R116832   2.831  18.278   6.116  0.1320 -0.0220 -0.1285
 1264ERGO    R216833   2.773  18.047   6.257  0.2369  0.0655  0.0558
 1264ERGO    R316834   2.880  18.185   6.465  0.0554  0.3279 -0.0191
 1264ERGO    R416835   2.690  18.000   6.589  0.4514 -0.0254  0.0986
 1264ERGO    R516836   2.697  18.216   6.616  0.0435  0.0073  0.0427
 1264ERGO    C116837   2.742  18.102   6.977  0.4059  0.1679  0.0531
 1264ERGO    C216838   2.568  18.162   7.268 -0.0882 -0.2159  0.0729
 1265ERGO   ROH16839   3.470   3.176   5.124  0.0463 -0.2315 -0.1152
 1265ERGO    R116840   3.581   3.174   5.384 -0.0188 -0.1479 -0.0858
 1265ERGO    R216841   3.442   3.261   5.607 -0.1108 -0.1681 -0.1335
 1265ERGO    R316842   3.506   3.014   5.703 -0.0384 -0.1295 -0.0818
 1265ERGO    R416843   3.451   3.175   5.942  0.0966 -0.0503 -0.1072
 1265ERGO    R516844   3.631   3.058   5.902  0.0787 -0.0523 -0.1728
 1265ERGO    C116845   3.516   2.894   6.227  0.2853  0.0544 -0.0435
 1265ERGO    C216846   3.506   2.915   6.621  0.3549  0.1518 -0.2339
 1266ERGO   ROH16847   8.237   2.647   5.744  0.2803  0.0298  0.2880
 1266ERGO    R116848   8.115   2.644   5.999  0.1938 -0.0033  0.2461
 1266ERGO    R216849   7.888   2.496   6.053  0.0905  0.1051  0.1099
 1266ERGO    R316850   8.041   2.395   6.254 -0.0350 -0.0652  0.1233
 1266ERGO    R416851   7.766   2.372   6.353 -0.0792  0.1433  0.0584
 1266ERGO    R516852   7.933   2.468   6.455 -0.0188 -0.0152  0.1152
 1266ERGO    C116853   7.840   2.206   6.715 -0.2959  0.0057  0.0410
 1266ERGO    C216854   7.597   1.993   6.907 -0.1967 -0.0213  0.0559
 1267ERGO   ROH16855   8.266  17.210   6.229 -0.2630  0.0154 -0.1026
 1267ERGO    R116856   8.364  17.224   6.494 -0.2203  0.0132 -0.1192
 1267ERGO    R216857   8.325  17.444   6.656 -0.2235 -0.0051 -0.1029
 1267ERGO    R316858   8.222  17.260   6.828 -0.1669 -0.0273 -0.0905
 1267ERGO    R416859   8.343  17.463   7.001 -0.3060  0.0771 -0.1018
 1267ERGO    R516860   8.382  17.248   7.006 -0.1946  0.0926 -0.0523
 1267ERGO    C116861   8.257  17.301   7.362 -0.3009  0.1043 -0.0897
 1267ERGO    C216862   8.058  17.135   7.556  0.1214  0.0741 -0.0937
 1268ERGO   ROH16863  13.887   2.299   6.478  0.0399  0.3614  0.0024
 1268ERGO    R116864  13.858   2.356   6.754  0.0477  0.1426  0.0495
 1268ERGO    R216865  13.721   2.189   6.926  0.0641  0.0009 -0.0780
 1268ERGO    R316866  13.953   2.197   7.067  0.0664 -0.0997 -0.0742
 1268ERGO    R416867  13.760   2.073   7.250 -0.0844  0.2687  0.0400
 1268ERGO    R516868  13.885   2.247   7.292  0.0945  0.1894 -0.1213
 1268ERGO    C116869  14.001   2.013   7.570 -0.1685  0.3302  0.1123
 1268ERGO    C216870  14.145   1.971   7.875 -0.0326  0.1619 -0.1706
 1269ERGO   ROH16871  17.869  14.427   5.737  0.0716 -0.1890 -0.1350
 1269ERGO    R116872  17.888  14.344   6.007  0.2178 -0.1766 -0.1409
 1269ERGO    R216873  17.672  14.247   6.148  0.2086  0.1693  0.0903
 1269ERGO    R316874  17.837  14.036   6.193 -0.0607 -0.0760 -0.0453
 1269ERGO    R416875  17.716  14.093   6.455  0.2566  0.1345  0.0659
 1269ERGO    R516876  17.929  14.078   6.411  0.2018 -0.1878 -0.1293
 1269ERGO    C116877  17.896  13.805   6.675  0.0319 -0.1160 -0.0757
 1269ERGO    C216878  17.893  13.580   6.993  0.0591  0.0820  0.0575
 1270ERGO   ROH16879  19.190   2.819   5.690 -0.1541  0.1146 -0.2351
 1270ERGO    R116880  19.249   2.844   5.966 -0.1956  0.1413 -0.2293
 1270ERGO    R216881  19.107   2.710   6.161 -0.0871 -0.0066 -0.2555
 1270ERGO    R316882  19.353   2.622   6.235 -0.0113  0.2094 -0.2417
 1270ERGO    R416883  19.187   2.590   6.475 -0.0705 -0.1628 -0.3181
 1270ERGO    R516884  19.377   2.697   6.462 -0.1779  0.0641 -0.1706
 1270ERGO    C116885  19.466   2.438   6.727  0.0103 -0.0510 -0.3416
 1270ERGO    C216886  19.533   2.338   7.048 -0.0450 -0.0585 -0.2805
 1271ERGO   ROH16887  13.817   7.872   5.747  0.1431 -0.2263 -0.0418
 1271ERGO    R116888  13.742   7.863   6.020  0.0591 -0.1534 -0.0614
 1271ERGO    R216889  13.823   7.661   6.190  0.1278 -0.0334  0.0560
 1271ERGO    R316890  13.912   7.869   6.342 -0.0467  0.0897 -0.0091
 1271ERGO    R416891  13.863   7.653   6.534 -0.0471  0.1788  0.0834
 1271ERGO    R516892  13.783   7.855   6.543 -0.1433  0.1452 -0.0696
 1271ERGO    C116893  13.970   7.842   6.875 -0.3128  0.4178  0.0383
 1271ERGO    C216894  13.927   7.766   7.178 -0.0423  0.5251  0.1852
 1272ERGO   ROH16895   2.988  16.043   5.937 -0.3142  0.0059 -0.0188
 1272ERGO    R116896   2.817  15.932   6.134 -0.0874 -0.1521  0.0921
 1272ERGO    R216897   2.913  15.802   6.358  0.1865  0.1826  0.1719
 1272ERGO    R316898   2.756  15.981   6.489 -0.1131  0.0076  0.0685
 1272ERGO    R416899   2.703  15.725   6.622  0.3371 -0.0198  0.2362
 1272ERGO    R516900   2.555  15.861   6.537  0.0888 -0.3178  0.1561
 1272ERGO    C116901   2.435  15.848   6.899  0.1436 -0.3020  0.1766
 1272ERGO    C216902   2.357  15.853   7.155 -0.0777 -0.1365 -0.1730
 1273ERGO   ROH16903   3.774  17.677   5.811  0.1818  0.0919  0.0654
 1273ERGO    R116904   3.684  17.665   6.080  0.1407  0.0034  0.0467
 1273ERGO    R216905   3.668  17.428   6.220  0.2599 -0.0212  0.0099
 1273ERGO    R316906   3.822  17.562   6.400  0.1440  0.0478  0.0612
 1273ERGO    R416907   3.640  17.399   6.564  0.2706 -0.1712 -0.0000
 1273ERGO    R516908   3.671  17.615   6.579  0.0880 -0.1437  0.0774
 1273ERGO    C116909   3.768  17.508   6.932  0.1681 -0.1939  0.0423
 1273ERGO    C216910   3.795  17.513   7.347 -0.0391  0.2096  0.1965
 1274ERGO   ROH16911   6.401   9.324   5.667  0.2145  0.1149  0.0932
 1274ERGO    R116912   6.578   9.331   5.888  0.1627  0.0268  0.1383
 1274ERGO    R216913   6.556   9.519   6.089  0.1478 -0.0209  0.1815
 1274ERGO    R316914   6.550   9.300   6.249  0.0699 -0.0609  0.1240
 1274ERGO    R416915   6.495   9.524   6.430  0.3111 -0.0684  0.2121
 1274ERGO    R516916   6.649   9.373   6.455  0.2184 -0.1847  0.0981
 1274ERGO    C116917   6.454   9.321   6.778  0.3330 -0.1335  0.1760
 1274ERGO    C216918   6.567   9.486   7.056 -0.1484 -0.2050 -0.1032
 1275ERGO   ROH16919   3.454  13.197   5.939  0.0218 -0.0956 -0.0714
 1275ERGO    R116920   3.314  13.217   6.184 -0.1003 -0.0360 -0.1451
 1275ERGO    R216921   3.423  13.333   6.409 -0.1045 -0.2312 -0.0388
 1275ERGO    R316922   3.197  13.485   6.401  0.0570  0.0116 -0.1186
 1275ERGO    R416923   3.326  13.554   6.656 -0.0665 -0.2894  0.0283
 1275ERGO    R516924   3.120  13.487   6.628 -0.1184 -0.0568 -0.1771
 1275ERGO    C116925   3.057  13.825   6.793  0.1072 -0.0954 -0.0076
 1275ERGO    C216926   2.958  14.222   6.868  0.0063 -0.1948 -0.1451
 1276ERGO   ROH16927  10.934  17.485   6.367  0.0372 -0.1848 -0.0496
 1276ERGO    R116928  11.007  17.655   6.580  0.0507 -0.0981 -0.1234
 1276ERGO    R216929  10.909  17.623   6.837  0.0804 -0.0041 -0.1015
 1276ERGO    R316930  11.173  17.620   6.902  0.0874  0.0365 -0.1262
 1276ERGO    R416931  11.042  17.744   7.133  0.0846  0.0038 -0.1064
 1276ERGO    R516932  11.209  17.826   7.019  0.0619  0.0383 -0.1187
 1276ERGO    C116933  11.367  17.811   7.365  0.0936  0.0467 -0.1325
 1276ERGO    C216934  11.645  17.757   7.587 -0.0429 -0.0360  0.2083
 1277ERGO   ROH16935  10.348  10.912   6.032 -0.0693 -0.3448  0.0863
 1277ERGO    R116936  10.273  11.012   6.286 -0.0626 -0.1212  0.0036
 1277ERGO    R216937  10.269  10.854   6.513 -0.2260  0.0301  0.1143
 1277ERGO    R316938  10.429  11.050   6.612 -0.1123 -0.0119  0.0137
 1277ERGO    R416939  10.366  10.882   6.844 -0.2001  0.1448  0.0967
 1277ERGO    R516940  10.338  11.097   6.829 -0.0766  0.1499 -0.0091
 1277ERGO    C116941  10.573  11.082   7.129 -0.0784  0.1720 -0.0080
 1277ERGO    C216942  10.796  10.983   7.316  0.0756 -0.2406  0.1635
 1278ERGO   ROH16943  14.986  18.703   6.795 -0.3397  0.0913 -0.0564
 1278ERGO    R116944  14.969  18.713   7.077 -0.3184  0.1497 -0.0586
 1278ERGO    R216945  15.167  18.827   7.233 -0.2045 -0.0186 -0.0889
 1278ERGO    R316946  14.960  18.973   7.332 -0.0590  0.1985 -0.0929
 1278ERGO    R416947  15.146  18.944   7.558 -0.0986 -0.0334 -0.0751
 1278ERGO    R516948  14.934  18.893   7.557 -0.1627  0.1953 -0.1007
 1278ERGO    C116949  14.940  19.150   7.839  0.0997  0.1616 -0.0709
 1278ERGO    C216950  15.079  19.057   8.191 -0.1562 -0.0461  0.0233
 1279ERGO   ROH16951   7.636   8.837   5.554 -0.1667  0.2972  0.0593
 1279ERGO    R116952   7.732   8.770   5.812 -0.0988 -0.0733 -0.0572
 1279ERGO    R216953   7.713   8.943   6.027  0.3389 -0.2104  0.0922
 1279ERGO    R316954   7.591   8.731   6.145  0.0623 -0.1027  0.0118
 1279ERGO    R416955   7.559   8.950   6.336  0.3923 -0.1215  0.1184
 1279ERGO    R516956   7.643   8.753   6.377  0.1350 -0.2681  0.0207
 1279ERGO    C116957   7.354   8.755   6.627  0.1637  0.0315  0.0582
 1279ERGO    C216958   7.232   8.612   6.996 -0.0075  0.2638 -0.0253
 1280ERGO   ROH16959   4.044  10.718   5.629  0.0601  0.0488  0.0061
 1280ERGO    R116960   4.019  10.586   5.878  0.0119  0.0552  0.0047
 1280ERGO    R216961   4.218  10.425   5.982 -0.0678 -0.0596 -0.0211
 1280ERGO    R316962   4.193  10.588   6.198  0.0470 -0.0527 -0.0124
 1280ERGO    R416963   4.266  10.329   6.311 -0.1801 -0.1277 -0.0243
 1280ERGO    R516964   4.095  10.451   6.367 -0.0867  0.0135 -0.0329
 1280ERGO    C116965   4.270  10.427   6.704 -0.1377 -0.1609 -0.0180
 1280ERGO    C216966   4.400  10.563   7.109 -0.1651 -0.0083 -0.0759
 1281ERGO   ROH16967   7.405  18.396   6.479  0.0180  0.0306 -0.0939
 1281ERGO    R116968   7.589  18.521   6.654 -0.0739  0.1210 -0.0610
 1281ERGO    R216969   7.518  18.729   6.822 -0.2625 -0.0700  0.0981
 1281ERGO    R316970   7.624  18.567   7.013 -0.0284 -0.0819 -0.0383
 1281ERGO    R416971   7.672  18.839   7.112 -0.1781 -0.0899  0.0615
 1281ERGO    R516972   7.821  18.682   7.086 -0.0719  0.0334 -0.0989
 1281ERGO    C116973   7.861  18.751   7.459  0.0908 -0.1128 -0.0878
 1281ERGO    C216974   7.838  18.894   7.855  0.0280  0.1055  0.3786
 1282ERGO   ROH16975   8.578  15.629   6.323 -0.1776 -0.2105 -0.0841
 1282ERGO    R116976   8.404  15.608   6.545  0.1736 -0.0132  0.2202
 1282ERGO    R216977   8.180  15.445   6.544 -0.1590  0.4331  0.4971
 1282ERGO    R316978   8.293  15.344   6.770  0.0502  0.0468  0.2346
 1282ERGO    R416979   8.022  15.232   6.765 -0.0764  0.2945  0.4265
 1282ERGO    R516980   8.114  15.342   6.929  0.2384  0.0147  0.4615
 1282ERGO    C116981   8.035  15.014   7.106  0.1682 -0.1488  0.1390
 1282ERGO    C216982   7.825  14.763   7.220  0.0224 -0.6241  0.0689
 1283ERGO   ROH16983   2.920   2.387   5.094  0.4354  0.0079  0.0624
 1283ERGO    R116984   2.937   2.358   5.375  0.1452  0.1667  0.0997
 1283ERGO    R216985   3.161   2.258   5.501 -0.1211 -0.1236  0.3593
 1283ERGO    R316986   3.145   2.490   5.643  0.1372  0.0035  0.1879
 1283ERGO    R416987   3.208   2.284   5.843 -0.2391  0.0493  0.3637
 1283ERGO    R516988   3.042   2.426   5.849 -0.0485  0.2904  0.1902
 1283ERGO    C116989   3.221   2.517   6.174 -0.0651  0.2694  0.2053
 1283ERGO    C216990   3.365   2.436   6.402 -0.2650 -0.1865  0.0144
 1284ERGO   ROH16991  13.914  17.073   6.372  0.0717 -0.0746  0.1191
 1284ERGO    R116992  14.082  17.062   6.599  0.0847  0.1105  0.1192
 1284ERGO    R216993  14.177  17.288   6.726 -0.1291  0.2150  0.0900
 1284ERGO    R316994  14.066  17.173   6.946 -0.0174  0.1359  0.1072
 1284ERGO    R416995  14.237  17.386   7.052 -0.0912  0.2093  0.0856
 1284ERGO    R516996  14.241  17.175   7.109  0.0259  0.2027  0.0624
 1284ERGO    C116997  14.168  17.334   7.448  0.0359  0.1320  0.0992
 1284ERGO    C216998  14.034  17.292   7.806  0.0172  0.1261 -0.0168
 1285ERGO   ROH16999   5.257  15.381   6.247  0.1673 -0.3643 -0.0471
 1285ERGO    R117000   5.263  15.240   6.492  0.0868 -0.3598 -0.0412
 1285ERGO    R217001   5.392  15.336   6.716  0.1808 -0.4441 -0.0539
 1285ERGO    R317002   5.149  15.296   6.833  0.1605 -0.2605 -0.0337
 1285ERGO    R417003   5.342  15.281   7.054  0.1756 -0.5013 -0.0648
 1285ERGO    R517004   5.191  15.132   7.002  0.0341 -0.3491 -0.0894
 1285ERGO    C117005   5.086  15.212   7.360  0.1536 -0.3623 -0.0522
 1285ERGO    C217006   5.196  15.324   7.686 -0.2526 -0.0815  0.0913
 1286ERGO   ROH17007   5.466   7.316   5.247  0.1321  0.0257  0.1962
 1286ERGO    R117008   5.523   7.518   5.437  0.2095  0.0097  0.1901
 1286ERGO    R217009   5.336   7.609   5.618  0.2115  0.1639  0.1156
 1286ERGO    R317010   5.527   7.545   5.800  0.1063  0.0515  0.1885
 1286ERGO    R417011   5.337   7.713   5.948  0.2255  0.2933  0.0753
 1286ERGO    R517012   5.553   7.744   5.932  0.2616  0.0819  0.1160
 1286ERGO    C117013   5.518   7.714   6.311  0.1349  0.2632  0.1203
 1286ERGO    C217014   5.617   7.814   6.631  0.1428  0.2457  0.4773
 1287ERGO   ROH17015   0.073  13.027   5.156  0.0739 -0.1870  0.2982
 1287ERGO    R117016   0.259  13.187   5.297  0.1676 -0.2542  0.2517
 1287ERGO    R217017   0.184  13.408   5.443  0.3249  0.0067 -0.0467
 1287ERGO    R317018   0.318  13.281   5.643  0.0290  0.0591  0.1929
 1287ERGO    R417019   0.374  13.567   5.685  0.4638  0.0360 -0.1741
 1287ERGO    R517020   0.521  13.406   5.666  0.2216 -0.2304  0.1131
 1287ERGO    C117021   0.611  13.540   6.012  0.2670  0.1024 -0.0233
 1287ERGO    C217022   0.733  13.506   6.412  0.0526 -0.2232  0.0637
 1288ERGO   ROH17023  18.683   1.435   6.288  0.0222 -0.1139 -0.2262
 1288ERGO    R117024  18.737   1.339   6.549  0.1090 -0.3798 -0.3390
 1288ERGO    R217025  18.617   1.446   6.775  0.6821 -0.1438 -0.1302
 1288ERGO    R317026  18.546   1.188   6.819  0.0350  0.0098 -0.1667
 1288ERGO    R417027  18.542   1.313   7.084  0.4359 -0.0344 -0.1395
 1288ERGO    R517028  18.650   1.133   7.028 -0.0339 -0.3070 -0.2133
 1288ERGO    C117029  18.430   0.992   7.306 -0.3146  0.1735 -0.1791
 1288ERGO    C217030  18.459   0.981   7.699  0.0813 -0.0481 -0.2942
 1289ERGO   ROH17031   7.387   2.631   6.424  0.0456  0.3208 -0.1038
 1289ERGO    R117032   7.578   2.729   6.608 -0.1780  0.5006  0.0381
 1289ERGO    R217033   7.508   2.835   6.853 -0.4358 -0.0309  0.2069
 1289ERGO    R317034   7.683   2.650   6.947  0.0118  0.2273 -0.0804
 1289ERGO    R417035   7.647   2.839   7.169 -0.5937 -0.2690  0.2826
 1289ERGO    R517036   7.837   2.777   7.081 -0.3729  0.3901  0.2311
 1289ERGO    C117037   7.893   2.668   7.442 -0.2654 -0.1653  0.0570
 1289ERGO    C217038   7.746   2.606   7.769 -0.1435  0.1136  0.0173
 1290ERGO   ROH17039  18.635  16.285   5.713  0.0380 -0.0129 -0.0611
 1290ERGO    R117040  18.766  16.367   5.950  0.1118 -0.1006 -0.0707
 1290ERGO    R217041  18.696  16.272   6.199  0.0449 -0.0318 -0.0636
 1290ERGO    R317042  18.960  16.209   6.214 -0.0015 -0.2379 -0.0678
 1290ERGO    R417043  18.879  16.255   6.492  0.1303  0.2450 -0.0979
 1290ERGO    R517044  19.045  16.351   6.388  0.1797 -0.0480 -0.3021
 1290ERGO    C117045  19.233  16.187   6.677  0.1360  0.2126 -0.1217
 1290ERGO    C217046  19.370  16.285   6.981  0.3880  0.2132 -0.0304
 1291ERGO   ROH17047   6.487   9.822   5.671  0.0332 -0.1313  0.0336
 1291ERGO    R117048   6.421   9.983   5.895  0.0391 -0.0696 -0.0090
 1291ERGO    R217049   6.214   9.919   6.067 -0.0242  0.0345 -0.0472
 1291ERGO    R317050   6.409   9.941   6.256 -0.0610 -0.0044 -0.0043
 1291ERGO    R417051   6.177  10.078   6.372 -0.1026 -0.0807  0.0041
 1291ERGO    R517052   6.378  10.160   6.349 -0.1101 -0.0418  0.0695
 1291ERGO    C117053   6.337  10.190   6.727 -0.1827 -0.1844  0.0744
 1291ERGO    C217054   6.342  10.297   7.169 -0.0406 -0.2834 -0.1512
 1292ERGO   ROH17055   4.673  17.303   6.086  0.0572  0.0240 -0.0219
 1292ERGO    R117056   4.676  17.230   6.360  0.0546  0.1659  0.0174
 1292ERGO    R217057   4.843  17.033   6.460 -0.1197  0.0407  0.0784
 1292ERGO    R317058   4.920  17.231   6.630  0.1312  0.0583 -0.0522
 1292ERGO    R417059   5.026  16.985   6.748 -0.2140 -0.0018  0.1307
 1292ERGO    R517060   4.901  17.133   6.847 -0.0239  0.2386  0.0146
 1292ERGO    C117061   5.205  17.142   7.076 -0.0334 -0.0105  0.0385
 1292ERGO    C217062   5.275  17.403   7.317  0.0337 -0.2329  0.1527
 1293ERGO   ROH17063  18.317  14.855   5.507 -0.0238 -0.1700  0.1520
 1293ERGO    R117064  18.223  14.903   5.770  0.0603 -0.4350  0.2344
 1293ERGO    R217065  18.296  14.745   5.985  0.4792 -0.4001  0.1317
 1293ERGO    R317066  18.371  14.983   6.093  0.1378 -0.3028  0.1657
 1293ERGO    R417067  18.260  14.832   6.318  0.2393 -0.4392  0.1173
 1293ERGO    R517068  18.201  15.032   6.254  0.0132 -0.5134  0.0977
 1293ERGO    C117069  18.309  15.106   6.613 -0.2211 -0.3707  0.1407
 1293ERGO    C217070  18.475  14.963   6.889 -0.1763 -0.2312 -0.0318
 1294ERGO   ROH17071  13.115   4.810   6.254  0.0610 -0.3635  0.1400
 1294ERGO    R117072  13.006   4.865   6.510 -0.0529 -0.2261  0.0637
 1294ERGO    R217073  12.761   4.766   6.592 -0.0702 -0.2210  0.0268
 1294ERGO    R317074  12.906   4.673   6.802 -0.1352 -0.0663  0.1412
 1294ERGO    R417075  12.652   4.763   6.920 -0.2761 -0.2269 -0.0407
 1294ERGO    R517076  12.853   4.823   6.981 -0.3600 -0.0653  0.0750
 1294ERGO    C117077  12.725   4.674   7.308 -0.4571 -0.0850  0.0274
 1294ERGO    C217078  12.605   4.507   7.582 -0.2164 -0.1148  0.0508
 1295ERGO   ROH17079  14.952  13.233   5.893 -0.1481  0.1313 -0.0840
 1295ERGO    R117080  14.870  13.206   6.163 -0.0489 -0.0058 -0.0662
 1295ERGO    R217081  15.031  13.092   6.356  0.0214 -0.1141 -0.1818
 1295ERGO    R317082  14.984  13.326   6.487  0.0782 -0.1777 -0.0472
 1295ERGO    R417083  15.069  13.138   6.697  0.0027 -0.3191 -0.1510
 1295ERGO    R517084  14.886  13.258   6.695  0.0413 -0.2672 -0.0966
 1295ERGO    C117085  15.046  13.384   7.018  0.0451 -0.4982 -0.0067
 1295ERGO    C217086  15.089  13.394   7.364  0.2273 -0.0782 -0.0611
 1296ERGO   ROH17087   0.579   0.802   5.845 -0.1633  0.0526  0.0140
 1296ERGO    R117088   0.599   0.740   6.121 -0.0498  0.2382  0.0507
 1296ERGO    R217089   0.491   0.900   6.317 -0.2195  0.2292 -0.0257
 1296ERGO    R317090   0.369   0.669   6.394  0.0678  0.1214  0.1186
 1296ERGO    R417091   0.276   0.870   6.587 -0.2697  0.1481 -0.0755
 1296ERGO    R517092   0.370   0.678   6.633 -0.0243  0.3120  0.1095
 1296ERGO    C117093   0.037   0.636   6.815 -0.0293 -0.0003  0.0311
 1296ERGO    C217094  -0.112   0.605   7.075 -0.1219 -0.1127  0.2798
 1297ERGO   ROH17095   4.711  18.307   6.046  0.1499  0.2514 -0.0570
 1297ERGO    R117096   4.694  18.340   6.327 -0.0008  0.0793 -0.0443
 1297ERGO    R217097   4.464  18.282   6.470 -0.0726 -0.0260 -0.2001
 1297ERGO    R317098   4.633  18.126   6.615 -0.1377 -0.1017 -0.2049
 1297ERGO    R417099   4.415  18.192   6.799 -0.1361 -0.0593 -0.2182
 1297ERGO    R517100   4.628  18.221   6.834 -0.1301 -0.1325 -0.1912
 1297ERGO    C117101   4.545  17.992   7.128 -0.2341 -0.1499 -0.2333
 1297ERGO    C217102   4.513  17.846   7.461  0.0281 -0.1387 -0.0113
 1298ERGO   ROH17103   4.716   0.229   5.923 -0.2401  0.1016 -0.0563
 1298ERGO    R117104   4.862   0.404   6.091 -0.0664 -0.0743 -0.0203
 1298ERGO    R217105   4.756   0.640   6.189  0.2160  0.0946 -0.1017
 1298ERGO    R317106   4.830   0.535   6.429 -0.0336  0.0215 -0.0550
 1298ERGO    R417107   4.714   0.795   6.495  0.2625  0.1719 -0.1345
 1298ERGO    R517108   4.910   0.722   6.554  0.1415 -0.0702 -0.0317
 1298ERGO    C117109   4.758   0.787   6.898  0.0554  0.1482 -0.1098
 1298ERGO    C217110   4.824   0.739   7.186 -0.1697  0.2691 -0.1032
 1299ERGO   ROH17111   0.519  17.393   5.715 -0.1958 -0.0852 -0.0562
 1299ERGO    R117112   0.553  17.295   5.978 -0.4701 -0.1311 -0.0353
 1299ERGO    R217113   0.726  17.413   6.160 -0.0657 -0.6148 -0.0858
 1299ERGO    R317114   0.503  17.423   6.315 -0.0379  0.1250 -0.0611
 1299ERGO    R417115   0.727  17.451   6.503  0.0975 -0.5671 -0.0911
 1299ERGO    R517116   0.565  17.306   6.515 -0.3871 -0.0585 -0.0529
 1299ERGO    C117117   0.519  17.483   6.849  0.2186  0.1553 -0.0711
 1299ERGO    C217118   0.602  17.755   6.941 -0.0645 -0.0772 -0.2220
 1300ERGO   ROH17119  16.057   9.393   5.958  0.1381 -0.3923 -0.0474
 1300ERGO    R117120  16.014   9.463   6.229  0.1669 -0.1531 -0.1022
 1300ERGO    R217121  15.790   9.382   6.370  0.1335  0.0533 -0.0339
 1300ERGO    R317122  15.975   9.286   6.545  0.0938  0.1191  0.0445
 1300ERGO    R417123  15.723   9.283   6.694  0.0589  0.1787 -0.0105
 1300ERGO    R517124  15.909   9.376   6.757  0.0461  0.2019 -0.0046
 1300ERGO    C117125  15.856   9.134   7.047 -0.0215  0.3137  0.0767
 1300ERGO    C217126  15.976   8.871   7.230  0.2259 -0.0834 -0.0889
 1301ERGO   ROH17127   6.090   6.151   5.317 -0.1748 -0.1720 -0.1462
 1301ERGO    R117128   5.940   6.135   5.556 -0.1202 -0.1223 -0.1091
 1301ERGO    R217129   5.937   5.909   5.715 -0.1840 -0.1347 -0.1283
 1301ERGO    R317130   6.011   6.084   5.909 -0.0518 -0.1846 -0.1321
 1301ERGO    R417131   5.850   5.882   6.048 -0.2352 -0.0340 -0.1323
 1301ERGO    R517132   5.820   6.098   6.053 -0.0511 -0.0090 -0.1489
 1301ERGO    C117133   5.869   6.030   6.425 -0.1410 -0.0223 -0.1383
 1301ERGO    C217134   5.869   6.073   6.808 -0.0918 -0.1419  0.4181
 1302ERGO   ROH17135   9.164   6.885   5.672  0.2210  0.2826 -0.0059
 1302ERGO    R117136   9.047   6.913   5.928  0.1841  0.1371 -0.0050
 1302ERGO    R217137   9.077   7.142   6.081 -0.0520  0.1569  0.0208
 1302ERGO    R317138   8.805   7.136   6.084 -0.0484 -0.1220  0.0102
 1302ERGO    R417139   8.881   7.220   6.354 -0.1493 -0.0704  0.0174
 1302ERGO    R517140   8.750   7.054   6.302  0.0237 -0.1988 -0.0027
 1302ERGO    C117141   8.511   7.260   6.517 -0.2027 -0.4648  0.0056
 1302ERGO    C217142   8.289   7.451   6.731  0.1375  0.3592 -0.0501
 1303ERGO   ROH17143  10.634   0.781   6.293 -0.0886  0.1826 -0.0621
 1303ERGO    R117144  10.701   0.815   6.567 -0.0179  0.0202 -0.0576
 1303ERGO    R217145  10.723   1.063   6.685  0.1796 -0.0413  0.0467
 1303ERGO    R317146  10.543   0.960   6.861  0.1334  0.0093  0.0285
 1303ERGO    R417147  10.648   1.198   6.994 -0.0069  0.1190 -0.0662
 1303ERGO    R517148  10.642   0.996   7.076  0.0207  0.1689  0.0519
 1303ERGO    C117149  10.436   1.180   7.339 -0.1587  0.2599 -0.1492
 1303ERGO    C217150  10.232   1.319   7.592 -0.0532  0.0955  0.1200
 1304ERGO   ROH17151   7.450  12.491   6.150 -0.2635 -0.0403 -0.0322
 1304ERGO    R117152   7.207  12.435   6.284 -0.2220 -0.2139 -0.0254
 1304ERGO    R217153   7.086  12.187   6.276  0.0643 -0.3697  0.1563
 1304ERGO    R317154   7.096  12.209   6.547  0.0050 -0.1343  0.1412
 1304ERGO    R417155   6.932  11.971   6.497 -0.0242 -0.1445  0.3174
 1304ERGO    R517156   6.878  12.143   6.620 -0.0202 -0.0286  0.1529
 1304ERGO    C117157   6.852  11.865   6.880 -0.1314  0.2076  0.3971
 1304ERGO    C217158   6.924  11.614   7.052  0.2955 -0.1468  0.0127
 1305ERGO   ROH17159  11.136  13.498   6.223 -0.0080  0.0897 -0.0501
 1305ERGO    R117160  11.296  13.556   6.449 -0.1212  0.3190 -0.0280
 1305ERGO    R217161  11.188  13.626   6.693 -0.2822 -0.2561  0.0691
 1305ERGO    R317162  11.341  13.420   6.783  0.3552  0.0804 -0.1775
 1305ERGO    R417163  11.298  13.591   7.019 -0.5228 -0.4646  0.1325
 1305ERGO    R517164  11.490  13.523   6.940 -0.1595  0.3460  0.1805
 1305ERGO    C117165  11.506  13.378   7.293 -0.0646 -0.2702 -0.0621
 1305ERGO    C217166  11.526  13.352   7.626  0.0217  0.2667 -0.4928
 1306ERGO   ROH17167   9.369   0.301   7.403 -0.0463  0.1850  0.1586
 1306ERGO    R117168   9.472   0.221   7.654 -0.0111  0.1155  0.1214
 1306ERGO    R217169   9.443  -0.036   7.752  0.0751  0.0689  0.0159
 1306ERGO    R317170   9.714  -0.023   7.775  0.0727  0.1431  0.0151
 1306ERGO    R417171   9.640  -0.273   7.909  0.1425  0.0756 -0.0563
 1306ERGO    R517172   9.759  -0.111   7.993  0.0981  0.0898 -0.0081
 1306ERGO    C117173  10.008  -0.399   8.021  0.1794  0.1492 -0.0991
 1306ERGO    C217174  10.245  -0.586   8.027 -0.3240  0.1462  0.2730
 1307ERGO   ROH17175  16.099  14.509   5.976 -0.0936 -0.3001 -0.0930
 1307ERGO    R117176  16.166  14.374   6.216 -0.2371 -0.2656 -0.0331
 1307ERGO    R217177  16.220  14.506   6.452  0.0883 -0.2033 -0.1401
 1307ERGO    R317178  16.026  14.344   6.550 -0.1641  0.1939  0.0458
 1307ERGO    R417179  16.213  14.381   6.774  0.2868 -0.3836 -0.2033
 1307ERGO    R517180  16.144  14.191   6.692 -0.2977 -0.1828 -0.2290
 1307ERGO    C117181  16.027  14.156   7.054  0.1654 -0.1157 -0.0656
 1307ERGO    C217182  15.912  14.382   7.342 -0.2658  0.1218  0.2780
 1308ERGO   ROH17183  13.129   2.938   6.154  0.1044  0.0206  0.0918
 1308ERGO    R117184  13.133   2.900   6.435  0.0377 -0.0384  0.0868
 1308ERGO    R217185  12.961   3.033   6.606  0.0153 -0.0453  0.0826
 1308ERGO    R317186  12.901   2.781   6.689 -0.0385 -0.0559  0.0066
 1308ERGO    R417187  12.877   2.945   6.930  0.0521 -0.1449  0.0637
 1308ERGO    R517188  12.998   2.765   6.907 -0.0065 -0.1650 -0.0209
 1308ERGO    C117189  12.773   2.657   7.196  0.0229 -0.2128 -0.0188
 1308ERGO    C217190  12.408   2.792   7.375  0.2225 -0.2241  0.2297
 1309ERGO   ROH17191   9.042  16.563   6.292 -0.1302  0.1457 -0.0394
 1309ERGO    R117192   9.084  16.422   6.534 -0.1390 -0.0260 -0.1372
 1309ERGO    R217193   8.990  16.513   6.776  0.0843 -0.0608 -0.0403
 1309ERGO    R317194   8.875  16.267   6.789 -0.1564  0.0441 -0.1066
 1309ERGO    R417195   8.828  16.384   7.054  0.1777 -0.0640  0.0136
 1309ERGO    R517196   8.921  16.191   7.011 -0.0475 -0.1391 -0.1851
 1309ERGO    C117197   8.627  16.078   7.226  0.0061  0.0323 -0.0172
 1309ERGO    C217198   8.555  15.920   7.583  0.1547 -0.0703 -0.0522
 1310ERGO   ROH17199   4.401  14.882   5.988  0.0203  0.1649 -0.1397
 1310ERGO    R117200   4.422  14.704   6.207 -0.0092  0.0779 -0.2103
 1310ERGO    R217201   4.455  14.792   6.466 -0.0085 -0.0313 -0.1894
 1310ERGO    R317202   4.235  14.638   6.513 -0.0232 -0.0295 -0.2361
 1310ERGO    R417203   4.375  14.651   6.772 -0.0110 -0.0756 -0.2083
 1310ERGO    R517204   4.313  14.470   6.666 -0.0193 -0.0660 -0.2576
 1310ERGO    C117205   4.122  14.425   6.993 -0.0263 -0.0997 -0.2631
 1310ERGO    C217206   4.040  14.504   7.383  0.3294 -0.6282 -0.0222
 1311ERGO   ROH17207   5.450  12.947   5.545 -0.0926  0.2012  0.1186
 1311ERGO    R117208   5.458  12.803   5.788 -0.1334  0.1762  0.1057
 1311ERGO    R217209   5.689  12.687   5.885 -0.2278 -0.1703 -0.0612
 1311ERGO    R317210   5.630  12.832   6.107  0.1374 -0.0883 -0.0130
 1311ERGO    R417211   5.716  12.570   6.209 -0.2578 -0.2496 -0.0872
 1311ERGO    R517212   5.530  12.673   6.257 -0.0587  0.0682  0.0221
 1311ERGO    C117213   5.678  12.639   6.607  0.0675 -0.2187 -0.0572
 1311ERGO    C217214   5.944  12.472   6.926 -0.3587  0.0134 -0.4395
 1312ERGO   ROH17215  16.136   3.223   6.304  0.1250 -0.0268 -0.0414
 1312ERGO    R117216  16.255   3.342   6.532  0.1088 -0.0182 -0.0357
 1312ERGO    R217217  16.216   3.245   6.788  0.0250  0.0375 -0.0191
 1312ERGO    R317218  16.487   3.239   6.792  0.0211 -0.0409  0.0311
 1312ERGO    R417219  16.411   3.309   7.066  0.0088  0.2304 -0.0525
 1312ERGO    R517220  16.549   3.419   6.937  0.0581  0.0682 -0.1264
 1312ERGO    C117221  16.780   3.341   7.231 -0.0041  0.2692 -0.0248
 1312ERGO    C217222  16.986   3.168   7.466 -0.0523 -0.0889 -0.1636
 1313ERGO   ROH17223   7.301   1.318   5.897  0.1141 -0.0690 -0.0404
 1313ERGO    R117224   7.460   1.409   6.112  0.0770 -0.0321 -0.0280
 1313ERGO    R217225   7.364   1.581   6.306  0.0374 -0.0133 -0.0620
 1313ERGO    R317226   7.451   1.387   6.476  0.0242  0.0119 -0.0270
 1313ERGO    R417227   7.428   1.628   6.642  0.1058  0.0571 -0.0848
 1313ERGO    R517228   7.604   1.500   6.621  0.0733  0.0144 -0.0822
 1313ERGO    C117229   7.547   1.473   6.998  0.1332  0.1217 -0.0652
 1313ERGO    C217230   7.556   1.502   7.354  0.5404 -0.0435 -0.1193
 1314ERGO   ROH17231   5.211  10.614   5.600  0.0975 -0.2896  0.0740
 1314ERGO    R117232   5.260  10.679   5.871  0.0538 -0.1218  0.0425
 1314ERGO    R217233   5.249  10.938   5.967  0.0426 -0.0623 -0.1209
 1314ERGO    R317234   5.074  10.830   6.145  0.0115  0.0522 -0.0808
 1314ERGO    R417235   5.220  11.033   6.298  0.2726 -0.1333 -0.0786
 1314ERGO    R517236   5.195  10.823   6.351  0.0924 -0.1276 -0.1326
 1314ERGO    C117237   5.039  10.987   6.658  0.3774 -0.0673 -0.0160
 1314ERGO    C217238   4.710  11.057   6.894 -0.0689 -0.0499 -0.1947
 1315ERGO   ROH17239  14.820  14.635   6.299 -0.2330 -0.2414  0.0708
 1315ERGO    R117240  14.866  14.741   6.557 -0.0926 -0.3683  0.0997
 1315ERGO    R217241  14.808  15.003   6.623  0.3272 -0.2766  0.1458
 1315ERGO    R317242  14.665  14.887   6.823  0.1043 -0.0891  0.0990
 1315ERGO    R417243  14.831  15.087   6.958  0.3047 -0.2940  0.1514
 1315ERGO    R517244  14.818  14.875   7.007  0.0194 -0.2752  0.1573
 1315ERGO    C117245  14.710  15.027   7.340  0.0822 -0.1279  0.1108
 1315ERGO    C217246  14.771  15.089   7.668 -0.3296  0.4014 -0.1585
 1316ERGO   ROH17247   4.863  13.491   6.002 -0.1315 -0.0965  0.1083
 1316ERGO    R117248   4.800  13.356   6.243 -0.0250 -0.1250  0.1194
 1316ERGO    R217249   4.745  13.084   6.251 -0.0985 -0.1068  0.0970
 1316ERGO    R317250   4.943  13.084   6.438  0.0136 -0.2059 -0.0182
 1316ERGO    R417251   4.791  12.839   6.490 -0.1263 -0.1006  0.1101
 1316ERGO    R517252   4.839  12.995   6.634  0.0640 -0.1040  0.0592
 1316ERGO    C117253   5.003  12.696   6.805 -0.0372 -0.1901  0.0095
 1316ERGO    C217254   5.356  12.543   6.996  0.3107  0.0046  0.2686
 1317ERGO   ROH17255  16.948  14.208   5.877  0.0273 -0.1884  0.0969
 1317ERGO    R117256  16.796  14.307   6.094 -0.1320 -0.1065 -0.0495
 1317ERGO    R217257  16.656  14.142   6.265  0.0102 -0.0699  0.1038
 1317ERGO    R317258  16.798  14.272   6.456 -0.1753  0.3056 -0.0041
 1317ERGO    R417259  16.556  14.181   6.593  0.1360 -0.3227  0.1743
 1317ERGO    R517260  16.633  14.385   6.587 -0.3842 -0.1106  0.1098
 1317ERGO    C117261  16.632  14.326   6.964  0.0350 -0.1175  0.1141
 1317ERGO    C217262  16.453  14.214   7.361  0.0513  0.2845 -0.0737
 1318ERGO   ROH17263   9.979   7.002   5.968  0.1726  0.0179 -0.0992
 1318ERGO    R117264  10.014   7.118   6.224 -0.0660  0.1711 -0.1330
 1318ERGO    R217265  10.248   7.091   6.368 -0.2713  0.0857  0.1887
 1318ERGO    R317266  10.238   7.363   6.374 -0.0644  0.1009 -0.0182
 1318ERGO    R417267  10.446   7.293   6.567 -0.2490  0.0719  0.1808
 1318ERGO    R517268  10.273   7.419   6.604 -0.1804  0.2378 -0.0307
 1318ERGO    C117269  10.553   7.665   6.688 -0.0419  0.0781 -0.0179
 1318ERGO    C217270  10.904   7.747   6.889 -0.1836 -0.1088 -0.1052
 1319ERGO   ROH17271   3.377   8.475   5.606 -0.1985  0.0866  0.0505
 1319ERGO    R117272   3.389   8.415   5.882 -0.0707  0.0729  0.0425
 1319ERGO    R217273   3.400   8.610   6.077 -0.0683  0.0643  0.0518
 1319ERGO    R317274   3.184   8.478   6.176  0.0180 -0.0217  0.1253
 1319ERGO    R417275   3.290   8.630   6.404  0.0852 -0.0450  0.1109
 1319ERGO    R517276   3.250   8.415   6.398  0.1444 -0.0556  0.0793
 1319ERGO    C117277   3.023   8.517   6.688  0.2556 -0.1894  0.2142
 1319ERGO    C217278   2.790   8.686   6.906 -0.1393 -0.0429 -0.3984
 1320ERGO   ROH17279  17.749   9.695   5.697  0.2120 -0.1830  0.1839
 1320ERGO    R117280  17.571   9.530   5.842  0.0872  0.0274  0.2754
 1320ERGO    R217281  17.627   9.265   5.901 -0.2684 -0.0961  0.0996
 1320ERGO    R317282  17.579   9.346   6.156  0.1005 -0.1274  0.1842
 1320ERGO    R417283  17.493   9.067   6.150 -0.4826  0.0449  0.0988
 1320ERGO    R517284  17.375   9.236   6.216 -0.0835  0.2596  0.2862
 1320ERGO    C117285  17.370   9.026   6.534 -0.2608  0.0975  0.1778
 1320ERGO    C217286  17.303   8.851   6.781 -0.4944 -0.1043  0.4001
 1321ERGO   ROH17287  15.761   1.004   6.357 -0.2849 -0.1111  0.1182
 1321ERGO    R117288  15.760   1.030   6.638 -0.1208  0.0039  0.1092
 1321ERGO    R217289  15.972   0.949   6.795 -0.1725 -0.2606  0.0441
 1321ERGO    R317290  15.959   1.204   6.889  0.2626 -0.1975 -0.0461
 1321ERGO    R417291  16.123   1.060   7.086 -0.2625 -0.5133  0.1904
 1321ERGO    R517292  15.944   1.179   7.127 -0.0696 -0.1126 -0.0506
 1321ERGO    C117293  16.199   1.364   7.343  0.0940 -0.6012  0.1909
 1321ERGO    C217294  16.421   1.579   7.565 -0.2036 -0.1046 -0.2176
 1322ERGO   ROH17295   9.736   9.934   5.617  0.0004  0.0329 -0.0563
 1322ERGO    R117296   9.703   9.896   5.895 -0.1729  0.0396 -0.0747
 1322ERGO    R217297   9.876  10.003   6.082 -0.0638 -0.2742  0.0108
 1322ERGO    R317298   9.647  10.107   6.187  0.0599  0.0876 -0.0631
 1322ERGO    R417299   9.810  10.036   6.420 -0.1634 -0.2758 -0.0082
 1322ERGO    R517300   9.605   9.973   6.381 -0.2607  0.0896 -0.1256
 1322ERGO    C117301   9.558  10.152   6.715 -0.1053  0.0633 -0.0888
 1322ERGO    C217302   9.615  10.271   7.076  0.0348  0.2256 -0.0003
 1323ERGO   ROH17303  18.202  10.463   6.223  0.2214 -0.0909  0.3381
 1323ERGO    R117304  18.207  10.558   6.490  0.1916  0.1235  0.2645
 1323ERGO    R217305  18.307  10.806   6.558  0.0990  0.2194  0.0688
 1323ERGO    R317306  18.064  10.837   6.673  0.0905  0.2158  0.0450
 1323ERGO    R417307  18.234  11.035   6.807  0.1089  0.0937  0.1871
 1323ERGO    R517308  18.112  10.883   6.903  0.0575  0.0734  0.0767
 1323ERGO    C117309  17.963  11.197   7.060  0.1067  0.0174  0.2335
 1323ERGO    C217310  17.854  11.362   7.385  0.1192  0.0223  0.0282
 1324ERGO   ROH17311  18.273   9.370   5.891  0.0890 -0.1365  0.1112
 1324ERGO    R117312  18.050   9.266   6.031  0.1106 -0.2167  0.0875
 1324ERGO    R217313  18.075   9.090   6.242  0.1620 -0.0592  0.2170
 1324ERGO    R317314  17.924   9.275   6.372 -0.0345 -0.0852  0.0317
 1324ERGO    R417315  17.972   9.064   6.571 -0.0463  0.0349  0.1605
 1324ERGO    R517316  17.778   9.145   6.511 -0.0538 -0.1040 -0.0076
 1324ERGO    C117317  17.770   9.223   6.885 -0.3522  0.0654 -0.0463
 1324ERGO    C217318  18.014   9.168   7.263  0.0248  0.1612  0.1458
 1325ERGO   ROH17319   6.254  14.241   6.185  0.2163 -0.0874 -0.2204
 1325ERGO    R117320   6.349  14.171   6.443  0.0918 -0.2674 -0.2214
 1325ERGO    R217321   6.511  13.951   6.488  0.4536 -0.0440 -0.3731
 1325ERGO    R317322   6.673  14.135   6.604  0.0104  0.1058  0.0364
 1325ERGO    R417323   6.747  13.883   6.731  0.4639  0.0280 -0.3633
 1325ERGO    R517324   6.689  14.066   6.832  0.0234 -0.2572 -0.0707
 1325ERGO    C117325   7.036  14.017   6.982  0.0537  0.2105  0.0267
 1325ERGO    C217326   7.215  14.144   7.282  0.0213  0.0145  0.2103
 1326ERGO   ROH17327   7.047  13.077   6.233  0.2130 -0.1098 -0.1320
 1326ERGO    R117328   7.106  12.921   6.462  0.1804 -0.0760 -0.1000
 1326ERGO    R217329   6.932  12.900   6.677  0.1125 -0.1090 -0.1548
 1326ERGO    R317330   6.959  12.634   6.631  0.2037 -0.1041 -0.1292
 1326ERGO    R417331   6.997  12.663   6.919 -0.0054 -0.0918 -0.1062
 1326ERGO    R517332   7.132  12.564   6.780  0.1128 -0.0647 -0.0074
 1326ERGO    C117333   7.059  12.274   7.017  0.0116 -0.0773 -0.0539
 1326ERGO    C217334   6.863  12.218   7.240  0.3684 -0.1712 -0.1006
 1327ERGO   ROH17335  15.013  16.021   6.216 -0.2186  0.0385  0.1449
 1327ERGO    R117336  15.037  15.924   6.480 -0.1233  0.0442  0.1379
 1327ERGO    R217337  15.221  16.026   6.660 -0.1317  0.1190  0.1007
 1327ERGO    R317338  15.001  16.060   6.816 -0.1138  0.0211  0.1489
 1327ERGO    R417339  15.220  16.178   6.971 -0.1379  0.1724  0.0754
 1327ERGO    R517340  15.080  16.025   7.039 -0.0368  0.1030  0.1363
 1327ERGO    C117341  15.014  16.297   7.298 -0.1247  0.1117  0.1059
 1327ERGO    C217342  14.991  16.464   7.652  0.0971  0.0887 -0.3422
 1328ERGO   ROH17343  17.213  13.060   5.250  0.1633 -0.1081 -0.0800
 1328ERGO    R117344  17.422  12.928   5.388  0.0120 -0.1506  0.1097
 1328ERGO    R217345  17.617  13.064   5.529  0.0439 -0.1812  0.0770
 1328ERGO    R317346  17.537  12.902   5.732 -0.1441  0.0314  0.1807
 1328ERGO    R417347  17.780  13.032   5.832  0.3142 -0.5270 -0.0960
 1328ERGO    R517348  17.742  12.818   5.824 -0.2234 -0.4576 -0.0354
 1328ERGO    C117349  17.801  12.862   6.199  0.2954 -0.5286 -0.0995
 1328ERGO    C217350  17.580  12.812   6.554  0.0687 -0.1875  0.2018
 1329ERGO   ROH17351   8.761   6.164   7.072  0.2810  0.0636 -0.2454
 1329ERGO    R117352   8.504   6.267   7.131  0.3704  0.2569 -0.1816
 1329ERGO    R217353   8.357   6.414   6.949  0.2522 -0.0105 -0.3123
 1329ERGO    R317354   8.167   6.227   7.000  0.2314  0.1340  0.1998
 1329ERGO    R417355   8.017   6.461   6.907  0.2411 -0.0314 -0.2455
 1329ERGO    R517356   7.984   6.351   7.092  0.3063  0.3804  0.0221
 1329ERGO    C117357   7.641   6.313   6.929  0.2152  0.0920  0.2743
 1329ERGO    C217358   7.345   6.555   6.874 -0.2095 -0.2582  0.0683
 1330ERGO   ROH17359   3.662   9.280   5.789  0.0185 -0.1010  0.1483
 1330ERGO    R117360   3.704   9.497   5.966  0.0455  0.0640 -0.0522
 1330ERGO    R217361   3.579   9.743   5.933 -0.1009 -0.0090 -0.1587
 1330ERGO    R317362   3.499   9.699   6.189  0.1061  0.1385 -0.0688
 1330ERGO    R417363   3.426   9.976   6.136 -0.2110  0.0052 -0.2609
 1330ERGO    R517364   3.545   9.904   6.303 -0.0365  0.2789 -0.2759
 1330ERGO    C117365   3.262  10.071   6.495 -0.0808  0.1520 -0.2359
 1330ERGO    C217366   2.916  10.085   6.750 -0.2211  0.0093 -0.1974
 1331ERGO   ROH17367  11.020   2.128   5.934 -0.2702 -0.0087 -0.1948
 1331ERGO    R117368  10.952   2.026   6.189 -0.2648 -0.0457 -0.2078
 1331ERGO    R217369  10.997   2.167   6.422  0.0665 -0.2204 -0.1561
 1331ERGO    R317370  10.732   2.122   6.462  0.0208  0.1263 -0.0332
 1331ERGO    R417371  10.843   2.156   6.732  0.2272 -0.2140 -0.0753
 1331ERGO    R517372  10.724   1.988   6.660 -0.0533  0.0011 -0.1221
 1331ERGO    C117373  10.505   2.106   6.949  0.2781  0.1151  0.0872
 1331ERGO    C217374  10.624   2.358   7.251 -0.0060 -0.1794  0.0186
 1332ERGO   ROH17375  10.019   0.558   6.198 -0.1347 -0.0058 -0.2963
 1332ERGO    R117376   9.786   0.606   6.351 -0.1523 -0.0896 -0.2996
 1332ERGO    R217377   9.608   0.405   6.418  0.0464 -0.1933 -0.1044
 1332ERGO    R317378   9.652   0.494   6.671 -0.0025  0.0590 -0.1803
 1332ERGO    R417379   9.367   0.424   6.664  0.1209 -0.5877  0.0075
 1332ERGO    R517380   9.452   0.615   6.726 -0.2581 -0.3425 -0.1543
 1332ERGO    C117381   9.267   0.519   7.045  0.1181 -0.5804  0.0013
 1332ERGO    C217382   8.953   0.613   7.251  0.0961  0.0360 -0.2744
 1333ERGO   ROH17383  14.469   2.125   6.161 -0.1111  0.0105 -0.1369
 1333ERGO    R117384  14.357   2.321   6.331 -0.1085 -0.0494 -0.0661
 1333ERGO    R217385  14.368   2.303   6.607  0.0653 -0.0505 -0.0730
 1333ERGO    R317386  14.478   2.550   6.586 -0.0711  0.0069 -0.1337
 1333ERGO    R417387  14.356   2.546   6.852  0.1694 -0.0983 -0.0200
 1333ERGO    R517388  14.323   2.695   6.697 -0.0435 -0.0866  0.0321
 1333ERGO    C117389  14.453   2.919   6.976  0.1021 -0.0723 -0.0462
 1333ERGO    C217390  14.589   2.983   7.265 -0.1430  0.0448 -0.2238
 1334ERGO   ROH17391  10.980  16.472   6.551  0.3554 -0.2432  0.1098
 1334ERGO    R117392  11.032  16.531   6.823  0.0678  0.0026  0.1175
 1334ERGO    R217393  10.860  16.682   6.978 -0.2974 -0.1811 -0.0895
 1334ERGO    R317394  10.871  16.467   7.143 -0.0599 -0.0756  0.0379
 1334ERGO    R417395  10.733  16.673   7.299 -0.2088 -0.1101 -0.0520
 1334ERGO    R517396  10.909  16.560   7.360 -0.0907  0.0868 -0.0265
 1334ERGO    C117397  10.668  16.465   7.641  0.0655  0.0304  0.0893
 1334ERGO    C217398  10.458  16.594   7.963 -0.1760 -0.1783 -0.2286
 1335ERGO   ROH17399   0.759  14.743   5.651 -0.2641  0.1302 -0.1356
 1335ERGO    R117400   0.686  14.813   5.916 -0.0454 -0.2772  0.0396
 1335ERGO    R217401   0.857  14.778   6.131  0.3738 -0.0582 -0.2434
 1335ERGO    R317402   0.807  15.042   6.171 -0.2169 -0.1978  0.0506
 1335ERGO    R417403   0.974  14.963   6.398  0.4576  0.0294 -0.3396
 1335ERGO    R517404   0.781  15.062   6.408  0.2072 -0.4550  0.1297
 1335ERGO    C117405   0.995  15.318   6.592 -0.0481 -0.0505 -0.1197
 1335ERGO    C217406   1.207  15.426   6.787 -0.1752 -0.2456  0.4007
 1336ERGO   ROH17407  17.349   4.807   5.862  0.1239  0.0558  0.1433
 1336ERGO    R117408  17.442   4.915   6.106  0.0207  0.1214  0.1549
 1336ERGO    R217409  17.292   5.090   6.258 -0.0579  0.1388  0.0658
 1336ERGO    R317410  17.336   4.908   6.455 -0.1081  0.1845  0.1158
 1336ERGO    R417411  17.323   5.166   6.594  0.0824  0.2310  0.0317
 1336ERGO    R517412  17.484   5.020   6.606 -0.0035  0.1462  0.0360
 1336ERGO    C117413  17.384   5.040   6.974  0.1171  0.3275  0.0589
 1336ERGO    C217414  17.487   5.149   7.289  0.2682  0.2442 -0.3310
 1337ERGO   ROH17415  15.181  17.531   6.102 -0.3675 -0.1357 -0.1111
 1337ERGO    R117416  15.298  17.473   6.353 -0.1608 -0.0474 -0.1854
 1337ERGO    R217417  15.183  17.551   6.592  0.0503  0.0631 -0.1176
 1337ERGO    R317418  15.206  17.287   6.652  0.0686  0.0840 -0.0294
 1337ERGO    R417419  15.277  17.425   6.900 -0.0415  0.1686 -0.0453
 1337ERGO    R517420  15.396  17.275   6.797  0.0183  0.1551  0.0431
 1337ERGO    C117421  15.353  17.104   7.135 -0.0778  0.2495  0.0796
 1337ERGO    C217422  15.157  17.175   7.413  0.0265 -0.1098  0.2142
 1338ERGO   ROH17423   6.247  15.897   6.013 -0.4891 -0.5642 -0.0307
 1338ERGO    R117424   6.322  15.925   6.284 -0.2755 -0.3240 -0.1097
 1338ERGO    R217425   6.144  16.008   6.479 -0.1435 -0.2234 -0.0297
 1338ERGO    R317426   6.222  15.778   6.602  0.0264 -0.1027  0.0925
 1338ERGO    R417427   6.122  15.949   6.819 -0.5720 -0.2416 -0.0556
 1338ERGO    R517428   6.317  15.851   6.810 -0.3984  0.0561  0.2420
 1338ERGO    C117429   6.182  15.699   7.132 -0.6620 -0.1389  0.0441
 1338ERGO    C217430   6.279  15.510   7.572  0.2221  0.0854 -0.0401
 1339ERGO   ROH17431  13.178  10.843   6.644 -0.0998  0.2193  0.0240
 1339ERGO    R117432  13.145  10.578   6.739 -0.0998  0.1963 -0.0403
 1339ERGO    R217433  13.213  10.503   6.996 -0.0092  0.1122 -0.0888
 1339ERGO    R317434  12.956  10.413   7.003 -0.0197  0.1462 -0.0136
 1339ERGO    R417435  13.121  10.171   7.030 -0.0399  0.1104 -0.1843
 1339ERGO    R517436  12.963  10.205   6.883 -0.1005  0.1933 -0.1027
 1339ERGO    C117437  12.827   9.894   7.055 -0.0679  0.1414 -0.1693
 1339ERGO    C217438  12.707   9.594   7.326  0.1995 -0.0074  0.3659
 1340ERGO   ROH17439   5.202   1.608   5.465  0.3762  0.0356 -0.0025
 1340ERGO    R117440   5.125   1.527   5.725  0.2270  0.0090 -0.0532
 1340ERGO    R217441   5.270   1.593   5.951  0.1068 -0.0239  0.0406
 1340ERGO    R317442   5.031   1.689   6.037  0.0633 -0.0204 -0.0887
 1340ERGO    R417443   5.199   1.683   6.277 -0.1685 -0.3022  0.0625
 1340ERGO    R517444   5.002   1.593   6.254 -0.1768 -0.2101 -0.2045
 1340ERGO    C117445   4.933   1.827   6.547 -0.3696 -0.4611 -0.0461
 1340ERGO    C217446   4.840   2.093   6.832  0.0724  0.0472 -0.2071
 1341ERGO   ROH17447  18.854   4.818   5.766 -0.0452  0.0747  0.1592
 1341ERGO    R117448  18.950   4.921   6.012  0.1036 -0.0899  0.1713
 1341ERGO    R217449  18.782   5.015   6.210  0.2346  0.0924  0.1932
 1341ERGO    R317450  18.918   4.837   6.364  0.0181 -0.1096  0.1609
 1341ERGO    R417451  18.799   5.025   6.555  0.4048  0.1359  0.1847
 1341ERGO    R517452  19.009   4.970   6.541  0.3201 -0.2157  0.0963
 1341ERGO    C117453  18.937   4.865   6.901  0.3008 -0.0284  0.1494
 1341ERGO    C217454  18.981   5.062   7.209 -0.2665 -0.1521  0.1740
 1342ERGO   ROH17455   7.171  11.125   6.171  0.1132 -0.1150 -0.0308
 1342ERGO    R117456   7.278  10.912   6.325  0.1160 -0.0336  0.0860
 1342ERGO    R217457   7.236  10.889   6.597 -0.0587 -0.0009  0.0737
 1342ERGO    R317458   7.145  10.642   6.529  0.1039 -0.0521  0.0490
 1342ERGO    R417459   7.214  10.621   6.813  0.0910 -0.0396  0.0386
 1342ERGO    R517460   7.284  10.492   6.653  0.1814  0.0232  0.0403
 1342ERGO    C117461   7.116  10.232   6.876  0.3310 -0.1104 -0.0051
 1342ERGO    C217462   6.928  10.076   7.202  0.0515 -0.1779  0.1851
 1343ERGO   ROH17463  13.979   3.371   6.393 -0.3008 -0.2284  0.1231
 1343ERGO    R117464  13.978   3.273   6.658 -0.1685 -0.1169  0.1656
 1343ERGO    R217465  14.202   3.279   6.820 -0.1155  0.0449  0.0854
 1343ERGO    R317466  14.035   3.409   6.991 -0.1103  0.0474  0.0898
 1343ERGO    R417467  14.286   3.378   7.140 -0.0967  0.0751  0.0719
 1343ERGO    R517468  14.087   3.317   7.206 -0.0875  0.0670  0.0930
 1343ERGO    C117469  14.178   3.558   7.487 -0.0808  0.0950  0.0681
 1343ERGO    C217470  14.217   3.868   7.630  0.1567 -0.2868 -0.4782
 1344ERGO   ROH17471  12.975   8.709   5.609  0.2934  0.0744  0.1403
 1344ERGO    R117472  12.892   8.682   5.879  0.2407  0.0789  0.1239
 1344ERGO    R217473  12.966   8.861   6.076  0.1304  0.1273  0.1159
 1344ERGO    R317474  12.698   8.876   6.117  0.1151  0.0380  0.0576
 1344ERGO    R417475  12.816   8.914   6.383  0.0668  0.3836  0.0437
 1344ERGO    R517476  12.664   8.767   6.328  0.1441  0.2431  0.1746
 1344ERGO    C117477  12.477   8.959   6.600  0.0153  0.4490 -0.0531
 1344ERGO    C217478  12.429   8.946   6.839 -0.1673 -0.3087  0.0857
 1345W        W17479  17.477   5.199   2.011 -0.1937  0.1422  0.3432
 1346W        W17480   2.894  16.071  12.014  0.3213 -0.1179  0.0100
 1347W        W17481  15.181   1.868  13.235  0.1165 -0.1701 -0.0767
 1348W        W17482  15.680  15.301  10.116  0.1103 -0.1755  0.0829
 1349W        W17483   5.817  11.117   1.097 -0.2706 -0.1051 -0.3188
 1350W        W17484  13.741   8.927   3.761  0.0683  0.1412  0.3151
 1351W        W17485  14.443   8.004  12.425  0.1608 -0.8100 -0.0098
 1352W        W17486   2.644  10.687   4.568 -0.0473  0.1393  0.2627
 1353W        W17487   1.783   1.528   5.473  0.1911  0.1466  0.0436
 1354W        W17488  14.597  16.496  12.238 -0.1093 -0.0038 -0.0722
 1355W        W17489  16.666   8.663  14.663 -0.3523  0.1954 -0.1304
 1356W        W17490  10.434  18.734  10.271 -0.0565  0.0952  0.2718
 1357W        W17491   2.412  10.445   0.643  0.0544 -0.1819  0.0240
 1358W        W17492   3.671   7.749  12.860  0.1717  0.0830 -0.0435
 1359W        W17493   9.551  15.756   5.857  0.2922  0.1142 -0.1421
 1360W        W17494   3.088  11.233   1.175  0.0072  0.1202 -0.1023
 1361W        W17495   4.899   8.794   2.228  0.2036 -0.0858  0.2277
 1362W        W17496   0.396   4.825  10.120 -0.2398 -0.2106  0.1297
 1363W        W17497   5.004  19.214   1.747 -0.0233  0.0401 -0.2591
 1364W        W17498   6.345  18.594   1.757  0.2398 -0.1623 -0.3309
 1365W        W17499  14.351   0.326   3.000  0.2291 -0.1391 -0.0020
 1366W        W17500  13.257   2.247  13.063 -0.1115  0.0190  0.1137
 1367W        W17501   6.788  14.254  10.852 -0.1113  0.4176  0.1342
 1368W        W17502   6.261  14.319  11.024  0.0472  0.0864 -0.2423
 1369W        W17503   5.786   8.283   2.900  0.0724 -0.2098  0.0828
 1370W        W17504  15.947  13.062  12.346 -0.3654  0.1371  0.0924
 1371W        W17505  14.959   4.725  11.965 -0.1249  0.3116  0.1299
 1372W        W17506  18.290  17.650   3.810  0.4954  0.1960  0.0681
 1373W        W17507   7.714   4.229   1.582  0.1188  0.3746  0.2167
 1374W        W17508   3.470   3.844   3.144 -0.0487  0.1990  0.3771
 1375W        W17509   1.400   1.085  12.726 -0.1322  0.2140 -0.3974
 1376W        W17510  17.236  18.676   1.993  0.1930  0.3814 -0.0990
 1377W        W17511  13.630  16.803  11.151 -0.1995 -0.1235  0.0079
 1378W        W17512  14.506  18.088   2.372 -0.1119  0.1449  0.2250
 1379W        W17513  12.976  14.419  13.787 -0.0339  0.2643 -0.1132
 1380W        W17514   8.640   2.076   1.913 -0.2845 -0.0243 -0.0661
 1381W        W17515   8.759  16.991  11.869  0.3518  0.0459 -0.0514
 1382W        W17516  14.625   4.002  10.740  0.1064 -0.0848 -0.0939
 1383W        W17517  10.146   6.175  12.982 -0.4148 -0.0334  0.0088
 1384W        W17518  12.699   2.500  10.172 -0.1244 -0.4738 -0.0476
 1385W        W17519   5.284   3.473   2.170  0.2003  0.1898  0.1796
 1386W        W17520  16.899  19.216   3.862 -0.0624 -0.0596 -0.2461
 1387W        W17521   2.845  10.717   0.441 -0.3528 -0.0939  0.1698
 1388W        W17522   9.419  13.768   1.356 -0.0907 -0.0707  0.4924
 1389W        W17523   4.454   3.056  13.593 -0.2060 -0.0678 -0.2218
 1390W        W17524   4.741   5.009  11.200  0.1949  0.0318 -0.1506
 1391W        W17525  12.765   8.825  10.760  0.1941 -0.3742  0.0228
 1392W        W17526   7.203   2.293   2.712 -0.3214 -0.0626  0.2967
 1393W        W17527   7.886   5.192  12.738 -0.0708 -0.0767 -0.3612
 1394W        W17528  10.386   7.125   1.079 -0.0505 -0.1828  0.0705
 1395W        W17529   8.287  15.925  12.615 -0.2785  0.0051 -0.1969
 1396W        W17530   2.966   7.070   2.147  0.1190 -0.1372 -0.1058
 1397W        W17531  12.235   3.582  11.362 -0.0520  0.5285  0.3430
 1398W        W17532  19.263  14.932  10.658 -0.4155  0.4058 -0.0622
 1399W        W17533  14.948  16.747   4.808  0.2942  0.0069 -0.0968
 1400W        W17534  15.754  14.199   2.126 -0.5064  0.2012  0.0225
 1401W        W17535  12.684   2.490  11.545 -0.0874 -0.1519 -0.0932
 1402W        W17536  16.149  14.643   4.706 -0.0908  0.1461 -0.2502
 1403W        W17537  10.094  17.941  11.756  0.1693 -0.1980  0.1348
 1404W        W17538   7.309  17.293  11.679 -0.0335  0.2868 -0.1425
 1405W        W17539   5.828   8.533  11.671 -0.0647 -0.1349 -0.0619
 1406W        W17540  16.008   1.976   2.526  0.0124  0.0552  0.1391
 1407W        W17541  15.391  13.187   0.043  0.2611 -0.1944 -0.0288
 1408W        W17542   1.761   8.947   0.363 -0.0209 -0.1412  0.1711
 1409W        W17543   5.124   5.499   0.583 -0.2230  0.2022 -0.0662
 1410W        W17544   9.344   4.524  12.209 -0.1704 -0.2126 -0.2199
 1411W        W17545  15.747  15.135  12.225  0.3770  0.1448  0.1107
 1412W        W17546   3.740   7.909   4.175  0.0376 -0.1330  0.0018
 1413W        W17547   6.759  13.672   0.808 -0.3778 -0.0333  0.0004
 1414W        W17548   6.381  10.754   0.878 -0.2252  0.0133 -0.2929
 1415W        W17549  11.377  16.724  13.252  0.1889 -0.1601 -0.1237
 1416W        W17550   5.711  19.231   3.275  0.0570 -0.1031  0.3146
 1417W        W17551   3.796  15.658   0.586 -0.0869  0.0568 -0.1626
 1418W        W17552  11.842  16.086   9.855 -0.0379 -0.2049  0.1729
 1419W        W17553  14.455  14.594  12.684 -0.1507  0.1657 -0.1760
 1420W        W17554  17.983   0.903  11.662 -0.0062  0.3197 -0.0744
 1421W        W17555  17.515  13.205   3.609  0.0227  0.2199  0.0442
 1422W        W17556   3.175  11.868   4.073 -0.1193 -0.0287 -0.0666
 1423W        W17557  11.434   8.999   4.880  0.2826 -0.0536  0.3739
 1424W        W17558  17.470  13.177   2.094  0.3469  0.0552  0.0321
 1425W        W17559  13.176  14.815   3.425  0.2456  0.3271  0.2096
 1426W        W17560  19.143   2.070   9.330  0.1525  0.1378 -0.0532
 1427W        W17561   0.226  18.390   4.982 -0.3416  0.2098  0.0321
 1428W        W17562   1.913   5.140  10.158  0.1281 -0.2161  0.2520
 1429W        W17563   0.836   4.001  14.243  0.2845 -0.0628  0.2765
 1430W        W17564  14.776   7.573   3.442  0.2193  0.1531 -0.0519
 1431W        W17565   4.232   4.070   3.796  0.1117  0.0992 -0.1774
 1432W        W17566  13.767  12.131  12.849 -0.2603 -0.0878  0.1638
 1433W        W17567   8.369  16.713   2.638 -0.3229  0.0735 -0.0007
 1434W        W17568   7.347  16.941   2.205 -0.5184 -0.0854 -0.0404
 1435W        W17569   2.224   0.876  10.812 -0.1732  0.3600  0.1571
 1436W        W17570   6.823   6.568  13.467 -0.4045 -0.1255  0.0927
 1437W        W17571  15.751  17.648   1.717 -0.0670  0.0284 -0.0799
 1438W        W17572  15.154  15.644  11.667 -0.2539  0.0543 -0.0502
 1439W        W17573   5.861   0.776   4.419  0.0219 -0.3856 -0.2122
 1440W        W17574  10.139  18.827   5.299  0.0177  0.0132  0.0959
 1441W        W17575   6.493  16.616   0.518 -0.1980 -0.2889  0.0218
 1442W        W17576   1.346  16.311  12.297 -0.2111  0.2266 -0.0899
 1443W        W17577   8.528   2.333   2.378  0.1822  0.3902  0.0133
 1444W        W17578   4.949  12.974  11.565 -0.2331  0.1104 -0.1490
 1445W        W17579   0.423  14.695   2.954 -0.1895  0.0970 -0.2315
 1446W        W17580   8.099  16.343   2.467  0.0730  0.1193  0.2582
 1447W        W17581  16.903  17.042  11.754 -0.1978  0.1856 -0.1297
 1448W        W17582  12.652   5.108   2.527  0.3389  0.2616  0.0300
 1449W        W17583   6.252   3.889   0.621 -0.4150 -0.3753  0.0332
 1450W        W17584   8.701  10.178  12.097  0.4588  0.2029 -0.1648
 1451W        W17585   1.165   9.543   2.333 -0.2629 -0.0418 -0.0951
 1452W        W17586  16.188   9.707  13.018 -0.2099 -0.1795  0.0667
 1453W        W17587  17.676   7.235   1.050 -0.2452 -0.0895  0.2187
 1454W        W17588   5.281   5.761   4.062  0.1560 -0.1611 -0.0385
 1455W        W17589  13.358  17.737   0.848  0.0572  0.0576  0.1126
 1456W        W17590  18.805  11.500  12.658  0.0053  0.0768  0.2143
 1457W        W17591  17.381  10.825   0.787  0.3426  0.0193  0.0523
 1458W        W17592   4.761  16.662   4.181  0.0240 -0.0356 -0.1388
 1459W        W17593   9.975  13.868  14.670 -0.2629  0.0809  0.2051
 1460W        W17594  14.065  17.932   3.032 -0.2692  0.1961 -0.0068
 1461W        W17595   9.046  13.374   2.273  0.0413  0.1128 -0.1078
 1462W        W17596  14.723  14.597   0.773 -0.2935  0.1050  0.2795
 1463W        W17597  15.449   8.103   2.643 -0.0628  0.0881 -0.1209
 1464W        W17598  14.135  11.961  12.564 -0.1525  0.0009  0.2657
 1465W        W17599  13.379  14.757  13.850 -0.0993  0.1309 -0.1598
 1466W        W17600  17.026   8.207   4.498 -0.0241  0.1882  0.1633
 1467W        W17601   0.668   1.758   2.438  0.0184 -0.0918 -0.0957
 1468W        W17602  16.082  17.922  10.673  0.1667 -0.0373 -0.1174
 1469W        W17603   5.029   5.222   3.948  0.2780 -0.0110  0.1182
 1470W        W17604   2.775   7.064  10.634  0.1629 -0.0305 -0.1186
 1471W        W17605  18.295   5.052   3.538  0.2962  0.0887  0.0439
 1472W        W17606  15.935   3.634   4.677  0.0198  0.0430  0.1090
 1473W        W17607  16.658   6.729   0.504 -0.1170  0.2473  0.1718
 1474W        W17608   6.834  17.076   0.299 -0.1727 -0.0522  0.1004
 1475W        W17609   9.679  13.556  14.288 -0.1430 -0.0316 -0.2566
 1476W        W17610  17.929  19.178   0.438 -0.0162 -0.2569  0.2711
 1477W        W17611  11.172   0.323  14.074 -0.3223  0.1847  0.1792
 1478W        W17612   8.861   1.248   0.823 -0.0612 -0.3735  0.1099
 1479W        W17613  15.336   9.551   3.568 -0.0709  0.2363 -0.1027
 1480W        W17614   5.247   5.058  11.007  0.1543  0.3894  0.0872
 1481W        W17615  18.358   6.128   1.866 -0.0751  0.0929 -0.0351
 1482W        W17616   9.412  11.678  10.610  0.0779 -0.3124 -0.1196
 1483W        W17617   3.993   0.210   2.352  0.1320  0.3835 -0.4866
 1484W        W17618  18.859  19.223   9.673 -0.2816 -0.0141  0.1143
 1485W        W17619  12.796  14.799  14.563  0.1636  0.2160  0.0675
 1486W        W17620  11.571   9.545   3.612  0.0747  0.1490 -0.1809
 1487W        W17621   6.590   3.081   0.335  0.1945 -0.0991  0.0771
 1488W        W17622  17.172   7.542  14.607 -0.1454  0.0616 -0.1378
 1489W        W17623  17.922   6.285  10.492 -0.1064 -0.0520 -0.1037
 1490W        W17624  16.758  13.534  12.408 -0.1287  0.0087  0.2747
 1491W        W17625   9.183  11.567  14.753  0.1302  0.1192 -0.0389
 1492W        W17626  17.663   7.411   0.471 -0.1123  0.2826  0.1272
 1493W        W17627   3.929  18.205   2.302  0.1747  0.0582  0.3335
 1494W        W17628   6.550   9.433  12.010 -0.0432 -0.0137 -0.2032
 1495W        W17629   8.228  11.890   3.019 -0.3019  0.3295  0.2011
 1496W        W17630  10.609  17.192   0.998 -0.1246  0.1464 -0.0709
 1497W        W17631  17.437   5.024   2.896  0.1044  0.2085 -0.0962
 1498W        W17632   5.958  10.607   0.516  0.1528  0.1277  0.1182
 1499W        W17633   2.904   2.783  12.925  0.1528  0.1618  0.2232
 1500W        W17634   7.894  13.457   3.228  0.2942 -0.0827  0.0630
 1501W        W17635   1.176  15.469   0.045  0.4493 -0.3452 -0.1694
 1502W        W17636  13.191   0.070   0.624 -0.0017 -0.1647 -0.2509
 1503W        W17637   1.820  15.415   5.287 -0.0999 -0.1568 -0.2633
 1504W        W17638  16.494   2.833  12.780 -0.2552 -0.0824  0.1054
 1505W        W17639  16.028  15.813   0.899 -0.3860  0.1571 -0.2713
 1506W        W17640   6.187   4.998   1.479  0.0522 -0.6529 -0.1497
 1507W        W17641  12.003   0.789   3.099  0.0312 -0.0206 -0.1055
 1508W        W17642  14.603   1.705  14.936  0.3216  0.3115  0.2495
 1509W        W17643  10.340  13.545  14.281 -0.1058  0.0515 -0.0791
 1510W        W17644  12.771   7.485   1.375  0.0520  0.0509 -0.0140
 1511W        W17645   6.150  11.219   4.700  0.1260 -0.3114 -0.0060
 1512W        W17646   9.118   1.229  10.944 -0.0206  0.2235 -0.1033
 1513W        W17647  10.277   8.628  12.833 -0.2093  0.0097  0.3063
 1514W        W17648   5.935   3.343   1.749 -0.0291 -0.1206 -0.2840
 1515W        W17649  16.623  14.619   0.245 -0.0512 -0.2259  0.1939
 1516W        W17650  18.944  17.234  11.301  0.0020  0.2760  0.1321
 1517W        W17651  19.249  12.279   9.041 -0.2553  0.1647  0.1207
 1518W        W17652  11.127  15.802   2.056 -0.0323  0.0205  0.0862
 1519W        W17653  17.145  17.900   2.826 -0.1052 -0.0023  0.1384
 1520W        W17654  12.856  12.338  11.827  0.2639 -0.4212  0.1367
 1521W        W17655  12.509   2.746   2.480  0.1419  0.2262 -0.0912
 1522W        W17656   0.174   0.444   2.342  0.0047 -0.1966  0.0128
 1523W        W17657  10.146  15.206   2.581 -0.0851 -0.2258  0.1218
 1524W        W17658  12.186   2.800   3.004 -0.2368 -0.4610 -0.1429
 1525W        W17659   2.926  10.015   3.968 -0.0673 -0.1706  0.0705
 1526W        W17660   6.895   4.929  11.490  0.4063 -0.0631 -0.3865
 1527W        W17661   1.615  10.450   5.225 -0.0829  0.5119  0.1844
 1528W        W17662   3.850  15.511   3.513  0.0675  0.2425 -0.2303
 1529W        W17663  10.438  10.897  13.419 -0.1399  0.0984 -0.1934
 1530W        W17664  14.064   7.365  12.065 -0.1006 -0.1895 -0.1579
 1531W        W17665  16.621   0.938  14.393 -0.0590  0.0156  0.0857
 1532W        W17666  16.970   3.956  12.768  0.1347 -0.2525  0.1708
 1533W        W17667   5.943  16.433  11.503 -0.0569  0.3128 -0.0749
 1534W        W17668   6.019   4.829  12.944  0.0441 -0.2362  0.2075
 1535W        W17669  13.090  15.325  11.590 -0.0941 -0.2950 -0.0715
 1536W        W17670  15.917  10.124   0.445  0.1392  0.4049 -0.1339
 1537W        W17671   4.280   3.840   0.831 -0.0195 -0.1482 -0.1027
 1538W        W17672   4.048  10.238   2.517 -0.2339  0.0142 -0.1095
 1539W        W17673  11.602   8.410   0.351  0.2994  0.0523 -0.1515
 1540W        W17674  17.278  11.401  11.801  0.0865  0.2136 -0.3012
 1541W        W17675  19.120   0.641   5.633 -0.4267  0.2586  0.3683
 1542W        W17676  16.460  10.721   5.517 -0.1178 -0.0933 -0.1750
 1543W        W17677  11.766   8.094  12.593  0.1438  0.1312 -0.1075
 1544W        W17678  18.850  15.449   4.913  0.2252 -0.1109  0.0603
 1545W        W17679  16.416  16.325  11.045 -0.1584  0.0209  0.0127
 1546W        W17680   3.464  17.814  13.316  0.3154  0.2102 -0.3590
 1547W        W17681   3.107   7.856  11.482 -0.1025 -0.2954 -0.0712
 1548W        W17682   0.625   6.269  12.639 -0.4400 -0.0359  0.1857
 1549W        W17683  12.116  16.401   2.955  0.1788 -0.2540 -0.2509
 1550W        W17684   4.803   6.029   3.314 -0.0453  0.1688 -0.2937
 1551W        W17685  11.232   0.793   4.704  0.0197 -0.3523 -0.0799
 1552W        W17686   6.987  15.334   3.112  0.0038 -0.0454  0.2402
 1553W        W17687   2.820  14.363   2.758 -0.1104 -0.0766 -0.1907
 1554W        W17688   0.033  15.933   0.669  0.2509  0.2148 -0.0525
 1555W        W17689  13.997   8.935  12.169  0.0397  0.2233  0.0855
 1556W        W17690  15.643  12.566  12.076  0.1881 -0.0572 -0.3125
 1557W        W17691   6.746   1.593  10.298 -0.0123 -0.2696 -0.0224
 1558W        W17692  10.933   7.757   0.140 -0.2128  0.0537 -0.0139
 1559W        W17693  12.511   2.850  11.931  0.0333 -0.0469 -0.0373
 1560W        W17694   4.959   7.495  11.553  0.3226  0.3472 -0.0801
 1561W        W17695   2.336   8.550  11.845 -0.1356 -0.1202  0.1981
 1562W        W17696   1.119   8.154   9.947 -0.1310 -0.3105  0.0994
 1563W        W17697   1.867  16.944   1.443 -0.5311  0.0292 -0.1724
 1564W        W17698   0.462  18.775   2.631  0.5421  0.2028  0.0733
 1565W        W17699   0.309   2.417  12.648  0.0677 -0.0814  0.1453
 1566W        W17700  10.933  16.948   0.386 -0.0836 -0.1135  0.0545
 1567W        W17701  15.525  15.959  14.223 -0.0228  0.1716 -0.1420
 1568W        W17702   9.951   8.511  13.944 -0.0304 -0.3023 -0.1952
 1569W        W17703  10.449  12.573   5.097  0.1719  0.0749 -0.5859
 1570W        W17704  18.879  13.214  13.538  0.1031  0.0020 -0.1400
 1571W        W17705  18.695  16.628   2.942 -0.2547 -0.1022 -0.2437
 1572W        W17706  18.888   9.966  12.873 -0.0836  0.1484 -0.0305
 1573W        W17707  10.841  11.233  11.281 -0.2330  0.2505  0.2191
 1574W        W17708   4.988  15.922  14.387  0.0447 -0.0688  0.3615
 1575W        W17709   6.535   5.395  12.387 -0.0707  0.2143  0.1654
 1576W        W17710   7.940   0.763  14.122  0.0581  0.1434 -0.3096
 1577W        W17711  19.101   5.743   3.665 -0.1782 -0.0170 -0.1599
 1578W        W17712   9.629   2.861   2.931  0.0510 -0.2000  0.0043
 1579W        W17713  10.168  14.017   3.147  0.3156 -0.0304 -0.4496
 1580W        W17714  17.868   8.944  13.375  0.1461  0.0153 -0.0132
 1581W        W17715   3.330  15.305  11.804  0.1718  0.0488 -0.0881
 1582W        W17716   5.573  11.195  11.269 -0.2268  0.0850  0.1472
 1583W        W17717  14.448   0.033   1.877 -0.3755  0.3228  0.3430
 1584W        W17718  16.112   4.276   0.562  0.0061 -0.2774  0.2865
 1585W        W17719  11.910  12.527   3.600  0.2828 -0.0093 -0.0875
 1586W        W17720   2.989  11.421  10.330  0.0121  0.2568 -0.2819
 1587W        W17721  18.952   2.805   4.340 -0.0554  0.0138 -0.0838
 1588W        W17722  15.214   6.419   3.614  0.0624 -0.0882 -0.3613
 1589W        W17723  11.042  16.244   0.017  0.0542 -0.0024 -0.0954
 1590W        W17724   9.352   2.824  10.672  0.3561  0.2456 -0.1095
 1591W        W17725   3.402   2.014  11.237  0.3158  0.1892  0.1111
 1592W        W17726   6.279  13.294   4.936  0.2480 -0.1220  0.1422
 1593W        W17727  12.020  12.721  13.546  0.2554  0.5833 -0.1346
 1594W        W17728  14.393   9.470   2.865  0.0687  0.1057 -0.3876
 1595W        W17729   7.294  16.482   3.792 -0.1723  0.2712  0.1642
 1596W        W17730  12.500   0.507   5.658  0.1418 -0.0533 -0.0985
 1597W        W17731   7.823  13.317   2.630  0.3081  0.0380  0.1546
 1598W        W17732   9.285   0.900   4.440 -0.0697 -0.0590  0.1219
 1599W        W17733  11.347  12.311   4.640  0.3594 -0.0760 -0.0324
 1600W        W17734   1.627  13.379   2.760 -0.1666 -0.2904 -0.1523
 1601W        W17735  16.690   8.868  10.831 -0.0766 -0.0099  0.3233
 1602W        W17736  13.769   7.038   3.692  0.3637 -0.2474  0.0181
 1603W        W17737  11.654   0.611   2.230 -0.3592  0.2904  0.1460
 1604W        W17738   6.242   8.757  10.892 -0.0349 -0.0685  0.3735
 1605W        W17739   3.188  18.336   2.895 -0.1928 -0.1677 -0.0683
 1606W        W17740   4.454  16.107  12.327  0.0846  0.1557 -0.0783
 1607W        W17741  10.258   7.537  11.357 -0.0231 -0.2537  0.0470
 1608W        W17742  18.011   1.072  14.736 -0.1866  0.1083 -0.0691
 1609W        W17743   3.772   3.846  13.123 -0.0971 -0.0445 -0.0393
 1610W        W17744   3.964  16.836   3.913  0.0223 -0.2419 -0.1117
 1611W        W17745   2.790  16.227   5.015 -0.1127 -0.0462  0.2375
 1612W        W17746   5.337   6.703   2.935  0.0176  0.2299  0.2369
 1613W        W17747  18.534   5.997   0.597  0.0949 -0.3433  0.1482
 1614W        W17748   1.412   1.835   3.496 -0.0396  0.1138  0.1321
 1615W        W17749   7.779  17.480   4.837  0.1722 -0.1450  0.0667
 1616W        W17750   7.017  14.790  10.709  0.2074  0.2211  0.2052
 1617W        W17751   3.799  18.403  12.768 -0.0025  0.1259 -0.0450
 1618W        W17752   8.016   3.572  14.378  0.0939  0.0068  0.0999
 1619W        W17753   1.393   8.239  11.563 -0.2018  0.0309 -0.0506
 1620W        W17754  12.629   0.474  10.514 -0.0372  0.2035 -0.0851
 1621W        W17755  18.730   5.380   2.993 -0.0348  0.0169  0.1922
 1622W        W17756   9.467   3.067  11.654 -0.2144  0.0725 -0.2210
 1623W        W17757  14.241  11.481  12.805  0.1081 -0.0774 -0.0623
 1624W        W17758   7.476   2.452  11.701 -0.1203 -0.0206  0.0814
 1625W        W17759   3.209   0.123   1.471 -0.0901  0.0454 -0.1332
 1626W        W17760  12.523   1.812   4.102  0.1882 -0.2203 -0.1410
 1627W        W17761  11.974  14.483   0.997 -0.0083 -0.1689 -0.0435
 1628W        W17762   3.450   1.976   2.449  0.1337  0.1959 -0.0326
 1629W        W17763   0.736  14.080   0.711  0.0562 -0.3098 -0.0559
 1630W        W17764  13.020  11.227   3.024 -0.0255  0.0221 -0.0160
 1631W        W17765  15.317   1.976  12.011 -0.1801 -0.3547 -0.3524
 1632W        W17766   5.421  10.078   1.899 -0.0406  0.0283 -0.3836
 1633W        W17767   1.469  16.731   1.029 -0.0266  0.4517 -0.1202
 1634W        W17768  11.562   3.835   2.326 -0.0267 -0.0218 -0.1666
 1635W        W17769   6.958  11.443  13.975  0.2662 -0.1017  0.2524
 1636W        W17770  12.085  11.384   3.316 -0.1193  0.0925  0.4011
 1637W        W17771   4.620   9.447  11.609  0.2440 -0.2618  0.0513
 1638W        W17772  12.929  17.836  11.796  0.0239  0.2604  0.3053
 1639W        W17773   5.312   4.763   1.422 -0.2221  0.1480 -0.1997
 1640W        W17774   8.385   0.036   4.994  0.0915  0.0648  0.2390
 1641W        W17775   4.429   1.507   2.253 -0.0854 -0.0411 -0.0138
 1642W        W17776   0.581   0.130  13.938 -0.2247 -0.1448 -0.1066
 1643W        W17777   5.201  11.831  11.044  0.1352  0.1519  0.1124
 1644W        W17778  13.802   3.138   0.157  0.1599 -0.1416 -0.0446
 1645W        W17779  19.195  13.067   4.706  0.0077 -0.2830 -0.0539
 1646W        W17780  11.269   9.432   2.778  0.1706  0.1920  0.1212
 1647W        W17781   4.071   9.218   1.677 -0.0540 -0.1355  0.3254
 1648W        W17782   6.536   2.541  14.233  0.0531  0.0554 -0.1523
 1649W        W17783   3.170   2.602  13.275  0.1674  0.0969 -0.0381
 1650W        W17784  10.283   0.461   1.641  0.0633  0.0954 -0.0115
 1651W        W17785  13.214  11.850   1.767 -0.2266  0.0346 -0.0295
 1652W        W17786   3.548   2.725  10.602 -0.1220 -0.2239 -0.3683
 1653W        W17787  11.282   1.224   4.456  0.0594 -0.1333  0.1335
 1654W        W17788  15.076  17.376   5.610 -0.2609 -0.3108  0.1838
 1655W        W17789   2.407   4.749   3.840  0.0921 -0.0071 -0.0893
 1656W        W17790   3.659   0.147  14.372  0.0716  0.0862  0.1364
 1657W        W17791  16.190   3.064   3.483  0.1624 -0.3165 -0.3164
 1658W        W17792   5.013  10.409  13.496 -0.2260 -0.2055 -0.0045
 1659W        W17793   2.714  12.977  12.434 -0.3040 -0.0170  0.1674
 1660W        W17794  11.107   3.195   1.394  0.2522  0.1102 -0.2648
 1661W        W17795  16.768  12.113  13.769  0.2332 -0.0457 -0.2235
 1662W        W17796   7.234  14.084  11.958  0.1316 -0.2546  0.0193
 1663W        W17797  11.583   3.888   5.667 -0.0385  0.2287 -0.0001
 1664W        W17798   1.109  13.229   2.145  0.3652  0.1088 -0.0902
 1665W        W17799   8.353   6.905  10.561 -0.2958 -0.0173 -0.0966
 1666W        W17800   9.190  13.688   4.156 -0.1153  0.0014 -0.2256
 1667W        W17801  17.204  15.850   2.815 -0.0723  0.0197  0.0003
 1668W        W17802   3.663  11.132   9.925  0.3619 -0.0444  0.0252
 1669W        W17803  13.591   4.187  14.520 -0.2232  0.0407 -0.1558
 1670W        W17804   5.166  15.803  13.254  0.3728 -0.3326 -0.0382
 1671W        W17805  12.782   1.991  13.236 -0.2458  0.1051 -0.1590
 1672W        W17806  16.914  13.116   3.660 -0.1735 -0.1977  0.1796
 1673W        W17807   6.744   3.773  12.333  0.1338  0.1149 -0.1852
 1674W        W17808  14.458  16.391  13.106  0.0919 -0.2061 -0.2689
 1675W        W17809   5.012   8.622  11.274 -0.3764  0.1247 -0.2596
 1676W        W17810   3.170   9.208  12.018 -0.1940 -0.4727 -0.2207
 1677W        W17811  13.155  11.034   1.126  0.0313 -0.2237 -0.3208
 1678W        W17812   4.438   9.285  12.806 -0.2974  0.1315  0.0614
 1679W        W17813  18.592   6.438   3.826 -0.0654  0.1647  0.3005
 1680W        W17814   3.608   7.705  11.138 -0.0340  0.1957 -0.0659
 1681W        W17815  13.655   3.337   0.578  0.1116  0.2091 -0.1245
 1682W        W17816   4.639  18.168  12.599 -0.0896 -0.0742  0.1012
 1683W        W17817   6.636   2.543   2.034  0.0236 -0.2985 -0.1379
 1684W        W17818   5.509  18.762  13.515 -0.0410  0.0989 -0.0399
 1685W        W17819   5.609  13.469  14.200  0.0399 -0.2802  0.0798
 1686W        W17820   6.721   5.335   3.604 -0.0173 -0.2734  0.0470
 1687W        W17821  15.863   4.096   4.493 -0.1898  0.2246  0.1076
 1688W        W17822  18.497   7.602  12.216  0.0835  0.2772  0.3642
 1689W        W17823   8.208   7.595  12.807 -0.0396  0.2172 -0.3993
 1690W        W17824  13.399  16.728   4.074 -0.4824 -0.1893  0.2421
 1691W        W17825  13.636   3.649   3.570  0.0601 -0.1638 -0.1906
 1692W        W17826   0.178  11.937   9.811  0.1241 -0.3046 -0.0122
 1693W        W17827   9.744  13.968  12.431 -0.2793  0.0745 -0.3774
 1694W        W17828   5.021  12.168   1.649 -0.2263 -0.2851 -0.0411
 1695W        W17829  18.246   8.644   4.405  0.0943 -0.0363 -0.1357
 1696W        W17830   6.889   7.582  14.063 -0.1444  0.3082  0.4054
 1697W        W17831  17.143   4.153   4.590  0.1399 -0.2322 -0.0014
 1698W        W17832  16.719  18.385   1.770  0.2641 -0.1980  0.0464
 1699W        W17833   4.648   3.628  12.778 -0.0812  0.0107  0.2397
 1700W        W17834   4.580  15.818   0.872 -0.1342  0.1358  0.0499
 1701W        W17835  13.275  15.612  12.501  0.0980  0.1656  0.0460
 1702W        W17836   9.948   4.048  11.308 -0.2354 -0.3453  0.2241
 1703W        W17837   6.470  15.724  14.684  0.0013 -0.0629 -0.3085
 1704W        W17838   3.915   3.853   2.870  0.1003 -0.2157 -0.1224
 1705W        W17839   3.531  12.305  11.669  0.0209  0.0391 -0.0442
 1706W        W17840  18.983  13.568   0.056  0.2471 -0.0918  0.0947
 1707W        W17841   2.544  12.822   5.045 -0.2408  0.1692  0.1212
 1708W        W17842   7.062   5.269  14.832  0.0831  0.0306  0.0509
 1709W        W17843  16.354   0.732  11.233  0.0875 -0.2235  0.1574
 1710W        W17844  12.388   8.884  13.346 -0.3536  0.1307 -0.1811
 1711W        W17845  13.880  13.173  13.441 -0.1424 -0.0950  0.2162
 1712W        W17846  15.801   6.039   4.113  0.0793 -0.0759 -0.0997
 1713W        W17847  16.450  18.484   5.038 -0.0880 -0.0921 -0.1360
 1714W        W17848  11.295   3.704  13.960  0.4593  0.0916 -0.1364
 1715W        W17849  13.082  17.197  14.871 -0.0934  0.0243  0.0419
 1716W        W17850   6.761  15.068   3.459  0.0024  0.3706  0.4040
 1717W        W17851  16.369   2.610  14.878  0.2462 -0.0390 -0.3035
 1718W        W17852   6.926   4.900  13.000  0.4009  0.1038  0.0522
 1719W        W17853  14.403  10.511   2.331 -0.2090  0.0195  0.0458
 1720W        W17854  14.826  15.107   3.457 -0.0230 -0.3039 -0.2377
 1721W        W17855   6.137  17.499  12.414 -0.3128 -0.2614  0.1986
 1722W        W17856  15.910   9.164   4.834 -0.0895  0.0975  0.1245
 1723W        W17857  18.238   0.720  14.493 -0.0691  0.0895 -0.0204
 1724W        W17858  17.035  15.423   4.971 -0.2819  0.0321 -0.1447
 1725W        W17859   9.759   5.846   0.865 -0.0213 -0.0838  0.3238
 1726W        W17860   9.590   5.456   1.183  0.1334  0.3556 -0.2643
 1727W        W17861   2.606  15.619  13.592  0.0336  0.0660 -0.1603
 1728W        W17862   7.363  12.382  11.909 -0.1270  0.2158  0.1943
 1729W        W17863  10.120  11.925   4.609 -0.0529 -0.1868  0.0535
 1730W        W17864  10.201   5.538   2.926  0.1768  0.0382  0.0203
 1731W        W17865   7.369  10.008   3.029 -0.0091  0.0490  0.2945
 1732W        W17866   5.563   9.388   1.791  0.3644 -0.0197 -0.0636
 1733W        W17867  18.215  13.626  12.038  0.1170  0.0919  0.1299
 1734W        W17868  12.855   2.505   3.638  0.1674 -0.2063  0.2884
 1735W        W17869  11.789   3.533   4.336  0.0371 -0.1030  0.2510
 1736W        W17870   0.930   4.052   3.058  0.0089 -0.1222 -0.1022
 1737W        W17871  18.727  17.211   1.354  0.0026  0.0267 -0.5397
 1738W        W17872   2.120  15.507   1.461 -0.0972  0.4037 -0.0198
 1739W        W17873   4.477   5.953  12.431  0.2247 -0.1042 -0.0180
 1740W        W17874   1.266   8.741  11.513 -0.1519 -0.2831 -0.0093
 1741W        W17875   7.992   8.611  14.582  0.3120 -0.3802  0.1813
 1742W        W17876   3.563   7.021   4.274  0.2765 -0.1542  0.3758
 1743W        W17877  19.229  18.270   1.980  0.1367  0.0703  0.1979
 1744W        W17878  10.703   7.849  12.221 -0.4671  0.1095 -0.0572
 1745W        W17879  16.828   2.304   3.507 -0.0990  0.0332 -0.3154
 1746W        W17880   8.988  18.628  13.122  0.1536  0.1526 -0.1753
 1747W        W17881  17.598   9.051   0.967 -0.1357 -0.1864  0.0812
 1748W        W17882   1.588   3.560   0.432  0.2406 -0.0718 -0.1810
 1749W        W17883  10.623  16.082   4.441 -0.1194  0.1940  0.4771
 1750W        W17884  14.697   3.779   0.283 -0.2061  0.2762  0.4166
 1751W        W17885  13.692   4.498   0.702  0.2630  0.3596 -0.0446
 1752W        W17886   9.824  17.807   3.491  0.0209  0.1066  0.0101
 1753W        W17887  10.680   0.079  14.257  0.0986 -0.1432  0.1559
 1754W        W17888   0.837   9.375   1.225  0.0590 -0.0955 -0.0366
 1755W        W17889   7.212   7.923   2.894 -0.0752  0.0233 -0.4906
 1756W        W17890   1.283  14.121   4.258 -0.0173  0.0235 -0.2247
 1757W        W17891   3.663   4.073   3.580  0.3483 -0.1771 -0.0214
 1758W        W17892  13.722   8.430   3.734  0.1690 -0.1064  0.0761
 1759W        W17893  14.271   2.309  10.514 -0.3385 -0.1144 -0.2478
 1760W        W17894   4.706  13.710   4.668 -0.0634 -0.0643 -0.0224
 1761W        W17895  15.783   8.977   1.681  0.3799 -0.3839  0.0141
 1762W        W17896   3.332   5.781   2.949  0.0944  0.2534  0.4400
 1763W        W17897   4.759   0.771  12.909  0.2148 -0.2842  0.0388
 1764W        W17898  16.407   5.541   1.296  0.1822  0.0280  0.0683
 1765W        W17899  14.302   1.720   5.310  0.2221  0.1366 -0.0645
 1766W        W17900   8.168   5.598   0.530  0.1231 -0.1505 -0.4573
 1767W        W17901  12.820   5.787   0.256  0.3115 -0.0948  0.1400
 1768W        W17902  14.001   0.168   2.041 -0.0938 -0.0033 -0.0249
 1769W        W17903   9.365   4.796   3.566 -0.0541  0.1022  0.2391
 1770W        W17904  10.564   0.178   0.675  0.2393 -0.1455 -0.0208
 1771W        W17905   0.433  11.428  14.462 -0.2569  0.3109  0.0028
 1772W        W17906  18.597   0.784   5.599  0.1249 -0.1713  0.1186
 1773W        W17907   7.089  14.746   4.334  0.0415  0.0699 -0.2770
 1774W        W17908   6.334   3.430   2.222 -0.1101 -0.1604  0.0380
 1775W        W17909   4.673  16.127   1.708  0.1908 -0.1099  0.1759
 1776W        W17910   3.044   0.597   1.406  0.0190  0.1199  0.0423
 1777W        W17911   4.959  16.037   4.671  0.0443  0.1900 -0.0311
 1778W        W17912  13.220   2.802   2.859  0.1865 -0.2452 -0.1892
 1779W        W17913  18.847  14.023  14.936  0.3743 -0.2966 -0.0324
 1780W        W17914   2.378   1.660  14.451 -0.2431  0.4060 -0.4099
 1781W        W17915   9.385  16.329   0.378  0.2011  0.1841  0.0971
 1782W        W17916  13.151  16.598   3.615 -0.2801 -0.3264  0.6103
 1783W        W17917   2.708   3.311   4.186 -0.1579 -0.1384 -0.0297
 1784W        W17918   9.655   9.485   2.114 -0.1548 -0.1805  0.1380
 1785W        W17919  18.558   3.954  12.820 -0.0647 -0.2852  0.1862
 1786W        W17920   0.150   8.102   0.067  0.1652  0.1793  0.1222
 1787W        W17921   0.605   9.512  11.740  0.1228 -0.0357  0.2225
 1788W        W17922  11.170  17.822  11.385  0.0821 -0.1771 -0.1387
 1789W        W17923  11.923  14.494  12.303 -0.0988 -0.1877 -0.0564
 1790W        W17924   1.577  15.348   3.125  0.2531  0.1560  0.3893
 1791W        W17925  14.141   2.643   2.745 -0.0332 -0.0686 -0.1741
 1792W        W17926  18.947   8.106   2.857 -0.2640  0.0506  0.1519
 1793W        W17927   8.781   2.723   3.643 -0.0887 -0.0987  0.0587
 1794W        W17928   6.781  17.553   4.910  0.3026 -0.0194 -0.0672
 1795W        W17929  15.184   4.051   0.068  0.0414 -0.2736 -0.1806
 1796W        W17930   9.205  12.660  14.718 -0.0072  0.1352  0.0760
 1797W        W17931   9.051   9.076   4.529 -0.2038  0.0081  0.0473
 1798W        W17932  18.805   8.729  13.628 -0.0845  0.0838 -0.0336
 1799W        W17933  13.247  12.024  11.948  0.0978  0.3402 -0.1474
 1800W        W17934  17.211  12.106   0.327  0.0826  0.3215 -0.1928
 1801W        W17935   3.502  12.629   5.350  0.1308 -0.0601  0.1559
 1802W        W17936   9.152   9.679   3.740  0.1648 -0.1197  0.4109
 1803W        W17937  13.595   3.560  14.530 -0.1249  0.0909  0.1725
 1804W        W17938   0.223  16.354   4.853  0.1483  0.1260  0.0215
 1805W        W17939  16.301   6.149   3.152  0.0666 -0.0557  0.3252
 1806W        W17940   6.643   4.757   0.538 -0.0120  0.1700 -0.2478
 1807W        W17941   5.043  17.931   0.651 -0.0557  0.0324 -0.1484
 1808W        W17942   7.373  17.535   3.793  0.0419  0.2436 -0.0378
 1809W        W17943   1.180  17.601  11.860 -0.1574  0.0883  0.2481
 1810W        W17944  11.056   1.674  14.891 -0.4293 -0.0603 -0.1882
 1811W        W17945  18.803   1.421   0.420  0.1516 -0.0988 -0.0414
 1812W        W17946  13.661   7.956  10.362  0.0617 -0.0666 -0.1005
 1813W        W17947  13.133   0.243  12.813  0.2347  0.1175  0.0623
 1814W        W17948   9.953  10.730  10.971  0.2190 -0.1484 -0.0213
 1815W        W17949  18.901  11.620  10.320 -0.2309  0.3671  0.0225
 1816W        W17950  15.008   7.186  11.094  0.1371  0.1220 -0.1094
 1817W        W17951   4.243   4.296  11.037  0.0211 -0.2356 -0.0845
 1818W        W17952   0.848   9.564   4.579 -0.3157 -0.2835  0.0514
 1819W        W17953   7.417  11.394  10.110  0.0104  0.1398  0.1054
 1820W        W17954  10.318  15.697   2.627  0.1749  0.1263 -0.0300
 1821W        W17955   3.577  15.516  12.312 -0.0262 -0.1199 -0.1671
 1822W        W17956   4.364   9.666   4.693  0.2169 -0.0955 -0.1404
 1823W        W17957  12.814   7.763   4.029 -0.1072  0.1704  0.1175
 1824W        W17958  10.264  15.918  13.220 -0.0803 -0.0313 -0.1894
 1825W        W17959  11.143   8.699   2.313 -0.2254  0.4295 -0.2066
 1826W        W17960  12.775  12.374  10.818 -0.4786 -0.0103 -0.1652
 1827W        W17961  15.525   8.972   3.579  0.0436  0.3554 -0.1501
 1828W        W17962  14.919  13.308   0.824  0.2786 -0.0010  0.0370
 1829W        W17963  12.648  16.035  12.164 -0.0916  0.1086 -0.0965
 1830W        W17964  16.899  16.959   4.273  0.1747 -0.0709 -0.0030
 1831W        W17965  16.198   6.026  10.221  0.2184 -0.1655 -0.0357
 1832W        W17966   0.866   0.594  13.575  0.3130  0.1784  0.0423
 1833W        W17967   6.813   6.147  11.084 -0.1311  0.1399 -0.2275
 1834W        W17968  17.544  14.837  13.440 -0.2131  0.0358  0.2881
 1835W        W17969  14.487   3.857  12.171 -0.1378  0.1001  0.0363
 1836W        W17970   9.451   1.204  11.786 -0.1431  0.2017  0.0039
 1837W        W17971   0.154  18.715  10.280  0.2553  0.2585  0.0451
 1838W        W17972   4.761  18.784   3.287  0.2872 -0.1426 -0.1036
 1839W        W17973   2.462  18.100   0.679  0.1880  0.2825  0.0595
 1840W        W17974   6.175   1.994   4.187  0.0182  0.1544  0.2896
 1841W        W17975  11.718  10.878   3.886  0.1391  0.1753 -0.1105
 1842W        W17976  10.275   1.869   1.509  0.0656 -0.2230 -0.2810
 1843W        W17977   9.257   5.103   3.113 -0.1129  0.1166  0.0262
 1844W        W17978   9.258  12.095  12.694 -0.1059 -0.2117  0.1991
 1845W        W17979   7.048   0.775   2.119 -0.0198 -0.3730 -0.0470
 1846W        W17980  17.408  11.036   3.529 -0.0931  0.4719  0.0895
 1847W        W17981   3.612  11.476   2.930  0.1408 -0.0144 -0.1859
 1848W        W17982  13.285  14.513   2.605  0.0669  0.1154  0.2197
 1849W        W17983  11.452   9.754   1.750 -0.2861 -0.3871  0.2433
 1850W        W17984  16.308   2.215   3.457 -0.1835  0.0473  0.0036
 1851W        W17985  11.151   7.685  10.537  0.1363 -0.0004 -0.3290
 1852W        W17986   9.632   7.922   0.027  0.0071 -0.0129 -0.2359
 1853W        W17987   4.229  18.262  12.321 -0.3389  0.1399 -0.0250
 1854W        W17988  13.053   3.982  12.337  0.1008  0.0014  0.1192
 1855W        W17989   3.239   7.701   1.450 -0.1348  0.1102  0.0867
 1856W        W17990   5.609  10.743   1.393 -0.0197  0.1106  0.0936
 1857W        W17991  16.211  19.269  11.929 -0.4022 -0.1111 -0.0450
 1858W        W17992  11.308  17.403  11.141  0.1854  0.0454  0.2292
 1859W        W17993  14.803   1.886  11.939 -0.0992  0.3228  0.0210
 1860W        W17994   3.241  14.594  11.878 -0.0000 -0.0213  0.2573
 1861W        W17995   8.385   4.622   2.610  0.1080  0.0273  0.4719
 1862W        W17996   1.009   2.511   4.782 -0.1395 -0.3144  0.0464
 1863W        W17997   8.116  19.146  10.917 -0.2540  0.0557  0.0043
 1864W        W17998   8.067  18.809   4.682  0.0244 -0.0850 -0.0079
 1865W        W17999   6.830   7.321   9.703 -0.3860  0.1152  0.1033
 1866W        W18000  11.998  11.195  12.085 -0.0303 -0.2810  0.0235
 1867W        W18001  16.100   4.317  14.575 -0.1320 -0.0195  0.2278
 1868W        W18002   7.214  10.360  14.254  0.1484  0.1410 -0.4465
 1869W        W18003   6.364   4.081   4.972  0.4833 -0.0535  0.1562
 1870W        W18004  11.377   1.865   4.534  0.1017 -0.1732  0.0130
 1871W        W18005   5.938   9.963  14.735 -0.2105 -0.3726 -0.0351
 1872W        W18006  11.805   9.128  13.086  0.2574  0.0560  0.2550
 1873W        W18007  16.943   0.254   0.534 -0.1389  0.2568 -0.1402
 1874W        W18008  10.950  16.814   4.308 -0.0878 -0.4029  0.0105
 1875W        W18009  18.841  17.896  10.693 -0.2031  0.1529 -0.1623
 1876W        W18010  12.362  13.250  12.666 -0.4253  0.1549 -0.2348
 1877W        W18011  16.191   7.552   2.999 -0.3886 -0.2691 -0.1828
 1878W        W18012  14.260   3.355   1.978 -0.3164  0.0065 -0.4096
 1879W        W18013   3.548  12.413  10.821 -0.1327  0.4947 -0.2972
 1880W        W18014   4.605  12.614  11.353 -0.0999 -0.0987  0.2554
 1881W        W18015  19.017   9.878   4.918 -0.1967 -0.0026 -0.1233
 1882W        W18016  16.075   3.172   4.918  0.1263  0.0320  0.2046
 1883W        W18017  10.964  10.459  10.364  0.1493 -0.0064  0.2752
 1884W        W18018   3.923  19.122   2.938  0.1655 -0.1959  0.1148
 1885W        W18019  17.492   7.327  11.229 -0.2594  0.0435  0.2858
 1886W        W18020   2.894  13.242   1.899  0.1485 -0.2113  0.1998
 1887W        W18021  13.949  13.225   5.188 -0.0773  0.0749 -0.1183
 1888W        W18022   2.746  12.192   2.217  0.1906  0.3257  0.1419
 1889W        W18023   7.667  16.125   2.710 -0.3184  0.0841 -0.1161
 1890W        W18024  14.604   3.944   2.386 -0.1929 -0.2601  0.0628
 1891W        W18025  16.106   5.869   0.764 -0.3903  0.0654  0.0346
 1892W        W18026   6.367   0.331   0.707  0.1531  0.1046  0.1030
 1893W        W18027  17.084  11.469   0.128  0.0516  0.2340  0.0801
 1894W        W18028  16.992  16.490  13.331  0.0872  0.0064  0.2100
 1895W        W18029   8.120   2.608   4.721  0.2709 -0.1045  0.1634
 1896W        W18030  10.861  19.137  11.951 -0.0028 -0.2811 -0.1201
 1897W        W18031   3.631   0.513   0.619  0.1508 -0.0530  0.2364
 1898W        W18032   2.429   6.831   2.392 -0.0389  0.0240  0.1234
 1899W        W18033   5.816  12.712   0.051  0.3623  0.3199 -0.1334
 1900W        W18034   3.270  18.564  14.067  0.1131  0.1301 -0.2714
 1901W        W18035  13.951   0.482   2.489  0.0826  0.2479 -0.3038
 1902W        W18036   1.172   3.081   4.773  0.4291  0.1234  0.1295
 1903W        W18037   2.398   8.901  13.443 -0.2748  0.2367 -0.0766
 1904W        W18038  15.512   3.980   2.592  0.1452 -0.2248  0.0435
 1905W        W18039  13.699  17.089  13.635  0.3289  0.2348 -0.1255
 1906W        W18040   0.777  14.519  14.883 -0.0876  0.0164 -0.0968
 1907W        W18041  15.530  11.693  10.300  0.1472 -0.0075  0.0348
 1908W        W18042   9.074  12.353  11.884 -0.2250  0.2061  0.0575
 1909W        W18043  17.354  15.383   5.364  0.3372 -0.2845  0.0383
 1910W        W18044  16.722   3.619   2.070  0.4798  0.0476 -0.0758
 1911W        W18045   9.328  19.244   4.716 -0.0179  0.1576  0.0107
 1912W        W18046   3.017  16.036   2.367  0.1167 -0.0496 -0.1092
 1913W        W18047  11.099  10.527   4.322  0.1640  0.0347  0.1531
 1914W        W18048  18.923   8.197  14.285  0.1917 -0.0384 -0.4686
 1915W        W18049   5.584   5.660  12.381 -0.1182 -0.1063  0.0512
 1916W        W18050   0.036   6.429   3.063 -0.0642  0.2603  0.1371
 1917W        W18051   1.802   8.521   1.245 -0.1607  0.0180 -0.1501
 1918W        W18052  15.472  12.255  12.564 -0.1423 -0.0261 -0.3653
 1919W        W18053   1.357   3.459  12.533  0.0621  0.2512  0.2732
 1920W        W18054   4.024   0.867   0.246  0.1313  0.0265 -0.1017
 1921W        W18055   3.531  17.117   5.831 -0.0066 -0.0045  0.1263
 1922W        W18056   2.074   1.781  13.478 -0.1519 -0.1462 -0.3345
 1923W        W18057   7.145  15.355  10.862  0.1947 -0.3579  0.1143
 1924W        W18058   8.769  18.595   1.722 -0.3679 -0.1014  0.0725
 1925W        W18059   5.604  18.636   0.355 -0.0798 -0.1622  0.1224
 1926W        W18060  13.444   2.883  11.455 -0.0956  0.0513 -0.0740
 1927W        W18061  13.741  11.383   2.948  0.0846  0.1214 -0.0342
 1928W        W18062   6.940   4.232   3.557 -0.4543 -0.0887 -0.1921
 1929W        W18063  10.748   2.794  13.256 -0.0891  0.1045  0.1189
 1930W        W18064   2.128  16.201  14.214 -0.2827  0.2183 -0.1586
 1931W        W18065   4.991   7.546  12.831 -0.2575 -0.0296 -0.0252
 1932W        W18066  14.294  10.363  12.272  0.2445  0.0770  0.1175
 1933W        W18067   0.600  13.856   4.627  0.1314 -0.0009 -0.1114
 1934W        W18068   6.987   1.655  10.873  0.0173  0.1084 -0.1062
 1935W        W18069   4.686  15.450  14.125 -0.3174  0.2218  0.0968
 1936W        W18070   5.253   6.120  13.260 -0.2087 -0.0480  0.2798
 1937W        W18071  16.099   2.259   4.847  0.2808 -0.3871 -0.1623
 1938W        W18072  13.343  17.068   1.395  0.2679  0.2471 -0.1019
 1939W        W18073   0.551  16.858  13.972  0.2695 -0.2432  0.1174
 1940W        W18074   1.666  12.241  11.061 -0.0603  0.1734 -0.0737
 1941W        W18075   2.388  11.036   4.336 -0.1939  0.0264 -0.0871
 1942W        W18076  13.486   9.446   0.832 -0.0093 -0.0308  0.0576
 1943W        W18077  19.250  14.499  12.624 -0.3324  0.0304  0.0300
 1944W        W18078  12.442   9.921  14.481 -0.1245  0.1492 -0.0780
 1945W        W18079   0.486  15.186   2.302 -0.1971  0.2681  0.1412
 1946W        W18080   4.230  16.701   4.418  0.1288  0.3818  0.0936
 1947W        W18081   0.107  14.978  13.380  0.1982  0.2394 -0.1088
 1948W        W18082   6.708  13.656   9.834  0.1902  0.1649 -0.0658
 1949W        W18083  16.978  10.593   9.944 -0.0919 -0.0679 -0.2968
 1950W        W18084  14.775   2.179  14.753 -0.0050  0.2949 -0.1012
 1951W        W18085   9.958  15.940   6.346 -0.3233 -0.2536 -0.0922
 1952W        W18086  13.120   1.610  12.436 -0.1687  0.0392 -0.0745
 1953W        W18087   7.304  15.871  12.894  0.2628 -0.0934  0.1870
 1954W        W18088   2.336   2.915   3.325 -0.1185  0.1948 -0.0524
 1955W        W18089   4.706  12.159  11.604 -0.1265  0.2804 -0.0319
 1956W        W18090   5.797  14.659   2.130 -0.0616  0.0040  0.0246
 1957W        W18091  13.229   0.701  14.327  0.1114  0.1091 -0.0100
 1958W        W18092   7.608   2.775  10.796  0.1452  0.1999  0.0411
 1959W        W18093   1.868   2.544  12.064  0.2576 -0.0339 -0.1089
 1960W        W18094  18.265  17.929  13.931 -0.4293 -0.3101 -0.0439
 1961W        W18095  10.061  13.367  12.811 -0.0274  0.0519 -0.1844
 1962W        W18096  11.039  12.013  12.961  0.5323  0.0744  0.0595
 1963W        W18097  16.368  10.421   4.204 -0.0511 -0.1544 -0.1226
 1964W        W18098  13.754   7.795  10.820 -0.0900 -0.3871  0.1686
 1965W        W18099   6.665  11.463  14.439  0.3188  0.0398 -0.2970
 1966W        W18100  14.619   8.341  14.134  0.1732  0.0196  0.2354
 1967W        W18101  18.178   2.024  13.749 -0.1174 -0.0039 -0.0684
 1968W        W18102   8.621  14.160  14.210  0.0571 -0.2959  0.2575
 1969W        W18103  14.072   3.745   3.243  0.0789 -0.0155  0.0418
 1970W        W18104   5.114   2.931   4.686 -0.1599 -0.0529  0.0951
 1971W        W18105   7.729  15.284   1.305  0.0880  0.2452 -0.3882
 1972W        W18106  19.144   3.306  11.930 -0.0360 -0.0736 -0.0458
 1973W        W18107  17.296  14.525   2.411  0.1378 -0.0100  0.2524
 1974W        W18108  15.466   2.566  12.583 -0.0722 -0.2069  0.0712
 1975W        W18109  11.622  15.311   3.579  0.1049  0.1666  0.0853
 1976W        W18110  11.285   3.062  11.727 -0.0760 -0.2687 -0.0633
 1977W        W18111   0.760  11.770  13.185  0.0103 -0.0171  0.0858
 1978W        W18112   2.914  15.078   1.515 -0.1603 -0.0625  0.3540
 1979W        W18113   2.141   9.700  11.266  0.3476  0.3414 -0.0499
 1980W        W18114  19.299  18.351  11.813 -0.3277 -0.1552  0.0819
 1981W        W18115  19.039  12.680  13.622 -0.1756 -0.1998 -0.1275
 1982W        W18116  13.059   3.426  14.515 -0.1208 -0.0403  0.2395
 1983W        W18117   6.776   6.129   1.052  0.1564 -0.0701  0.1116
 1984W        W18118  15.584   3.847   3.870 -0.0571 -0.1351  0.1335
 1985W        W18119   1.416   8.858   1.243  0.0286 -0.2070  0.0453
 1986W        W18120   9.588  13.492  12.381  0.1194  0.0024  0.1452
 1987W        W18121   6.024  10.434   3.163  0.2004  0.1119 -0.2464
 1988W        W18122  12.167   1.978   4.519  0.0400 -0.0436 -0.0643
 1989W        W18123  11.973   7.501   4.445 -0.0916 -0.1295  0.1576
 1990W        W18124  18.906   5.347   3.493 -0.1346  0.1988 -0.3471
 1991W        W18125  17.194   4.855   1.123 -0.4917  0.1174 -0.0578
 1992W        W18126   3.279  13.674  11.436  0.1447 -0.0761 -0.1696
 1993W        W18127  12.649  18.117   3.589 -0.1651 -0.1335  0.0284
 1994W        W18128  18.979  14.929  11.846  0.0424  0.0628 -0.5308
 1995W        W18129   9.790  13.999  11.903 -0.2146  0.2211  0.0544
 1996W        W18130   3.544   5.449   0.707 -0.2385  0.3984 -0.2042
 1997W        W18131   5.872  12.819  12.571  0.0658 -0.0410 -0.3143
 1998W        W18132   3.095   6.930  12.050 -0.1574  0.1603 -0.2225
 1999W        W18133   0.601  10.608   3.187 -0.0481 -0.1273 -0.2464
 2000W        W18134  14.233  13.269  11.619  0.1086 -0.2071  0.0022
 2001W        W18135  14.518  16.115  14.593  0.1369 -0.1260 -0.3364
 2002W        W18136  18.116   0.799   2.442  0.1056  0.2181  0.1124
 2003W        W18137  16.303  17.020  11.683  0.5773  0.0249  0.0541
 2004W        W18138   0.832   0.606   3.574  0.3449 -0.2495  0.0743
 2005W        W18139  11.340  13.236  14.885 -0.0705 -0.1499 -0.2565
 2006W        W18140   6.584   5.472  10.372  0.2640  0.0546  0.0403
 2007W        W18141  17.770  16.142   1.992 -0.1178  0.2004  0.0389
 2008W        W18142  12.534   5.106  13.423  0.2820 -0.2727  0.2126
 2009W        W18143   3.321   2.554  12.572 -0.3820 -0.5212  0.2182
 2010W        W18144  12.988   7.656   1.945  0.0821  0.2603  0.0911
 2011W        W18145   3.406   8.082  12.639  0.1070 -0.0333 -0.0796
 2012W        W18146  14.663  11.936   2.056  0.1898  0.4192 -0.2516
 2013W        W18147  13.282  15.054  14.635  0.0240 -0.0774  0.2283
 2014W        W18148   0.858  10.953   1.109  0.1968 -0.0483  0.2950
 2015W        W18149  12.593  16.875  11.361  0.0581  0.1497 -0.1874
 2016W        W18150  12.718  18.630  11.904  0.2213  0.0709  0.4023
 2017W        W18151   1.461   2.252   2.851 -0.2326  0.0031 -0.2131
 2018W        W18152   9.751  16.486   3.713 -0.4170 -0.1389 -0.1958
 2019W        W18153  11.477  18.679  13.272 -0.1755 -0.2186  0.0134
 2020W        W18154  10.393   3.499  13.178 -0.2992 -0.0275  0.3043
 2021W        W18155  13.481   6.645  11.011 -0.0333 -0.2788  0.5962
 2022W        W18156  15.209   3.594  14.024  0.0415 -0.3796 -0.1173
 2023W        W18157  15.209   0.346  13.471  0.1227  0.3318 -0.0878
 2024W        W18158   5.559   3.981  10.046  0.1793  0.0451  0.0088
 2025W        W18159   7.234  14.992  11.752  0.1723  0.3121 -0.0142
 2026W        W18160   5.395  16.913  14.053 -0.0972 -0.0589 -0.2146
 2027W        W18161   6.779  11.148   1.086  0.0621 -0.0957 -0.0888
 2028W        W18162   1.285   7.627   2.868 -0.0870  0.0044 -0.0537
 2029W        W18163  16.331  13.503  11.258  0.0128  0.0299  0.0887
 2030W        W18164   0.372   2.514   0.555 -0.0934  0.0050 -0.0173
 2031W        W18165   7.903  10.577   2.541 -0.1612 -0.2483 -0.1264
 2032W        W18166  13.598   6.482  13.998  0.2284 -0.1814 -0.2853
 2033W        W18167  11.221  14.857  11.740 -0.0729 -0.1163  0.0360
 2034W        W18168  13.301  11.535  14.388  0.0861 -0.3382  0.2296
 2035W        W18169  17.837   7.630  11.575 -0.2067  0.0749  0.0018
 2036W        W18170   8.534   5.001   4.726 -0.1070 -0.0436  0.0738
 2037W        W18171  14.366   4.267  12.460  0.2059  0.1540  0.0540
 2038W        W18172   0.326   4.969  11.705  0.3616 -0.5203 -0.0597
 2039W        W18173  11.813  18.735   2.668  0.3152  0.3004 -0.1519
 2040W        W18174  14.886   5.619  14.674  0.4156  0.2781  0.2142
 2041W        W18175  10.546  17.080   5.062  0.1226 -0.3520 -0.0959
 2042W        W18176   8.355  13.205  13.493 -0.2001 -0.0810 -0.3920
 2043W        W18177   6.292   8.260  10.875  0.2124  0.0489  0.1166
 2044W        W18178  16.677   8.623  12.122  0.0703  0.2680 -0.4110
 2045W        W18179  14.776   9.514  13.941  0.3663 -0.2258 -0.0453
 2046W        W18180  10.450   1.783   4.694 -0.1227  0.1249 -0.2007
 2047W        W18181   8.495   6.916   1.607  0.0853  0.2129  0.2238
 2048W        W18182  17.555   4.866  11.830 -0.1140  0.0477 -0.3692
 2049W        W18183   5.107   2.192  12.599  0.2037 -0.1084 -0.1711
 2050W        W18184  19.245   3.796  11.040  0.0253  0.3464  0.0270
 2051W        W18185  14.062   3.253  10.637  0.1456 -0.0822 -0.0824
 2052W        W18186  12.730   4.651  14.560 -0.0539  0.0768  0.2867
 2053W        W18187  10.835  15.795  11.653 -0.1805 -0.1080  0.0710
 2054W        W18188  15.214  14.948  12.323  0.0282  0.0467  0.0093
 2055W        W18189  18.896  14.988  12.524  0.1144  0.0478  0.1219
 2056W        W18190   0.890   8.981   0.614 -0.0340 -0.0114  0.0662
 2057W        W18191   8.533  12.999  11.161  0.1986 -0.1982 -0.1799
 2058W        W18192   5.579  15.873   1.513  0.3610  0.4702 -0.0125
 2059W        W18193   8.175   5.958   8.758 -0.1566  0.0377 -0.0236
 2060W        W18194   6.680   9.921   3.668  0.0332  0.0823 -0.0366
 2061W        W18195  18.632  17.189   3.034  0.2351 -0.0409 -0.0517
 2062W        W18196  17.422   8.618   1.451  0.0039 -0.0515  0.0494
 2063W        W18197   9.355   4.131  13.753 -0.0599 -0.0026  0.0863
 2064W        W18198  17.418  18.790   4.730 -0.0486 -0.0598 -0.0073
 2065W        W18199  13.650  14.644   0.330 -0.2473 -0.0208  0.0076
 2066W        W18200   1.714   2.295   4.384  0.2005 -0.0598  0.0483
 2067W        W18201  18.183  18.450   5.053 -0.4716 -0.0041 -0.0911
 2068W        W18202   9.155   1.898   1.948  0.0619  0.2970 -0.0436
 2069W        W18203  14.041  14.196   5.378  0.5678  0.1234 -0.0455
 2070W        W18204  16.284  10.769   3.746 -0.0173 -0.1694 -0.2209
 2071W        W18205   7.970   3.712   2.471 -0.2287 -0.2787 -0.4018
 2072W        W18206   7.423   6.624   3.586  0.1683 -0.2947  0.0954
 2073W        W18207  16.361   7.702  12.963 -0.0462 -0.1902  0.1929
 2074W        W18208  18.925   0.952   1.232  0.1562  0.0718  0.2220
 2075W        W18209   8.784   3.101  12.304  0.1640  0.0731  0.0507
 2076W        W18210  15.307   9.925   4.488 -0.0141  0.1161 -0.1365
 2077W        W18211  13.872   0.342  12.406  0.0540  0.1784  0.0595
 2078W        W18212  14.815   3.166   0.299 -0.1887 -0.1273  0.0497
 2079W        W18213   7.759  14.526   1.739  0.0561 -0.3549  0.0829
 2080W        W18214   3.230  10.754  12.595 -0.3133 -0.1304  0.1867
 2081W        W18215   0.350   3.639  11.854 -0.1725  0.1975 -0.0999
 2082W        W18216   2.309   4.037  10.914  0.0782  0.0361  0.1284
 2083W        W18217  14.391   7.616  14.881 -0.0599 -0.1090  0.1118
 2084W        W18218  19.116   6.939  11.080  0.1477  0.2315 -0.0203
 2085W        W18219  17.168  18.411   4.489  0.0612 -0.2638  0.0807
 2086W        W18220   6.136  15.611  14.161  0.3604 -0.2539 -0.0104
 2087W        W18221   5.494   2.174   3.045 -0.0310  0.1330  0.2756
 2088W        W18222  11.541   1.174  10.226  0.1875  0.0286  0.1846
 2089W        W18223   6.491   4.119  12.571 -0.1396  0.0419 -0.2645
 2090W        W18224   8.063   4.091  11.274 -0.0792 -0.3841  0.1926
 2091W        W18225   9.983   6.349  10.386  0.0496  0.1495  0.3190
 2092W        W18226   0.435   5.716   4.858 -0.2231  0.2700 -0.0396
 2093W        W18227  14.116   5.051  10.645 -0.1725 -0.1199 -0.1156
 2094W        W18228   3.579   6.085   4.284 -0.1103 -0.2806 -0.0398
 2095W        W18229   1.438   0.981  11.896 -0.0597 -0.0484 -0.3540
 2096W        W18230   6.838  16.115   3.739  0.2299 -0.1527  0.2223
 2097W        W18231   3.913   2.310  10.816 -0.1747  0.0365 -0.0524
 2098W        W18232  18.661  18.461   4.819 -0.1146 -0.0589  0.0665
 2099W        W18233   9.713  16.834   4.143  0.1967 -0.0782 -0.3894
 2100W        W18234   6.572  13.489  14.083  0.1234 -0.0817  0.0873
 2101W        W18235  14.440  10.534   9.880 -0.1788 -0.0328 -0.0645
 2102W        W18236  14.018   8.125   2.291  0.1309  0.2422 -0.2938
 2103W        W18237   9.026  18.106   5.332  0.1778 -0.0036  0.1356
 2104W        W18238  11.044   5.644   1.088 -0.1132 -0.4197  0.4389
 2105W        W18239   4.804  17.822  11.694  0.1129  0.1772  0.2986
 2106W        W18240  14.240  16.506   5.721 -0.0270  0.1623  0.0975
 2107W        W18241  11.966   2.171  11.445  0.2481  0.4474 -0.0848
 2108W        W18242  10.592  17.308   3.134 -0.0447 -0.0231 -0.4472
 2109W        W18243   8.044  15.943   5.261  0.2005 -0.2208  0.0960
 2110W        W18244  10.395  16.190   0.364 -0.2999  0.1783 -0.3818
 2111W        W18245  19.004  15.265  14.733  0.1098  0.0418 -0.0646
 2112W        W18246   7.280   3.531  10.836  0.0754  0.0974 -0.0097
 2113W        W18247   5.837   0.060   2.209 -0.1392  0.1286 -0.4085
 2114W        W18248   4.063  13.513  13.716 -0.0785  0.3641  0.1826
 2115W        W18249   6.770   9.532   9.368 -0.0707 -0.1045  0.2134
 2116W        W18250  10.907  15.196  13.629 -0.2719 -0.0801 -0.1631
 2117W        W18251  12.787  15.927   0.523 -0.0530  0.2006  0.0020
 2118W        W18252   0.065   3.536   4.019 -0.1210  0.1410  0.4185
 2119W        W18253   0.349   3.751   2.989  0.2398 -0.0114  0.0453
 2120W        W18254  18.950   6.365  10.935  0.1044 -0.1313  0.0299
 2121W        W18255   6.401   4.603   3.401 -0.0432 -0.1223  0.0140
 2122W        W18256   0.153  17.962  13.499 -0.0471 -0.0080 -0.1151
 2123W        W18257   8.691   4.757   2.971  0.2694  0.0590 -0.1197
 2124W        W18258  14.093   8.365   0.785  0.3013 -0.0653  0.0120
 2125W        W18259   3.708  11.782  13.571  0.0105  0.2955  0.2168
 2126W        W18260   9.890   9.072   0.030 -0.2930 -0.0568 -0.1828
 2127W        W18261  15.732  16.571  13.657 -0.0152 -0.0317 -0.3658
 2128W        W18262  14.154  10.236  13.846 -0.0287  0.0293  0.0491
 2129W        W18263   7.187   3.316  13.395  0.1382 -0.1374 -0.1948
 2130W        W18264   4.501  19.352   1.702  0.2573  0.0599  0.2720
 2131W        W18265  17.017  19.345  10.415 -0.0160  0.0102 -0.1117
 2132W        W18266  12.961  10.097   0.193  0.0565 -0.1181  0.0776
 2133W        W18267  13.800   1.539   0.366  0.0250 -0.1152  0.4737
 2134W        W18268  11.255   4.431  14.147  0.0310 -0.1909  0.0531
 2135W        W18269   2.180   1.926   1.857  0.0873 -0.0287 -0.2935
 2136W        W18270   1.067  16.390   2.320 -0.1169  0.2393 -0.1007
 2137W        W18271  10.919  18.514   4.008 -0.0745 -0.0491  0.1945
 2138W        W18272   5.672  17.105   0.988  0.0780 -0.1597  0.3185
 2139W        W18273   2.707  10.489   1.448  0.1744  0.1339  0.3067
 2140W        W18274  14.890  10.194  12.333 -0.1603  0.1664 -0.1240
 2141W        W18275  18.474  14.152  12.349 -0.1302  0.0101 -0.1678
 2142W        W18276   7.615  13.535   1.957 -0.0881 -0.1144  0.3344
 2143W        W18277   7.083  10.691   3.912 -0.0986 -0.3344 -0.2323
 2144W        W18278   7.776  14.677   5.137 -0.0869  0.3695 -0.0175
 2145W        W18279  14.789   4.690   1.997  0.3761 -0.2934 -0.0325
 2146W        W18280   7.894   4.463   0.175 -0.3212 -0.1134  0.3556
 2147W        W18281   7.928   5.761   0.094  0.0315  0.1661 -0.2421
 2148W        W18282   1.380  11.821  14.512 -0.1755 -0.0168  0.1589
 2149W        W18283  12.322   5.484  13.231  0.0285 -0.0124 -0.1134
 2150W        W18284   8.120   6.701   0.061 -0.1088  0.0094  0.0978
 2151W        W18285   5.209  14.060  10.793 -0.1713 -0.0707  0.1148
 2152W        W18286   3.031  14.071   0.424 -0.0611  0.2052 -0.2129
 2153W        W18287   2.493  16.797   0.271 -0.0102  0.1403  0.2184
 2154W        W18288  13.927  11.059  13.805  0.3798 -0.0368  0.0280
 2155W        W18289   0.341   9.177   2.047  0.0884  0.1385 -0.2790
 2156W        W18290  18.066   6.551   2.965 -0.1666  0.1566  0.5215
 2157W        W18291  11.745  16.360   4.348  0.1169 -0.1206 -0.4745
 2158W        W18292   4.176   2.895  10.150 -0.0573  0.0101 -0.1216
 2159W        W18293   4.369  19.183  14.167 -0.1534  0.2255  0.1930
 2160W        W18294  16.953  11.937  10.253 -0.0101 -0.0172  0.2403
 2161W        W18295   3.286  19.086   2.141 -0.0498  0.1929  0.0891
 2162W        W18296   6.242   2.379  12.712 -0.0541  0.0632 -0.3208
 2163W        W18297  18.737  10.289   4.031  0.0518 -0.0646 -0.2168
 2164W        W18298   0.101   0.816  10.662  0.0215 -0.2300 -0.1082
 2165W        W18299   3.776  14.758   0.979  0.1527  0.0363 -0.3960
 2166W        W18300   1.636   3.970  14.856  0.2909  0.2293  0.3734
 2167W        W18301  17.248  16.436  14.543 -0.0709  0.0392 -0.1518
 2168W        W18302   3.429   9.272   9.946 -0.0282 -0.1007 -0.1267
 2169W        W18303  17.677   1.875  13.123 -0.2212 -0.0906  0.0498
 2170W        W18304  14.191  17.820  10.599  0.0559 -0.0694 -0.1541
 2171W        W18305  13.911  17.108  14.487 -0.0201  0.1150 -0.2771
 2172W        W18306   8.633   8.471   0.366 -0.2867 -0.1809  0.0054
 2173W        W18307  12.823  18.804   1.836 -0.1227  0.0375  0.0180
 2174W        W18308   7.760  11.000   4.861 -0.0787  0.1247 -0.0233
 2175W        W18309   8.434   1.881  11.125 -0.1542 -0.3011 -0.2514
 2176W        W18310   7.135  10.613  11.975  0.3080  0.0226 -0.1258
 2177W        W18311   2.176  10.241  11.046  0.1618  0.2365  0.1917
 2178W        W18312   4.590   9.707  10.277  0.2582  0.0103 -0.2931
 2179W        W18313  17.760   0.457   2.570 -0.0872 -0.2782 -0.3110
 2180W        W18314   2.599  10.303  14.388  0.0007 -0.3142  0.2777
 2181W        W18315  11.853  11.078   2.919  0.0712  0.1787  0.1681
 2182W        W18316  15.239   0.791   3.188  0.0688  0.1461 -0.1410
 2183W        W18317  10.897  12.936   9.878  0.1440 -0.0985 -0.0609
 2184W        W18318   1.522  10.797  10.756 -0.0507 -0.0771 -0.1085
 2185W        W18319   6.978  10.482  10.472 -0.1953 -0.1531  0.1740
 2186W        W18320  19.086  12.401  11.012 -0.0186  0.2762 -0.0589
 2187W        W18321   8.471   6.126  11.834 -0.3493  0.3231  0.1760
 2188W        W18322  17.321  12.993   4.043  0.0276  0.2880  0.3809
 2189W        W18323  15.554   9.353   2.230  0.3131 -0.4031  0.0003
 2190W        W18324  17.433   1.776   0.264  0.1040 -0.1774 -0.0127
 2191W        W18325   4.384   3.798   1.735  0.3880 -0.1010 -0.0570
 2192W        W18326  18.445  11.939   1.859  0.3217 -0.2350 -0.2704
 2193W        W18327   7.038  12.010  14.018 -0.0916  0.1132  0.0858
 2194W        W18328   0.964   6.282   3.235 -0.0783 -0.1798  0.2000
 2195W        W18329   9.791   6.218   3.591  0.0521  0.1162  0.0882
 2196W        W18330   5.839   2.889   1.636  0.1078  0.1113  0.0681
 2197W        W18331   6.276   6.402  13.406  0.0547  0.2334 -0.0237
 2198W        W18332   6.835  13.329   2.055 -0.1047 -0.1724  0.1231
 2199W        W18333  17.169  10.232   1.445  0.0779  0.0574 -0.1003
 2200W        W18334  17.461   8.352  14.800 -0.2198 -0.0559  0.1509
 2201W        W18335   1.488   7.190   0.908 -0.0707  0.0430  0.2757
 2202W        W18336  18.554   2.499   4.871 -0.0586  0.2996 -0.1490
 2203W        W18337  10.799   6.976  14.770 -0.1267  0.0614  0.0921
 2204W        W18338  12.873   4.193   3.662  0.0885  0.2883 -0.1218
 2205W        W18339  16.331   4.857  10.649  0.0357  0.1763 -0.2556
 2206W        W18340   4.136  12.326  11.692  0.1188  0.0112 -0.5060
 2207W        W18341  13.503  12.930   3.276 -0.0389  0.0648 -0.0135
 2208W        W18342   5.383   7.910   2.194 -0.1495  0.1366 -0.0544
 2209W        W18343  17.503   4.362   0.806 -0.0289 -0.3754 -0.2873
 2210W        W18344  15.196  14.941  13.318  0.1232 -0.1565  0.0075
 2211W        W18345  12.727   2.591   5.350 -0.2005  0.4639 -0.1065
 2212W        W18346   9.053   9.497   4.236  0.3844  0.2514  0.0314
 2213W        W18347   0.680   6.145   3.857  0.0898  0.0192  0.1648
 2214W        W18348  15.749  17.299   2.144  0.1075 -0.1514  0.1522
 2215W        W18349   2.119   7.653   2.350 -0.3318 -0.0241  0.1572
 2216W        W18350  10.112   1.103   0.247 -0.1886 -0.1650 -0.0322
 2217W        W18351  15.155  11.059  14.620 -0.1543 -0.4590  0.2811
 2218W        W18352   2.386   1.434   1.936  0.1366 -0.1596  0.3084
 2219W        W18353   5.449  12.779  11.492  0.1135  0.3594 -0.0274
 2220W        W18354   8.360  15.075  14.138  0.3022  0.1194 -0.1770
 2221W        W18355  15.553   7.035   4.380  0.0790 -0.1644 -0.0537
 2222W        W18356   0.221   4.317   0.303  0.3832  0.1858  0.1419
 2223W        W18357  18.631  14.244   5.342 -0.2054  0.0620 -0.1585
 2224W        W18358   6.111  15.171  14.476  0.2950 -0.0428 -0.2337
 2225W        W18359   7.728  16.777   5.153 -0.1331 -0.4630 -0.1836
 2226W        W18360   5.227   9.916   1.118  0.4130  0.3581 -0.0735
 2227W        W18361   0.481  13.665   9.459 -0.0705 -0.0763  0.0854
 2228W        W18362   9.185  12.026   0.482 -0.1705 -0.0180  0.4083
 2229W        W18363  17.796  18.555   3.046 -0.0297 -0.0288 -0.0545
 2230W        W18364  13.935  10.918   3.089 -0.1758 -0.1216 -0.3071
 2231W        W18365  12.501   0.029   1.260 -0.1501  0.2337  0.1032
 2232W        W18366  15.698  19.112   5.324 -0.2676  0.0810  0.0164
 2233W        W18367  15.522  12.360   4.278  0.0508  0.1676 -0.0921
 2234W        W18368   6.173   2.470  14.610  0.0140 -0.0368  0.0054
 2235W        W18369   7.440   3.187   4.728 -0.2759 -0.0754 -0.1625
 2236W        W18370   6.507  14.687  11.975 -0.1234  0.4077 -0.0823
 2237W        W18371  16.684  13.349   0.690  0.0087 -0.2728 -0.1028
 2238W        W18372  16.780  10.512  14.886 -0.0158  0.1001  0.2471
 2239W        W18373   4.909  17.778  13.906 -0.2436  0.0058  0.0914
 2240W        W18374  12.815  12.757   3.846  0.0331  0.2854 -0.0339
 2241W        W18375  12.704   0.422   5.200  0.4080 -0.0667  0.2254
 2242W        W18376   2.919   7.984   4.492 -0.1118 -0.0060  0.0011
 2243W        W18377   9.766   8.857   0.571 -0.0670  0.1495 -0.2400
 2244W        W18378  11.062  12.611   5.073  0.2461 -0.1168  0.1032
 2245W        W18379  18.720   4.391  12.604  0.1753  0.1094 -0.2990
 2246W        W18380  15.729  11.726  11.534  0.1083 -0.1540 -0.0209
 2247W        W18381   2.448   3.378   1.843  0.0991  0.1499 -0.0557
 2248W        W18382  12.999   5.241  14.631  0.1799  0.3038  0.1098
 2249W        W18383   8.000  16.645   3.398 -0.2162 -0.2033  0.0527
 2250W        W18384  19.121  11.203   4.120  0.2140  0.0732  0.0327
 2251W        W18385   3.585   6.366   1.620 -0.2457 -0.1208 -0.0748
 2252W        W18386  11.067  17.661  11.857  0.0239 -0.0749  0.3831
 2253W        W18387  11.368   5.986  11.306  0.0186  0.4496 -0.1629
 2254W        W18388  14.143  17.168   2.493 -0.2492 -0.1265  0.0394
 2255W        W18389  15.067  18.885   2.715  0.2512  0.3335 -0.1254
 2256W        W18390   4.727   4.820   4.191  0.0710 -0.2897 -0.2398
 2257W        W18391   0.717  18.397   1.073 -0.0893 -0.2159  0.0960
 2258W        W18392   5.097  18.344  14.749  0.1347  0.2784  0.0713
 2259W        W18393  10.393  10.455   2.450 -0.1020 -0.0849 -0.0767
 2260W        W18394  11.578  10.368  12.762  0.2316 -0.3542 -0.2107
 2261W        W18395  15.529   5.062  14.715 -0.2728  0.1337 -0.0050
 2262W        W18396   5.571   3.131  10.551 -0.2586 -0.3991 -0.0537
 2263W        W18397   2.608   1.204   3.298 -0.0988  0.1093  0.1706
 2264W        W18398   6.098   3.755  11.200  0.0932 -0.3070 -0.2909
 2265W        W18399   3.398   9.818  10.618 -0.0800 -0.2506 -0.0088
 2266W        W18400   6.963  13.780  11.132  0.1439 -0.2206  0.0910
 2267W        W18401  10.913  11.408   0.167 -0.0196 -0.1461  0.1822
 2268W        W18402  17.919   2.905   3.058 -0.0011  0.1278 -0.0570
 2269W        W18403  12.731   7.948  12.783  0.1758 -0.2671  0.0058
 2270W        W18404  18.413  19.108  12.313  0.0498 -0.0575 -0.3167
 2271W        W18405  10.460   4.852  14.443  0.0679  0.0828 -0.2408
 2272W        W18406   2.133  17.449   3.987  0.0326 -0.1255  0.2046
 2273W        W18407  13.447  13.853   5.032 -0.0778  0.0724 -0.1278
 2274W        W18408   3.563   1.478  13.928 -0.1666 -0.2273  0.0760
 2275W        W18409   2.182   1.194  14.289  0.2260  0.1642  0.1568
 2276W        W18410  17.533  12.734   3.374  0.1944  0.1634 -0.1774
 2277W        W18411  10.938   0.080   3.246 -0.1216  0.0977  0.2112
 2278W        W18412   6.284   9.149  14.737  0.0968 -0.4265  0.1311
 2279W        W18413   0.825   3.612  10.678 -0.3617  0.4373 -0.1537
 2280W        W18414  17.490  11.529   3.497 -0.0839 -0.3443 -0.3995
 2281W        W18415  19.095  10.512  12.450  0.2324 -0.2574 -0.0316
 2282W        W18416   6.908  12.703  12.212 -0.1143 -0.0550 -0.5199
 2283W        W18417  13.937  10.417   0.747 -0.2912 -0.2351 -0.0326
 2284W        W18418   7.171  10.583   9.482  0.1574 -0.0198 -0.0261
 2285W        W18419  17.177   1.613  10.005  0.2629 -0.0231  0.1418
 2286W        W18420   1.318  13.292  12.107  0.0325  0.1214 -0.1003
 2287W        W18421   4.454   0.277   3.625  0.6224  0.1331  0.2177
 2288W        W18422   6.800  15.082   4.037 -0.0926  0.0611  0.1941
 2289W        W18423  13.876  17.908   3.888 -0.2383  0.0355 -0.2836
 2290W        W18424  15.806   6.163   3.162 -0.0762  0.1913 -0.2693
 2291W        W18425  16.091   2.938  13.137 -0.1368  0.3085  0.0452
 2292W        W18426  12.992   6.235   3.593 -0.0039  0.0634  0.1369
 2293W        W18427  17.825   3.343   1.677 -0.0711 -0.3148  0.1295
 2294W        W18428  18.659  16.608  12.715 -0.0978  0.4144 -0.0966
 2295W        W18429  13.686   9.161   1.238 -0.2665  0.1849 -0.0602
 2296W        W18430  15.555   5.359   4.794 -0.0730 -0.2201 -0.4330
 2297W        W18431  14.807   7.236   2.519 -0.3519 -0.1531  0.3164
 2298W        W18432  18.337  14.539   3.189 -0.0607 -0.0504  0.0505
 2299W        W18433   0.594  11.587   4.183 -0.1680 -0.2231 -0.1801
 2300W        W18434  13.925   1.673  13.102 -0.1229 -0.3644 -0.1246
 2301W        W18435   7.319   0.748  11.018  0.2777 -0.0115 -0.5031
 2302W        W18436   1.225  10.594  12.491 -0.1073 -0.2244  0.1238
 2303W        W18437   6.685  19.003   5.009 -0.1535  0.2954  0.0325
 2304W        W18438   9.663  18.105   5.209  0.0043 -0.6086 -0.0445
 2305W        W18439  13.280   9.471   1.474  0.0377  0.1470 -0.0874
 2306W        W18440  19.250  17.445  10.572  0.1566 -0.0841  0.1604
 2307W        W18441  16.542  15.324   1.365  0.0316  0.0341 -0.0025
 2308W        W18442  18.594  18.843   2.522  0.2543  0.2331  0.2516
 2309W        W18443  10.085   3.226   3.897  0.2792 -0.2888 -0.1379
 2310W        W18444  11.836  18.411  12.034  0.0763  0.4260  0.2975
 2311W        W18445  17.916  18.306   0.098 -0.0943  0.2773 -0.0675
 2312W        W18446   6.907  11.317   2.020 -0.0021 -0.0080  0.1548
 2313W        W18447   9.219  15.839  12.919 -0.1300 -0.0398  0.0469
 2314W        W18448  11.358  16.665   4.001  0.1609  0.2126 -0.0014
 2315W        W18449  18.379   4.658   0.977  0.0094 -0.2203  0.0002
 2316W        W18450  15.058  13.853  10.459 -0.1199  0.1925 -0.0498
 2317W        W18451   5.835   2.420   0.044 -0.1825  0.2191  0.2025
 2318W        W18452  14.414   9.089   4.355 -0.1954  0.2842 -0.1791
 2319W        W18453   2.362  15.931   4.219  0.1717  0.1462 -0.1834
 2320W        W18454  14.695  17.718   5.142  0.2407  0.1590 -0.2722
 2321W        W18455   4.792   2.971  12.671 -0.1840 -0.3068 -0.4538
 2322W        W18456  16.831  14.600  12.774  0.0151 -0.2464  0.2405
 2323W        W18457   7.860  14.204  14.914  0.1453  0.2196 -0.3053
 2324W        W18458  10.539   6.462  13.536 -0.0903 -0.0458  0.0191
 2325W        W18459  19.298   7.827   4.523 -0.1509 -0.1005  0.0086
 2326W        W18460  11.291  18.809   3.844 -0.1291  0.3904 -0.1480
 2327W        W18461  11.206  10.261  13.203 -0.0388  0.0713  0.1014
 2328W        W18462  10.438   4.530  13.585  0.1416 -0.3407  0.1966
 2329W        W18463  14.445   3.317   3.467 -0.2430  0.2572  0.2957
 2330W        W18464   7.420  18.479  13.103  0.1235  0.1526 -0.0282
 2331W        W18465   0.899   7.883   1.346 -0.1049 -0.0067  0.0729
 2332W        W18466  12.704  11.108   4.554 -0.2300 -0.0182 -0.1377
 2333W        W18467   8.401  11.501  12.907 -0.3156 -0.1415  0.2413
 2334W        W18468  12.151   2.459   1.594 -0.0077  0.1631  0.2910
 2335W        W18469  11.126   8.094  14.398  0.0105 -0.2815 -0.0229
 2336W        W18470   0.032   8.290   3.053 -0.2554  0.0804 -0.1781
 2337W        W18471  13.871   5.436  11.542  0.1726 -0.0162 -0.2068
 2338W        W18472   0.805  14.036  11.237  0.1635 -0.0978  0.2533
 2339W        W18473  15.092   6.735   9.190 -0.0073 -0.2823 -0.0589
 2340W        W18474   4.152  15.988  14.675  0.2580 -0.0383  0.2116
 2341W        W18475   0.252  14.849  10.257 -0.0264 -0.0198 -0.0675
 2342W        W18476  15.929  11.778   2.130  0.0058 -0.3297 -0.2665
 2343W        W18477  13.806   6.659   4.158 -0.2136  0.2763 -0.0910
 2344W        W18478   4.885   5.830   0.295 -0.1479  0.2166  0.0962
 2345W        W18479   0.354  16.894   9.985 -0.2049 -0.0055 -0.0703
 2346W        W18480  16.386  16.414  14.347 -0.2322 -0.0690  0.3368
 2347W        W18481  11.406  18.022   0.897 -0.1966  0.1055 -0.2576
 2348W        W18482  14.433  15.054   5.488 -0.5060  0.2557  0.0842
 2349W        W18483   1.815   9.216   3.390  0.1646  0.1724 -0.0104
 2350W        W18484   6.494  16.482  14.452  0.1140 -0.0478  0.2336
 2351W        W18485   5.221  14.870   1.424 -0.1682  0.5386 -0.1688
 2352W        W18486  10.078  14.256   4.206  0.1713 -0.2690  0.0048
 2353W        W18487   4.720   8.782   0.342  0.1719 -0.1067 -0.1926
 2354W        W18488  13.875  14.133   4.663  0.0345 -0.0212 -0.0616
 2355W        W18489  13.413   7.409  13.930  0.0211 -0.0412  0.0957
 2356W        W18490  19.125   5.647  11.544  0.0072  0.1094 -0.1305
 2357W        W18491   8.041  12.951  11.001  0.0202  0.0110 -0.0921
 2358W        W18492   5.737  10.291   3.762 -0.0476 -0.0794  0.3698
 2359W        W18493   3.154  12.231  12.618 -0.0438 -0.1944 -0.1633
 2360W        W18494   9.374   1.227  13.905 -0.1730  0.3471  0.1484
 2361W        W18495  18.721  16.756   1.679  0.0823  0.0866  0.0025
 2362W        W18496  17.453   6.041  10.649 -0.0354  0.1279 -0.1220
 2363W        W18497   6.826  11.965   0.649  0.0443  0.0452 -0.0030
 2364W        W18498  12.569  15.864  13.681 -0.0049 -0.0669  0.0664
 2365W        W18499   3.891   2.572   1.348 -0.0904 -0.1525 -0.2670
 2366W        W18500   4.025  17.948  14.064 -0.3917 -0.2518 -0.1896
 2367W        W18501  15.707   6.539  11.830 -0.3695  0.0547 -0.0686
 2368W        W18502  14.931  17.564   2.934  0.3209 -0.0720  0.0374
 2369W        W18503  17.786   5.839   0.127  0.0599  0.0159 -0.0447
 2370W        W18504   6.157  16.178  13.183  0.0030 -0.2642  0.1973
 2371W        W18505  11.425  11.712   1.857 -0.0112 -0.2149 -0.2620
 2372W        W18506   2.243  13.095  10.996  0.1964 -0.1602  0.2415
 2373W        W18507   3.881  17.470  12.095 -0.5033 -0.0313  0.3314
 2374W        W18508  12.237  13.080  13.923 -0.1552 -0.2816 -0.2132
 2375W        W18509   6.938   7.718   0.451  0.0298 -0.1549  0.3844
 2376W        W18510   4.297   2.760   8.768 -0.0770 -0.1706  0.1734
 2377W        W18511   7.376  11.387  11.666 -0.0792  0.2760  0.3771
 2378W        W18512   3.433  15.898   0.179 -0.0923 -0.1647  0.2845
 2379W        W18513  11.021  14.261  13.362  0.2636 -0.1661 -0.2024
 2380W        W18514   7.709   1.678   1.660  0.0186  0.1925 -0.0072
 2381W        W18515   3.877   0.095  12.892  0.1211 -0.0439 -0.0873
 2382W        W18516   5.427   3.542  13.285  0.0768  0.1548  0.1564
 2383W        W18517   6.547   9.773   1.884  0.0840  0.1541 -0.0459
 2384W        W18518   4.818   2.743   2.599 -0.1968 -0.1520 -0.1736
 2385W        W18519   3.132  10.271   1.257  0.1716  0.0157 -0.1903
 2386W        W18520   8.124   2.849  14.412  0.4666  0.3145  0.2354
 2387W        W18521  11.410   7.910  10.195 -0.0959 -0.2469  0.0090
 2388W        W18522   7.408   5.391   4.373  0.2468  0.0655 -0.0213
 2389W        W18523  11.016   9.117  13.468 -0.0075  0.3264 -0.1497
 2390W        W18524   5.313  16.687  13.167 -0.0186  0.1548 -0.1598
 2391W        W18525   0.278   8.414   3.604  0.2062  0.4050  0.1620
 2392W        W18526  14.095  14.603   3.530 -0.0035 -0.1050 -0.0359
 2393W        W18527  17.767   6.308   9.876 -0.2775  0.0893  0.4313
 2394W        W18528  12.764  15.169   1.152  0.0202 -0.0909 -0.3179
 2395W        W18529   4.998  15.258   4.067  0.1961  0.3027 -0.2147
 2396W        W18530   8.036   3.688  10.845  0.1480  0.3878 -0.0593
 2397W        W18531   6.467   3.176  11.577  0.1192 -0.1205 -0.3224
 2398W        W18532   7.781   7.325   3.440 -0.2039  0.0419  0.1482
 2399W        W18533   4.789  19.162   5.472  0.0691 -0.1094  0.2302
 2400W        W18534   1.891  14.514   3.576  0.1597 -0.0898  0.0743
 2401W        W18535   4.582   3.351  10.793 -0.1167 -0.0200 -0.1215
 2402W        W18536   6.385   2.996   1.692  0.0852 -0.4740  0.0098
 2403W        W18537  12.291  12.886   0.818  0.0456  0.0315 -0.0572
 2404W        W18538   2.555  10.339   4.086  0.0390 -0.4166  0.4823
 2405W        W18539  17.098  13.580  12.758  0.0073 -0.0579 -0.0059
 2406W        W18540   1.888   8.390  12.060  0.0244  0.0520 -0.2552
 2407W        W18541  16.610   0.270   2.994  0.3815 -0.3916 -0.0413
 2408W        W18542  14.205  13.130  12.607  0.1989  0.0234  0.1687
 2409W        W18543  15.275  15.632   2.371  0.1395 -0.1392 -0.1131
 2410W        W18544   5.889   0.398   0.611 -0.1140 -0.2243 -0.2666
 2411W        W18545   1.797   1.791   0.120  0.1630 -0.0626  0.2144
 2412W        W18546  16.873  18.939   1.693 -0.1460  0.1286  0.2470
 2413W        W18547   6.213   5.787  10.573  0.2064 -0.1759  0.2423
 2414W        W18548  17.190   3.376   5.410 -0.0364  0.1085  0.1737
 2415W        W18549  10.997   1.159   0.146 -0.2699  0.2065 -0.3770
 2416W        W18550   0.063   2.555  10.871 -0.0827 -0.1285 -0.0958
 2417W        W18551  15.740   9.287   0.775 -0.0945 -0.3023 -0.0769
 2418W        W18552   4.493  15.674   0.029 -0.1007 -0.1550  0.0469
 2419W        W18553  17.893   6.075  11.236  0.0259 -0.2693  0.0319
 2420W        W18554  18.703   9.576  13.394 -0.0402  0.0205 -0.0267
 2421W        W18555  18.795  10.110   5.651  0.1344 -0.1236 -0.1189
 2422W        W18556  10.254   2.389   4.132  0.1218 -0.0704  0.0188
 2423W        W18557  13.026  18.488   3.218  0.1988 -0.0897  0.1043
 2424W        W18558   3.986  15.634   2.195 -0.0459  0.2019  0.0902
 2425W        W18559   4.847  14.507  14.077 -0.1353 -0.0907  0.1632
 2426W        W18560   4.468   0.787   0.469  0.0043  0.0255  0.1243
 2427W        W18561  13.226   7.520  11.524 -0.1940 -0.0150  0.3387
 2428W        W18562  13.078  12.029   1.303  0.1399 -0.3670  0.1704
 2429W        W18563  17.587  11.231  12.301  0.1741 -0.0478 -0.1563
 2430W        W18564   3.968  17.638  14.617 -0.1101 -0.1672  0.3232
 2431W        W18565  18.279   0.763  13.960  0.0011 -0.1509 -0.3335
 2432W        W18566   5.684  14.070  14.065  0.2339  0.1374  0.2294
 2433W        W18567   4.176  10.669   2.405  0.4014 -0.0860  0.3305
 2434W        W18568  11.943   0.925   0.543 -0.1583 -0.1130  0.0995
 2435W        W18569  10.928   4.811  14.681 -0.1910  0.2550 -0.0478
 2436W        W18570  14.851   2.595   0.085 -0.3002 -0.0531 -0.0486
 2437W        W18571   6.266  14.939   2.112  0.1807 -0.2011 -0.0617
 2438W        W18572  18.023   4.657  14.281 -0.2638  0.2941 -0.2894
 2439W        W18573  17.920   3.501   2.905  0.1305 -0.3078  0.0364
 2440W        W18574  13.811  14.189   1.161 -0.0071 -0.0506 -0.0955
 2441W        W18575  14.814   9.604  10.545 -0.0648  0.2142  0.0343
 2442W        W18576  16.589   9.361  13.066 -0.1243  0.0050  0.0918
 2443W        W18577   0.061   5.808  14.175  0.1011 -0.1152  0.1235
 2444W        W18578  15.645  18.959  13.015 -0.2684  0.0446 -0.0422
 2445W        W18579   7.992  14.932   4.598  0.5125  0.2247 -0.1665
 2446W        W18580   9.551   5.158   3.999 -0.2774  0.2073 -0.2087
 2447W        W18581   7.521  12.618   4.237 -0.0759  0.3168 -0.1885
 2448W        W18582   5.508   5.827  13.725 -0.0800 -0.2200 -0.1200
 2449W        W18583  17.008   1.938  11.939  0.2602 -0.2352  0.3972
 2450W        W18584  18.012  15.057   2.569  0.1537  0.4228  0.0220
 2451W        W18585   9.125  19.056   3.649 -0.1444 -0.2520  0.1205
 2452W        W18586   0.891  10.526  13.471 -0.0541 -0.0914 -0.1017
 2453W        W18587  14.557   4.503   0.613  0.0367  0.2502  0.1734
 2454W        W18588  10.068   7.598   4.246 -0.4525  0.3381  0.2020
 2455W        W18589  13.124  18.749  13.244 -0.3250 -0.0920  0.2515
 2456W        W18590   4.706   9.731   1.281 -0.0241  0.0897  0.0533
 2457W        W18591  17.802   1.812   1.112 -0.0335  0.0970  0.0042
 2458W        W18592   9.882  12.797   2.305  0.6020  0.1441  0.4420
 2459W        W18593   2.493   3.506  12.157 -0.0938 -0.5133  0.1546
 2460W        W18594   1.413  18.559  13.174  0.0623  0.1076 -0.2581
 2461W        W18595   2.117   2.009  14.763  0.3182  0.0001  0.0131
 2462W        W18596   9.527  17.381  14.606 -0.1137  0.0887  0.0036
 2463W        W18597  10.467  16.155   1.428 -0.1411 -0.0256 -0.0419
 2464W        W18598  14.550   5.268   2.116 -0.2563 -0.0475  0.0618
 2465W        W18599   8.440   2.201   4.397 -0.0130  0.0921 -0.1298
 2466W        W18600   5.594   8.198   4.492  0.1953 -0.0248 -0.0206
 2467W        W18601   7.360  17.955  10.106 -0.0052  0.1309  0.4294
 2468W        W18602  11.159   2.443   3.041 -0.0556  0.0508 -0.0832
 2469W        W18603  16.838  15.928   0.581  0.0495 -0.0440 -0.0188
 2470W        W18604  10.673   1.309  13.039 -0.2187  0.3266 -0.2943
 2471W        W18605   5.966  18.881   1.839 -0.2068 -0.0539  0.3309
 2472W        W18606   4.430   8.165  14.621  0.0083 -0.0329 -0.0948
 2473W        W18607  15.827  17.616   4.082 -0.4527  0.0785 -0.2059
 2474W        W18608  16.174  13.285  11.646 -0.1961  0.0573  0.0411
 2475W        W18609  15.947  18.070   4.382  0.0928 -0.0630 -0.1784
 2476W        W18610   5.774  18.525   0.876  0.0072  0.2157  0.0588
 2477W        W18611   6.664  10.899  10.527 -0.2283  0.0417  0.4967
 2478W        W18612  15.897  15.259  11.802 -0.2325  0.0358  0.2130
 2479W        W18613  13.573  17.789   2.034  0.0708 -0.2031 -0.0729
 2480W        W18614  10.471   3.353   4.240 -0.2522 -0.2598 -0.0719
 2481W        W18615  14.603   9.752  12.948 -0.2706  0.1122 -0.1568
 2482W        W18616   9.076  17.899  10.590 -0.0411  0.1053  0.1890
 2483W        W18617  17.397  13.674   4.370  0.0698 -0.2298  0.1705
 2484W        W18618   8.517   8.140  13.345 -0.2829 -0.2671 -0.2414
 2485W        W18619   4.949  12.221   0.348  0.1039  0.1404 -0.2069
 2486W        W18620  11.657  14.435   5.311 -0.0457 -0.0963 -0.0016
 2487W        W18621   3.916   1.494   2.368 -0.3059 -0.2260  0.4259
 2488W        W18622   1.945   7.536  12.273 -0.1702 -0.1707 -0.1026
 2489W        W18623  11.093   8.282   2.596 -0.3525  0.1182 -0.0508
 2490W        W18624   9.361   0.796   1.794 -0.3507  0.0241 -0.0452
 2491W        W18625  11.623  14.004  12.996  0.1647  0.1797 -0.0986
 2492W        W18626   8.729   2.376  12.944 -0.1147 -0.2242  0.1777
 2493W        W18627  16.814   4.541  10.729 -0.0393 -0.0569  0.1111
 2494W        W18628  12.862   1.533   1.773  0.0099 -0.0304  0.1223
 2495W        W18629   1.214  14.072   0.543  0.0524 -0.2247 -0.2774
 2496W        W18630  11.272   9.351  14.782  0.1185 -0.1610 -0.1167
 2497W        W18631   3.515   0.470   4.102  0.1291  0.2051 -0.3468
 2498W        W18632  16.386  17.087   4.298  0.0966  0.2044 -0.2851
 2499W        W18633  16.293   9.771  11.393 -0.3116 -0.1262  0.0985
 2500W        W18634   6.764   0.212   0.207 -0.0492  0.3437  0.2407
 2501W        W18635   5.287   9.891   2.982 -0.0154 -0.3030 -0.3122
 2502W        W18636  11.720  12.659  11.568  0.2826  0.3332  0.1335
 2503W        W18637   9.713   3.656   4.047  0.0363 -0.1452  0.2692
 2504W        W18638  11.322   1.745   2.711  0.4523  0.1221 -0.2404
 2505W        W18639  14.757   2.499  12.204 -0.2351 -0.1710 -0.3139
 2506W        W18640   2.015   1.423   4.471  0.0027  0.4675 -0.3242
 2507W        W18641  16.249   7.294   1.292  0.2299 -0.2512  0.2794
 2508W        W18642  10.817  18.013  11.095  0.1415  0.1454  0.1835
 2509W        W18643   8.092  13.748   2.680 -0.3205 -0.1453  0.0296
 2510W        W18644   0.039  18.235  13.085 -0.0077  0.1165 -0.0051
 2511W        W18645  15.826   8.728  14.743 -0.4591  0.0195 -0.2964
 2512W        W18646   3.479   2.533  11.536 -0.3109 -0.1555 -0.0786
 2513W        W18647   3.415   5.747   9.243 -0.4385 -0.1694  0.0996
 2514W        W18648   0.986   3.046  13.863  0.0831 -0.0689 -0.2725
 2515W        W18649   8.610   8.644  11.971  0.1476 -0.1456  0.3554
 2516W        W18650  15.709   8.513  12.450  0.0377  0.1140 -0.3318
 2517W        W18651  11.657   4.103  13.784 -0.0585  0.2009  0.0661
 2518W        W18652  14.563   2.595  11.375 -0.0539 -0.1166 -0.2905
 2519W        W18653   4.033   7.115  14.889  0.2370 -0.0715 -0.2032
 2520W        W18654  13.721   8.778  14.298 -0.0748  0.0698 -0.2609
 2521W        W18655  15.460   0.356   1.521 -0.1253 -0.1059  0.0125
 2522W        W18656   6.079  13.682  10.972 -0.1706 -0.1281 -0.0905
 2523W        W18657  11.561  13.757   3.497 -0.1059 -0.2540  0.0075
 2524W        W18658  16.744  16.988   2.686 -0.0189 -0.1181 -0.0864
 2525W        W18659   4.332  15.344  11.267  0.1502  0.3212  0.0778
 2526W        W18660  12.910   6.003  10.877 -0.0881 -0.3332 -0.2588
 2527W        W18661   7.183   0.063   1.316 -0.2011 -0.4121 -0.2001
 2528W        W18662   5.551  19.276  13.337  0.1005  0.1133 -0.1196
 2529W        W18663  14.561   5.553  12.693 -0.0247  0.0368 -0.0302
 2530W        W18664  10.694  14.981  12.709  0.2906  0.0644  0.0391
 2531W        W18665   4.551   0.663   9.273  0.4361  0.1543 -0.1732
 2532W        W18666   2.822  19.101  13.547 -0.1498 -0.1608 -0.2185
 2533W        W18667  15.747   3.291  13.344  0.0913  0.2047  0.1997
 2534W        W18668  14.619   7.070   3.377 -0.0907  0.1792 -0.1379
 2535W        W18669  11.062   4.474   0.133 -0.1976 -0.1349 -0.2535
 2536W        W18670   5.747  14.741   1.325  0.1085 -0.2464 -0.0435
 2537W        W18671   1.673  15.460  13.384 -0.0513 -0.1872  0.1891
 2538W        W18672  16.416   0.567  13.495  0.0328 -0.1493  0.1525
 2539W        W18673   2.435   5.944  13.464 -0.1813 -0.2537 -0.1642
 2540W        W18674  18.412  15.767  11.935  0.0625 -0.3973  0.0883
 2541W        W18675  18.512   4.633  10.584  0.0818  0.2841  0.1555
 2542W        W18676   6.362   7.557   1.265  0.1646  0.1880  0.1247
 2543W        W18677  12.026   8.913   9.550 -0.3478 -0.0140  0.0270
 2544W        W18678   8.752  18.359   2.674 -0.0050  0.0137 -0.2598
 2545W        W18679   1.127  19.068  11.455 -0.2718  0.0007  0.2656
 2546W        W18680  13.762  17.931  12.728 -0.1716 -0.3201 -0.3145
 2547W        W18681  17.689  19.310   0.903 -0.0402 -0.1313  0.3944
 2548W        W18682   7.505   6.447  11.963 -0.5316  0.0733 -0.2253
 2549W        W18683   4.091   6.450  14.881 -0.1434  0.2829 -0.1740
 2550W        W18684   4.591   0.154   2.782 -0.0026  0.2257 -0.2754
 2551W        W18685   8.173  17.398   2.217  0.5508 -0.3308 -0.1581
 2552W        W18686   2.508   0.188  13.640 -0.0264 -0.1436 -0.1100
 2553W        W18687  18.150   3.181  12.170  0.1518 -0.0411  0.0452
 2554W        W18688  18.662   4.080   3.080  0.1613 -0.1757  0.2393
 2555W        W18689   3.772   5.103   8.621 -0.1704  0.0954 -0.0350
 2556W        W18690   9.984   7.066  12.669  0.0454 -0.1487  0.1225
 2557W        W18691   4.937  15.759   1.854 -0.1197  0.0303  0.0262
 2558W        W18692   2.787  17.050   0.605  0.0438  0.2390  0.0129
 2559W        W18693   2.490   5.733  14.236  0.3026 -0.1593 -0.0020
 2560W        W18694  15.929   7.513  13.160 -0.1140  0.0944  0.0649
 2561W        W18695   4.595   6.170   8.714 -0.2183 -0.0817  0.1437
 2562W        W18696  11.687  14.936  13.030 -0.0385 -0.0572  0.2181
 2563W        W18697   4.890   7.269   4.141 -0.0166 -0.2148  0.0123
 2564W        W18698  16.800  17.868   1.746 -0.4228 -0.2535  0.0803
 2565W        W18699   6.632   5.621  11.954  0.1328 -0.1328  0.1889
 2566W        W18700  10.898   9.688  12.273  0.2195 -0.0774  0.1878
 2567W        W18701   9.466  10.721  14.553 -0.2226 -0.0391  0.0255
 2568W        W18702  12.848   0.587   3.881 -0.2396 -0.0072 -0.0162
 2569W        W18703  11.432   0.547  11.048 -0.1137  0.0212 -0.0514
 2570W        W18704   4.608   7.654   3.111 -0.3232  0.2287 -0.1717
 2571W        W18705  18.841  11.695   1.779 -0.4453  0.1940  0.1011
 2572W        W18706  17.763  10.186  11.816  0.2663 -0.1095  0.2552
 2573W        W18707  13.216   3.118   4.577  0.0161 -0.0561 -0.0319
 2574W        W18708  13.480  18.272   4.812 -0.0221 -0.4175  0.2042
 2575W        W18709  13.536   2.566   6.185 -0.0620 -0.3123 -0.1053
 2576W        W18710   6.456  18.736  11.744 -0.0378  0.3500  0.2190
 2577W        W18711   8.656   2.797   0.760 -0.1032 -0.2906  0.4478
 2578W        W18712  17.376  13.135   0.433 -0.0943  0.4473 -0.0906
 2579W        W18713  18.683   8.842   5.140 -0.0885 -0.0885  0.5788
 2580W        W18714   7.196   1.143   1.035  0.0811  0.0051  0.2984
 2581W        W18715  14.344  18.184   1.909  0.0491  0.2161  0.1762
 2582W        W18716  12.767  15.889  13.117 -0.1135 -0.1418  0.1278
 2583W        W18717   8.662   6.243   2.729  0.0389 -0.3251 -0.2081
 2584W        W18718   4.018   0.587   1.487 -0.0320 -0.0685 -0.0361
 2585W        W18719   2.207   3.316  10.161  0.1972 -0.3599  0.0882
 2586W        W18720  17.924   9.056  12.834  0.0436  0.1543 -0.6541
 2587W        W18721  18.689   3.216  11.639  0.0834  0.0162 -0.2032
 2588W        W18722  10.728   7.806  14.213 -0.0958  0.4675 -0.3320
 2589W        W18723   9.369   4.351   3.311  0.2207  0.2701 -0.1378
 2590W        W18724  11.949  12.067   0.511 -0.1191  0.4198  0.0346
 2591W        W18725  14.062   6.276   2.778  0.4077  0.1314 -0.1884
 2592W        W18726  16.506  12.864   3.384 -0.0055  0.0238 -0.1093
 2593W        W18727   8.508  14.485   0.320  0.0711  0.0491 -0.2195
 2594W        W18728  17.976   2.202  12.330  0.0055 -0.1995 -0.1890
 2595W        W18729   8.227  17.009   0.889 -0.2795  0.2872 -0.6958
 2596W        W18730   8.955  16.828   1.401  0.0540  0.1360  0.2142
 2597W        W18731   4.138   2.186  13.063 -0.1479  0.2236 -0.2103
 2598W        W18732  12.140  13.833  12.902  0.0697  0.0623  0.3127
 2599W        W18733   3.761   6.394   4.973  0.3310 -0.0417 -0.2804
 2600W        W18734   5.894   1.207   1.592 -0.2326  0.3366 -0.1595
 2601W        W18735   2.437  18.816   4.323 -0.0970 -0.1903  0.0180
 2602W        W18736   1.416   0.108  14.459  0.1385  0.0151 -0.1429
 2603W        W18737  14.156  14.931   0.096  0.2457 -0.0401  0.0765
 2604W        W18738   5.139  18.863  12.615  0.0777 -0.3112 -0.2049
 2605W        W18739  17.605  16.156   3.675 -0.1171  0.1342  0.4175
 2606W        W18740  11.164   6.228  14.150  0.0238 -0.0998 -0.2768
 2607W        W18741  17.714   6.845   0.117 -0.1035 -0.0780 -0.1970
 2608W        W18742   5.644  15.990  11.318 -0.0994 -0.1323  0.3344
 2609W        W18743  15.295   0.496   3.604 -0.0786  0.1783  0.1638
 2610W        W18744  10.078   4.282   0.617 -0.1346  0.0010  0.1108
 2611W        W18745   7.235   4.230   1.235 -0.1353 -0.0242  0.1946
 2612W        W18746   3.317  13.105   5.439  0.0710 -0.0692 -0.2607
 2613W        W18747  19.041   8.984  10.900  0.2429 -0.0202  0.2492
 2614W        W18748   5.258  12.975   1.997  0.0556  0.4128  0.0941
 2615W        W18749   9.502   3.239   0.378  0.1088  0.1258  0.2382
 2616W        W18750   0.993  13.387  11.303 -0.0290  0.1105  0.0119
 2617W        W18751  12.654   8.314   0.696 -0.3111 -0.0492  0.2144
 2618W        W18752   6.582   1.038  11.473 -0.0576  0.2627  0.0810
 2619W        W18753   9.317  11.589  12.549  0.0136  0.1963  0.0045
 2620W        W18754   2.685   9.676  12.918 -0.0423 -0.1124 -0.2451
 2621W        W18755  11.211  14.506   1.973  0.2589  0.0752  0.3806
 2622W        W18756  17.082   6.737  10.840  0.2693 -0.2669  0.1537
 2623W        W18757   9.599   2.579  11.385  0.0792 -0.1350 -0.1305
 2624W        W18758   4.586   8.191   3.467  0.2175 -0.1428 -0.2090
 2625W        W18759   2.548   7.574   4.588 -0.0783  0.3420 -0.0010
 2626W        W18760   6.367   9.274   1.346  0.0923  0.0661  0.2906
 2627W        W18761  18.207   8.264   0.941  0.0510 -0.0358 -0.1097
 2628W        W18762   6.209  17.918   0.091  0.0661 -0.0825  0.1557
 2629W        W18763   9.717   4.129   3.973  0.2050  0.1224  0.0241
 2630W        W18764  15.091  15.322   1.668 -0.2825 -0.2758 -0.2021
 2631W        W18765  13.692  15.474   0.938  0.2083 -0.0404  0.0449
 2632W        W18766  16.157   7.005  13.061 -0.0966  0.0952 -0.0370
 2633W        W18767   4.600  16.585  10.716  0.2297 -0.1231 -0.2785
 2634W        W18768   7.307   2.116  12.543  0.3530 -0.1463  0.2614
 2635W        W18769   7.374   5.467  12.059  0.0434  0.3469  0.3713
 2636W        W18770   7.645   3.991   2.182  0.1529  0.1528 -0.0186
 2637W        W18771  14.397   2.955   5.346  0.2473 -0.1361  0.0660
 2638W        W18772  12.032  15.740  11.442 -0.2691  0.1243 -0.2278
 2639W        W18773  17.127   3.440  13.737 -0.1999 -0.1639  0.0188
 2640W        W18774   2.062  14.387  10.009  0.2316  0.4321 -0.1445
 2641W        W18775  15.752   1.605   3.377  0.1572  0.4043 -0.0915
 2642W        W18776   9.602   7.370  14.393 -0.0429  0.0447  0.2043
 2643W        W18777  10.610   0.197   3.645 -0.0570 -0.0046  0.0075
 2644W        W18778   6.356  14.532  11.534 -0.0115 -0.1165 -0.0291
 2645W        W18779  10.997   7.792   9.865  0.0424 -0.1432 -0.0445
 2646W        W18780   6.503   8.951  13.547  0.0303  0.2261  0.1746
 2647W        W18781  13.170   3.768   4.499  0.0536 -0.2413 -0.4667
 2648W        W18782   1.563   7.445   0.345 -0.1991  0.1426 -0.0465
 2649W        W18783  14.975  18.882   3.785 -0.0811  0.1525  0.0855
 2650W        W18784  11.758  15.055   3.061 -0.0712 -0.1482  0.2216
 2651W        W18785  12.084  14.772   0.638 -0.1176 -0.0452 -0.3265
 2652W        W18786   6.199  11.044   4.128  0.3402 -0.4530 -0.0346
 2653W        W18787   3.677  12.792  11.077 -0.2550  0.0340  0.0276
 2654W        W18788  14.907   9.189  13.122 -0.2145  0.1492  0.0704
 2655W        W18789  13.802   6.273  10.395 -0.1454 -0.2614  0.0158
 2656W        W18790   1.020  19.305   4.128 -0.2056  0.3507 -0.0241
 2657W        W18791   0.472   4.917   3.151  0.0713 -0.2107  0.0623
 2658W        W18792   3.772  12.667   2.450 -0.0064 -0.1626 -0.5069
 2659W        W18793   2.971   7.302   0.865 -0.3631  0.0884 -0.0970
 2660W        W18794   4.292  14.987  14.275 -0.3224 -0.0941 -0.1454
 2661W        W18795  16.582  12.995   1.139 -0.2901 -0.4322 -0.2865
 2662W        W18796   6.563  13.792  10.829  0.1497  0.0006 -0.2701
 2663W        W18797   6.616  18.415  10.542 -0.0799  0.1840  0.0778
 2664W        W18798   3.690   8.675  11.042  0.0677 -0.3228  0.2253
 2665W        W18799  14.038  14.961  12.689 -0.0249  0.2845 -0.2767
 2666W        W18800  10.394  15.252   1.986 -0.0167 -0.3814  0.1930
 2667W        W18801  10.933  10.155  12.108  0.0869 -0.0433 -0.0742
 2668W        W18802   7.866   3.251  11.749  0.1911 -0.1071  0.0171
 2669W        W18803  12.520   6.485   3.748 -0.0126 -0.0477 -0.5335
 2670W        W18804  15.859   4.732  12.723  0.2440 -0.3436 -0.3164
 2671W        W18805   5.977  12.580  14.581 -0.0842  0.0870 -0.1275
 2672W        W18806  13.058   0.691  12.912  0.2617  0.0765  0.0808
 2673W        W18807   8.043   6.574  10.310 -0.2462 -0.1251 -0.3593
 2674W        W18808  18.437   9.755  12.969  0.1787  0.0771 -0.0150
 2675W        W18809   4.157   8.411  12.620  0.3242 -0.2214  0.0200
 2676W        W18810  16.824  13.312  13.622 -0.0093  0.1521 -0.1748
 2677W        W18811   1.467   0.494  13.596 -0.0901  0.0525  0.0336
 2678W        W18812   5.779   3.005   2.499 -0.0778  0.0512  0.4418
 2679W        W18813   2.217  15.370   4.846  0.1373 -0.1029 -0.4181
 2680W        W18814   2.233   1.511   0.084  0.0264 -0.3738  0.2026
 2681W        W18815   4.952   7.942  11.924  0.1361 -0.2514 -0.1499
 2682W        W18816   9.206   0.328  14.187  0.3151  0.2138 -0.1422
 2683W        W18817   3.225   8.928   1.049  0.1470 -0.0261  0.0583
 2684W        W18818   3.781  15.225   4.892  0.0809 -0.0258 -0.1755
 2685W        W18819  14.347   4.784  11.127 -0.0403  0.5278  0.1474
 2686W        W18820  14.838  17.330  11.850  0.2750  0.2380 -0.1577
 2687W        W18821   5.637  16.264   0.244  0.0347  0.1108  0.3410
 2688W        W18822  12.774   8.320  14.203  0.0634 -0.2987 -0.0244
 2689W        W18823  18.071   9.731  14.359 -0.1412  0.1355  0.1737
 2690W        W18824   8.848   8.333   0.814 -0.1920  0.0633  0.1717
 2691W        W18825   7.462   1.213  13.602 -0.2241 -0.1111  0.0294
 2692W        W18826   4.825   5.370   0.107  0.1466 -0.2310  0.1010
 2693W        W18827   9.071   0.254  11.898  0.0692  0.1188 -0.0220
 2694W        W18828   3.512  15.970   5.663  0.1048 -0.0668  0.2838
 2695W        W18829  13.485  11.556   4.498  0.0286 -0.0635 -0.0746
 2696W        W18830  12.936   6.658   9.519  0.1302  0.2324 -0.1491
 2697W        W18831  18.731   6.049   5.273  0.1558  0.1300 -0.1064
 2698W        W18832  10.932   5.790  11.130  0.1373 -0.2458 -0.1132
 2699W        W18833   2.323   6.295  10.445  0.2774  0.2948 -0.0151
 2700W        W18834  11.627   1.609   1.581  0.1593 -0.1436  0.1367
 2701W        W18835  18.238  17.165   3.421  0.2359  0.0742 -0.2480
 2702W        W18836  11.850   5.406   1.248  0.0113  0.1439  0.1280
 2703W        W18837   9.314   4.422  12.845  0.0289  0.0809  0.2849
 2704W        W18838  10.323   6.268   3.480  0.0474 -0.0710  0.2056
 2705W        W18839  18.969  16.388   0.015 -0.3237 -0.1413 -0.1571
 2706W        W18840   5.958  16.638   0.361 -0.4395 -0.0300  0.1207
 2707W        W18841  18.998   4.937  12.874  0.3232  0.2837 -0.4071
 2708W        W18842   0.075  10.388  10.705 -0.1721  0.0456  0.4466
 2709W        W18843   4.655  14.625  13.540 -0.1905 -0.1033 -0.0454
 2710W        W18844   4.248  16.246  10.988 -0.0451  0.0428  0.1353
 2711W        W18845   6.934   3.049   2.705 -0.3739  0.0060  0.1161
 2712W        W18846  12.761  12.135   2.376 -0.2875  0.1892  0.0152
 2713W        W18847  14.040  11.144  10.563  0.3077 -0.3264  0.0204
 2714W        W18848   0.229   6.669  12.527 -0.1852  0.3013 -0.1376
 2715W        W18849  14.743   6.456   1.954 -0.3061 -0.0903  0.0698
 2716W        W18850   1.897  17.136  14.323 -0.1808  0.0218  0.0881
 2717W        W18851  18.263   9.390  13.678  0.1073 -0.2450  0.0144
 2718W        W18852   2.269  15.363  11.936  0.0579  0.1173  0.1310
 2719W        W18853  14.907   2.640   4.464 -0.1672 -0.2531 -0.2012
 2720W        W18854  13.626  15.742   2.977 -0.0412  0.0828 -0.0512
 2721W        W18855   1.513   8.995  11.153 -0.1228  0.2226  0.1752
 2722W        W18856  11.270  17.854  12.753  0.4431  0.0482 -0.0769
 2723W        W18857  12.573  12.120  11.175 -0.2525  0.2091  0.3275
 2724W        W18858   7.136  16.319  12.980 -0.2079  0.0651 -0.4538
 2725W        W18859  12.499  15.263   3.742 -0.0666  0.2839  0.1149
 2726W        W18860   8.831  16.456   5.817 -0.2426  0.3036 -0.5372
 2727W        W18861   1.881   2.213   3.930 -0.0431 -0.2060  0.3444
 2728W        W18862  11.393   8.562  14.407 -0.2019  0.3780  0.1105
 2729W        W18863  10.064  10.416   1.414 -0.1030 -0.0250 -0.2747
 2730W        W18864   8.731  12.938   4.263  0.0489 -0.1633  0.1949
 2731W        W18865   1.093  11.290   3.494 -0.0188 -0.1960 -0.0874
 2732W        W18866  19.012  16.569  14.363  0.0688 -0.0431 -0.1598
 2733W        W18867   7.256  17.341   1.341 -0.2300 -0.0544  0.1380
 2734W        W18868  15.700   7.958  10.734  0.0502  0.3325 -0.3493
 2735W        W18869   2.600   0.944  11.203  0.1324 -0.0749  0.0484
 2736W        W18870   5.658  10.206  12.662  0.1868 -0.4579  0.3691
 2737W        W18871  18.094   9.296   2.654  0.0637  0.0162 -0.0522
 2738W        W18872   6.056  13.800   4.255  0.0919 -0.1449  0.2074
 2739W        W18873  18.241  14.716   0.353 -0.1523 -0.2441 -0.1008
 2740W        W18874  18.216   9.795  13.432 -0.3242  0.0238  0.0979
 2741W        W18875  13.035   8.652   0.929 -0.5300 -0.0310  0.0335
 2742W        W18876   7.430  13.802   3.378  0.2135 -0.1756  0.0444
 2743W        W18877   6.773  11.052   4.165 -0.1079  0.0175 -0.0687
 2744W        W18878  14.899   9.713  13.318 -0.0310  0.4523 -0.0625
 2745W        W18879   9.485   8.745  14.079  0.0497 -0.1329 -0.1916
 2746W        W18880  17.151   4.826  14.590  0.2133  0.0701  0.1887
 2747W        W18881   0.888   1.250  12.717  0.0035  0.0053  0.2123
 2748W        W18882  15.309   7.995  13.639  0.0921  0.3838 -0.1764
 2749W        W18883   2.415  17.811  10.944 -0.0825  0.2248 -0.6413
 2750W        W18884  10.309   0.416   5.036  0.0432 -0.3517 -0.0857
 2751W        W18885  15.499  10.631   9.498  0.1679  0.4029  0.2432
 2752W        W18886  19.188   3.267  12.932 -0.0008  0.1324  0.3189
 2753W        W18887  16.398  16.707   2.440  0.1751  0.0844 -0.3365
 2754W        W18888   0.856  17.473   2.728 -0.1885  0.0757 -0.1047
 2755W        W18889   6.690   2.542   2.745 -0.2375  0.1007  0.2693
 2756W        W18890   1.702  11.808   9.904  0.2907  0.2291 -0.0749
 2757W        W18891  15.563   6.260   0.379 -0.2726 -0.0748  0.0477
 2758W        W18892  14.302  13.566  13.406  0.2546  0.0640  0.0264
 2759W        W18893   7.639  12.681   5.094 -0.2153 -0.0016  0.1193
 2760W        W18894  13.411   6.093  14.782 -0.0968 -0.0526  0.0433
 2761W        W18895  13.388   9.663  14.071  0.0847  0.1074 -0.1552
 2762W        W18896  18.161   3.127  14.682  0.0817 -0.0633  0.1070
 2763W        W18897   2.076   9.074   1.402  0.0067  0.2168 -0.0283
 2764W        W18898  16.696   9.655   0.227  0.0704 -0.2465 -0.2018
 2765W        W18899   2.710   4.335   8.536  0.2808 -0.0317  0.0054
 2766W        W18900   4.070   3.917   0.080 -0.2352  0.1839  0.0082
 2767W        W18901   6.045   1.167  12.496  0.0584  0.0822 -0.3742
 2768W        W18902  17.792   4.816   2.112 -0.2175  0.1461  0.3929
 2769W        W18903  15.524  12.511  11.538 -0.0805 -0.0146  0.4583
 2770W        W18904   0.054   4.621   0.683  0.0718  0.0708 -0.0949
 2771W        W18905  14.514  11.049   3.030  0.1405  0.0041  0.1898
 2772W        W18906  18.939   3.733   2.587 -0.0857 -0.2705  0.3800
 2773W        W18907  11.161  11.226  10.868 -0.1213 -0.0538  0.0034
 2774W        W18908  15.690   5.728   5.292  0.0292 -0.2088  0.0719
 2775W        W18909   2.944  13.308  11.510  0.1043 -0.0544  0.0947
 2776W        W18910  18.875   4.237  14.902  0.1829  0.1578  0.0512
 2777W        W18911  11.573  14.125   0.811  0.1394 -0.0993  0.2074
 2778W        W18912   0.418   6.216   0.033 -0.1820  0.1630  0.1795
 2779W        W18913   2.516   7.882   4.977 -0.3272  0.1243  0.0230
 2780W        W18914   0.991   1.345   3.289 -0.1677 -0.3483 -0.1591
 2781W        W18915  15.884   0.101   0.479 -0.0095 -0.1672 -0.0737
 2782W        W18916  17.688   9.067   9.657  0.1049 -0.1384 -0.1847
 2783W        W18917   8.652  15.308   5.009  0.2544 -0.0299  0.2528
 2784W        W18918  10.340   2.287  14.724 -0.2822  0.3502  0.1266
 2785W        W18919  10.951  11.179   4.368  0.1595  0.0143  0.0239
 2786W        W18920   7.359   0.134   5.123 -0.2427 -0.1286 -0.0772
 2787W        W18921   0.117   1.746   1.158 -0.0604 -0.3191 -0.1090
 2788W        W18922   7.932  15.926   4.378 -0.0184  0.0551 -0.1880
 2789W        W18923   3.491  17.318  10.533 -0.1037 -0.0468  0.2745
 2790W        W18924   4.435   9.616   0.528 -0.4014  0.1209 -0.0388
 2791W        W18925   6.688  11.899   4.863 -0.3138 -0.3016 -0.0099
 2792W        W18926  10.493   5.775   2.005  0.2661  0.2091 -0.0577
 2793W        W18927   3.247  18.772  10.756 -0.0090  0.3347  0.0104
 2794W        W18928   6.697  18.916   4.505 -0.1897  0.0580  0.0099
 2795W        W18929  10.183   7.541   3.402  0.2681 -0.0554  0.0149
 2796W        W18930  11.432  17.736   3.634  0.3506  0.0874  0.0070
 2797W        W18931  19.084  10.379  11.883  0.2405  0.0781 -0.3093
 2798W        W18932  16.103  16.298   2.398 -0.0149 -0.0681  0.3361
 2799W        W18933   5.443   0.600   4.773  0.3539  0.0620  0.3181
 2800W        W18934  12.037  10.497  11.039  0.0207  0.0365 -0.1244
 2801W        W18935   6.205   3.914  13.908 -0.4962  0.0679 -0.1079
 2802W        W18936  15.759   5.797   0.386  0.1489 -0.1461  0.1399
 2803W        W18937   5.743  15.608   5.386  0.0499  0.3450 -0.0477
 2804W        W18938  11.215  19.143  12.899 -0.3703 -0.3063 -0.1554
 2805W        W18939  13.929   7.658   3.117  0.3624  0.1837  0.3110
 2806W        W18940   6.013  16.292   5.912  0.3610  0.3162 -0.2994
 2807W        W18941  14.474   2.118  13.831 -0.3587 -0.0408 -0.0906
 2808W        W18942  17.586  10.189  12.568  0.1660 -0.0718  0.0690
 2809W        W18943   7.204  18.223  14.056  0.2508 -0.4720  0.0884
 2810W        W18944   8.032  14.341   0.449  0.0333 -0.3611 -0.1208
 2811W        W18945   2.447  11.345  13.614 -0.0058  0.0281  0.2862
 2812W        W18946   5.139   3.790   3.449  0.0936 -0.3092  0.0141
 2813W        W18947   5.795  15.145   2.181 -0.1119  0.2036  0.1656
 2814W        W18948   5.550  10.607   1.878  0.3022  0.0082  0.2584
 2815W        W18949   9.734   4.234   1.035 -0.1464  0.0756 -0.1869
 2816W        W18950   1.082  18.749   4.815 -0.0065  0.4597  0.1362
 2817W        W18951   7.228   7.679  12.432  0.1757 -0.1371  0.2101
 2818W        W18952   9.522  17.764   2.654  0.1362  0.0922  0.0749
 2819W        W18953  10.969   7.959  10.906  0.0553  0.1874 -0.0837
 2820W        W18954   1.838  15.125   1.630  0.0451  0.1766  0.2092
 2821W        W18955   7.889   1.318  14.953  0.0100 -0.0490  0.2640
 2822W        W18956  17.716   2.715  11.317 -0.0751  0.2092 -0.2285
 2823W        W18957  16.571  12.431   1.781 -0.3736 -0.0692  0.2194
 2824W        W18958  14.532   0.855   3.130  0.1036 -0.0259  0.1364
 2825W        W18959   4.543   0.589   2.376  0.1253  0.1539  0.0378
 2826W        W18960   6.335   1.520  12.835 -0.0671  0.2965 -0.0520
 2827W        W18961  14.005   7.300   2.781  0.2039 -0.4888 -0.5159
 2828W        W18962  12.112  18.888   3.579  0.0842  0.3657 -0.1027
 2829W        W18963   1.080   2.047   3.789 -0.0814  0.1353 -0.0469
 2830W        W18964   2.981  12.132  14.771 -0.0300  0.0260  0.0850
 2831W        W18965   6.855  11.919   3.244  0.0293 -0.0565 -0.0336
 2832W        W18966   3.044  10.344   0.194 -0.4377  0.1435 -0.1704
 2833W        W18967  15.685   1.030  10.771  0.2875  0.0460 -0.1895
 2834W        W18968  12.116  11.185  14.668 -0.1508  0.0098  0.1299
 2835W        W18969   8.209   3.754  12.361 -0.2410 -0.2798  0.2235
 2836W        W18970  16.461  17.528   4.880  0.0632 -0.3764 -0.1682
 2837W        W18971  10.068   9.451  13.619  0.0141 -0.0649  0.0260
 2838W        W18972   7.855   1.604  10.414 -0.0890  0.2437 -0.1852
 2839W        W18973   6.400  17.544   4.633  0.0372 -0.0374  0.1572
 2840W        W18974  18.643   4.960  12.573  0.0326 -0.2101  0.1965
 2841W        W18975  14.909   2.445  13.831 -0.2144 -0.0485 -0.0166
 2842W        W18976   1.760   1.286   0.860 -0.1873  0.3246 -0.0943
 2843W        W18977   6.662  11.574   4.320  0.3352 -0.1836 -0.0336
 2844W        W18978  13.475  10.168  12.691  0.0531 -0.2019  0.0859
 2845W        W18979   4.963   7.318  13.839  0.1517  0.0936 -0.2179
 2846W        W18980  19.072  14.915  12.956 -0.2475  0.0235 -0.1440
 2847W        W18981  11.177  11.607  11.420  0.2355  0.3495  0.1172
 2848W        W18982   8.321   2.293   9.511  0.0449  0.3852 -0.3632
 2849W        W18983   1.665   0.951   3.262 -0.1095  0.0445 -0.0188
 2850W        W18984   1.273   5.591  12.757  0.3229 -0.2684 -0.0443
 2851W        W18985  16.601   3.496  12.725  0.2359  0.1742 -0.3668
 2852W        W18986   7.795  10.671  12.229  0.0073 -0.0415  0.0213
 2853W        W18987   4.783  12.212  11.075  0.0076 -0.2524  0.0248
 2854W        W18988   8.965  12.958   2.638  0.2487  0.0120 -0.0394
 2855W        W18989   0.812  15.528  13.971  0.1247  0.0416 -0.1914
 2856W        W18990  18.388  14.678  12.448  0.1242 -0.2101 -0.0917
 2857W        W18991   9.626   1.501   2.364 -0.1417  0.1579  0.2402
 2858W        W18992   8.597  17.905  11.526  0.3706  0.2814  0.1304
 2859W        W18993   5.966  13.351  13.913  0.0101  0.3502  0.1788
 2860W        W18994  13.314   4.519  13.483 -0.0318  0.2888  0.0273
 2861W        W18995  13.797   0.417   5.276 -0.2715 -0.2053 -0.0866
 2862W        W18996   0.849  12.855  14.755  0.2098  0.0427 -0.2913
 2863W        W18997   7.868   7.892   0.929 -0.1004 -0.0454 -0.0949
 2864W        W18998  12.669   3.644   3.467  0.1580 -0.0699  0.5013
 2865W        W18999  15.754   9.366  12.915  0.2220 -0.1102  0.2459
 2866W        W19000  17.120  14.839   3.557  0.2462 -0.2362  0.2918
 2867W        W19001   2.644  10.197   1.016 -0.0541  0.0873  0.3949
 2868W        W19002  19.214   9.843  13.325 -0.0189  0.1772 -0.0631
 2869W        W19003  19.030  16.094  10.188 -0.2488  0.2229  0.0011
 2870W        W19004  16.462   4.116  13.570  0.1698  0.0186 -0.0294
 2871W        W19005   9.714   1.737   3.918  0.1689  0.1038  0.2326
 2872W        W19006   6.748   1.437   2.009 -0.0942 -0.1253 -0.0787
 2873W        W19007   7.421   5.854   4.131 -0.1569 -0.1311 -0.4795
 2874W        W19008   2.631   7.655   1.262  0.0419 -0.1073  0.2015
 2875W        W19009   2.843   7.403   3.514 -0.0325 -0.0032  0.2938
 2876W        W19010  14.699   2.230   4.273 -0.0088 -0.3358 -0.0066
 2877W        W19011  10.503  15.430  12.561 -0.0707  0.0965  0.2953
 2878W        W19012  17.817  17.210   3.750  0.2155 -0.1712  0.1118
 2879W        W19013  13.835   5.708  14.678  0.0377  0.0397  0.1168
 2880W        W19014   8.384  18.676   2.719  0.0748 -0.2401 -0.1413
 2881W        W19015   0.958  16.861   1.888 -0.1897  0.2209 -0.1368
 2882W        W19016  13.654   3.085   6.214  0.0236 -0.2263 -0.0821
 2883W        W19017   0.158  18.797  11.718  0.1136  0.0939 -0.2351
 2884W        W19018   8.661  11.017  12.599  0.0063 -0.0786  0.0996
 2885W        W19019  12.991   5.753   3.736  0.1251 -0.1590 -0.1323
 2886W        W19020  11.096   0.276  11.324 -0.0853 -0.0029 -0.0083
 2887W        W19021  16.783  15.814  13.247  0.2429  0.2848 -0.1130
 2888W        W19022   3.659   1.356   0.396 -0.3316  0.2192  0.2428
 2889W        W19023   1.189  12.885   3.946 -0.2619  0.2420 -0.1034
 2890W        W19024   5.776  12.711   5.299 -0.0567 -0.2782  0.2692
 2891W        W19025  13.692   4.598   3.197 -0.1502 -0.0435  0.0666
 2892W        W19026   2.799   3.648   3.739  0.2378 -0.1914 -0.0365
 2893W        W19027   1.324   5.964   0.254 -0.1804  0.5117 -0.1384
 2894W        W19028   0.957  13.562   0.790  0.0953  0.1087 -0.2202
 2895W        W19029  19.035   8.901  10.375  0.1250 -0.0876 -0.1544
 2896W        W19030   8.086  13.374   2.140 -0.0688  0.4015  0.0903
 2897W        W19031   6.708   9.255  13.917  0.1853 -0.1141 -0.0138
 2898W        W19032  14.289  13.923   2.795 -0.0918  0.0732  0.2127
 2899W        W19033   9.138  12.083   5.071 -0.0416  0.1006 -0.2478
 2900W        W19034  13.350  15.071   6.255 -0.0669 -0.2221 -0.1237
 2901W        W19035  14.981   8.004   2.393  0.1526  0.1012  0.0745
 2902W        W19036  15.827   8.893   2.196 -0.0294  0.1807  0.1751
 2903W        W19037  14.830   7.976   1.802 -0.1641 -0.0965  0.0790
 2904W        W19038   4.297   5.727   4.015  0.3083  0.2023 -0.1224
 2905W        W19039   1.766  14.009  10.040  0.0765 -0.1977  0.2894
 2906W        W19040   4.560   7.516  10.189 -0.2143 -0.1745 -0.2001
 2907W        W19041  14.172   0.516  14.065  0.0023 -0.2166  0.0956
 2908W        W19042   1.319  10.949   4.153 -0.1546  0.1812  0.0852
 2909W        W19043   0.759  10.212   3.547  0.3514  0.0960 -0.2636
 2910W        W19044  13.112   7.530   4.614 -0.0136  0.0720  0.0363
 2911W        W19045  18.947   1.383  14.899  0.0256  0.2113  0.3178
 2912W        W19046  14.836   6.199  11.187  0.1563  0.0215  0.5295
 2913W        W19047   6.895   4.431   0.913 -0.0725 -0.1526 -0.0315
 2914W        W19048   9.386   4.209   5.306 -0.0274 -0.1704 -0.1080
 2915W        W19049   3.513   4.662  12.826 -0.1583  0.1161 -0.1280
 2916W        W19050  12.815   4.030   2.170 -0.2978  0.0904 -0.4211
 2917W        W19051  16.056   4.137   2.730 -0.0067 -0.0426  0.1278
 2918W        W19052   6.996   2.782  14.261 -0.0735 -0.0145 -0.0369
 2919W        W19053   6.437   6.767   3.994  0.0313  0.2730  0.2327
 2920W        W19054  16.011  16.900   3.416 -0.1117 -0.0691  0.0453
 2921W        W19055   4.682  10.794   0.210  0.0951  0.0302  0.1817
 2922W        W19056  12.008   3.586  13.325 -0.3804  0.0725 -0.0939
 2923W        W19057   3.332  13.849   4.923  0.0891 -0.1268 -0.2187
 2924W        W19058   8.528   7.682   3.619 -0.2299  0.1150  0.1109
 2925W        W19059   7.057  13.587   1.671  0.0265 -0.0272 -0.0956
 2926W        W19060   3.560   2.457   9.677  0.0097  0.0435 -0.0680
 2927W        W19061  11.694  19.006   2.216  0.2138  0.2687  0.0816
 2928W        W19062   1.249  10.946  11.154 -0.3108 -0.0213 -0.2191
 2929W        W19063   2.006  17.199   2.064 -0.0894  0.1881  0.2370
 2930W        W19064   4.677  12.400   2.376 -0.2470 -0.0156 -0.0003
 2931W        W19065   8.621  11.349  10.867 -0.1294 -0.0551  0.0584
 2932W        W19066  10.885  15.800  11.102 -0.1809 -0.1973 -0.0263
 2933W        W19067   6.832   9.777  11.570  0.1277  0.0758  0.0088
 2934W        W19068  12.149   7.860   3.917 -0.0347 -0.2265 -0.0876
 2935W        W19069  10.007   3.769  12.455  0.0362  0.1674 -0.1963
 2936W        W19070   4.432   2.485  10.294  0.0648 -0.2287  0.1310
 2937W        W19071   9.117   3.631  11.694 -0.2868  0.0272 -0.0344
 2938W        W19072  14.629  11.826  12.289  0.0129  0.1999  0.2077
 2939W        W19073  16.613   7.897  13.408  0.1656  0.1345 -0.0074
 2940W        W19074   5.979   5.196   4.120  0.1783  0.3968 -0.2650
 2941W        W19075  10.612   8.708   1.208  0.0063  0.0901  0.2138
 2942W        W19076  14.091  10.503   4.280 -0.0649 -0.0937  0.2511
 2943W        W19077   2.373   1.130  14.725 -0.0217  0.1049 -0.0668
 2944W        W19078  16.215   7.626  13.634  0.1812 -0.4744 -0.1057
 2945W        W19079   7.864  10.311  13.728 -0.0954  0.1509 -0.2288
 2946W        W19080   0.126  10.844   1.684 -0.2133  0.2950  0.1224
 2947W        W19081  16.704  15.181  10.096 -0.1077  0.2052  0.0065
 2948W        W19082   2.865  10.619   3.684  0.3522  0.3230  0.3019
 2949W        W19083   7.695   8.916   9.095  0.2998  0.1082 -0.0794
 2950W        W19084   3.417  15.016   2.581  0.2199  0.0933 -0.1995
 2951W        W19085  16.687  17.718  14.591 -0.1563  0.2368 -0.0304
 2952W        W19086  15.365   6.938   2.403 -0.0958 -0.2667  0.0432
 2953W        W19087  19.125   4.617  14.639  0.2477  0.0764  0.0324
 2954W        W19088   1.217   3.823  14.066 -0.0588 -0.1241 -0.2012
 2955W        W19089  18.119   8.966  14.947 -0.0900  0.1412 -0.1057
 2956W        W19090   7.655   9.846  10.352  0.1694  0.0999  0.0225
 2957W        W19091   1.092  12.506   1.183  0.0374  0.0107 -0.3997
 2958W        W19092  10.197   1.236  13.118 -0.2177 -0.0189 -0.2362
 2959W        W19093  12.657   2.406   2.866  0.2484  0.1455  0.1443
 2960W        W19094  10.291   0.902  12.008  0.0441  0.3363 -0.2367
 2961W        W19095  13.411   0.527  13.415  0.1263  0.0351 -0.0357
 2962W        W19096  19.018   7.299  13.106  0.3957 -0.2238  0.3358
 2963W        W19097  15.787  11.851   3.153 -0.3105  0.1291 -0.2597
 2964W        W19098   2.511   2.038   2.760  0.1418  0.0419 -0.2673
 2965W        W19099   5.408  14.952   1.861 -0.0292 -0.0623  0.1267
 2966W        W19100   7.551  10.504  14.567  0.1331 -0.0119 -0.0167
 2967W        W19101   1.434  14.510   3.793 -0.0162 -0.1147 -0.0464
 2968W        W19102   0.443   4.681   2.063  0.0755 -0.1013  0.1860
 2969W        W19103   9.626  16.515  13.628  0.0104  0.0856 -0.2255
 2970W        W19104  10.284  18.739   2.169  0.0443  0.0046 -0.1161
 2971W        W19105   3.063  18.550  13.631 -0.1812 -0.2081  0.2294
 2972W        W19106  15.305  13.324  11.171  0.0399 -0.2450 -0.0226
 2973W        W19107   8.675   7.118   3.658  0.1123  0.3150 -0.1375
 2974W        W19108   6.442   6.031  12.560  0.2506  0.2910  0.2884
 2975W        W19109  19.279   1.548   9.403  0.2552  0.1493  0.2898
 2976W        W19110   4.465   2.552  13.822  0.1315  0.1559  0.2149
 2977W        W19111   3.199  11.388   2.612  0.2985  0.4052  0.2133
 2978W        W19112  17.055  10.857   2.065  0.2164  0.0435  0.0325
 2979W        W19113   4.418   5.260   8.984  0.2530  0.0398  0.1793
 2980W        W19114   0.409  14.231   3.199 -0.0963  0.0496 -0.1001
 2981W        W19115  15.853  11.445   2.812 -0.0895 -0.2152 -0.2077
 2982W        W19116   1.411   2.451  12.751  0.0847  0.0432 -0.3239
 2983W        W19117   1.926  15.404   2.605 -0.1994  0.1956  0.0778
 2984W        W19118   0.126  16.753   4.502  0.2550  0.0535 -0.2130
 2985W        W19119   7.166  17.266   0.861  0.1421 -0.0875 -0.0552
 2986W        W19120   6.182  18.278   2.664  0.1267  0.3004 -0.1271
 2987W        W19121  13.423   9.038  12.704 -0.2782 -0.0889  0.3850
 2988W        W19122  10.192   9.576   2.103 -0.0738  0.0559 -0.1420
 2989W        W19123   3.881   8.577   2.283  0.1758  0.0929  0.1802
 2990W        W19124   7.029   0.205  14.679 -0.0960  0.1332 -0.0356
 2991W        W19125   0.475  15.369  14.454 -0.0001  0.1213 -0.1947
 2992W        W19126  15.244   7.687  12.491  0.2899  0.3060  0.1136
 2993W        W19127   1.429   6.967  13.445 -0.0133  0.2826  0.0416
 2994W        W19128   7.966   7.784  11.460  0.1813 -0.2528  0.1892
 2995W        W19129  18.930  12.860  14.386  0.0178 -0.0740 -0.0258
 2996W        W19130   8.702  18.385  13.445  0.2160 -0.0008  0.1093
 2997W        W19131   8.358  17.307   5.688  0.1983 -0.2261  0.1733
 2998W        W19132   5.880   0.412   3.571 -0.0472  0.3520 -0.0004
 2999W        W19133   1.513   5.913   2.549  0.0660  0.2801 -0.2053
 3000W        W19134   7.960  18.620  11.525  0.1262 -0.2023 -0.0655
 3001W        W19135   3.677   3.067   4.055  0.0063 -0.0906  0.1414
 3002W        W19136  12.591  17.676  12.475  0.0112 -0.2353  0.1017
 3003W        W19137  18.634   7.724  11.624  0.1527 -0.0253  0.2605
 3004W        W19138   0.574  10.719  12.149  0.0343  0.0625 -0.3221
 3005W        W19139   2.788   3.342   2.159 -0.2917  0.4421  0.0355
 3006W        W19140   2.746  16.945   2.842 -0.0159  0.0588  0.1523
 3007W        W19141   0.634  10.257  11.697  0.1666  0.1816  0.2208
 3008W        W19142   1.601  11.768  10.924 -0.3952  0.2386 -0.2311
 3009W        W19143  13.736   6.568   4.743  0.3030  0.2450 -0.0460
 3010W        W19144   9.724   7.411   0.299  0.0400 -0.2210  0.0927
 3011W        W19145  19.033   9.527   1.365  0.2802  0.0908 -0.0486
 3012W        W19146   4.778   9.083  12.513  0.0903  0.1906  0.1465
 3013W        W19147   6.247   4.224  13.000 -0.0578 -0.1707 -0.1015
 3014W        W19148   0.804   0.882   1.234 -0.2028  0.2213  0.1341
 3015W        W19149  13.307   8.291  14.844  0.1995 -0.0656  0.3040
 3016W        W19150  14.786  14.088   0.978 -0.2523 -0.1771  0.0025
 3017W        W19151   8.754  16.056  12.807 -0.2788 -0.0017  0.1067
 3018W        W19152  18.550   0.480   3.551 -0.2245  0.0013 -0.5231
 3019W        W19153  11.746   9.392   4.659 -0.0104  0.0116  0.1080
 3020W        W19154   9.448  12.165  14.360  0.0829 -0.2553 -0.3611
 3021W        W19155   1.747  15.826   2.836  0.3610  0.2825 -0.0619
 3022W        W19156   6.742   4.823   3.698  0.0578 -0.0093  0.0639
 3023W        W19157   9.966  14.010   1.123  0.0775 -0.0313  0.0105
 3024W        W19158   4.606   5.986  12.887  0.2215 -0.1496  0.1060
 3025W        W19159   2.137   5.574  12.528  0.0912 -0.0512  0.3430
 3026W        W19160   9.792  13.759   3.370  0.0890 -0.1282  0.1821
 3027W        W19161   5.984  15.636   3.276 -0.1355  0.1313  0.3774
 3028W        W19162   4.895  15.121  11.951  0.3417 -0.2179  0.1058
 3029W        W19163   1.595  14.529   5.128 -0.0306  0.0744 -0.0251
 3030W        W19164  15.675   3.241   2.857  0.2884  0.0365  0.0814
 3031W        W19165  13.664  13.709  14.942  0.0028  0.1798  0.0543
 3032W        W19166  12.600  11.997  12.190  0.0958  0.1066 -0.0053
 3033W        W19167  18.074  10.280  12.579  0.2521 -0.0764 -0.2815
 3034W        W19168  14.870   0.778   4.830 -0.0568  0.1154  0.1365
 3035W        W19169  11.423   4.555   1.105 -0.2511  0.1786 -0.3576
 3036W        W19170  12.946  19.159   1.018 -0.1669 -0.2670 -0.1660
 3037W        W19171  13.918   5.640   4.726 -0.1422  0.2100  0.0540
 3038W        W19172  14.991   7.372   3.024  0.2155 -0.3614 -0.3909
 3039W        W19173  18.635   4.383   3.563 -0.4220 -0.0551 -0.0044
 3040W        W19174  11.855  15.225   1.459  0.0865  0.0073 -0.0677
 3041W        W19175   0.675  15.921   1.590 -0.2076 -0.0341  0.2310
 3042W        W19176   6.449  11.908   0.333  0.3769 -0.2035 -0.1609
 3043W        W19177   5.046   7.022   0.052 -0.1024 -0.2198 -0.0229
 3044W        W19178   9.879  10.880   0.176 -0.0626 -0.2903  0.3259
 3045W        W19179  17.629  18.686  13.096  0.0384 -0.0288 -0.4097
 3046W        W19180  18.396   8.431   4.926  0.4447  0.1056  0.2067
 3047W        W19181  13.314   1.328   5.089  0.2567 -0.0412  0.3278
 3048W        W19182  15.101  11.168   3.163  0.2093  0.2783  0.2207
 3049W        W19183  11.111   2.692  10.628 -0.0659  0.0549 -0.0262
 3050W        W19184   4.813  13.529   2.648  0.1986 -0.4987 -0.2310
 3051W        W19185   2.998  18.369  11.116  0.0641 -0.0627  0.0825
 3052W        W19186   6.495   1.934  11.094  0.0827  0.0246 -0.0893
 3053W        W19187  12.797  14.043  10.492 -0.0397  0.2561 -0.5376
 3054W        W19188  10.174   7.857  14.924 -0.1680 -0.0013 -0.0178
 3055W        W19189   6.326  18.335  12.271 -0.0124  0.0186  0.0111
 3056W        W19190   4.942   4.755   2.490 -0.0493  0.1567 -0.0976
 3057W        W19191   2.172   8.424   0.339  0.3456  0.1777 -0.1457
 3058W        W19192  17.773  19.313   1.515  0.0056  0.2102  0.2064
 3059W        W19193  10.672  17.211  13.225 -0.0664 -0.1537 -0.2256
 3060W        W19194   0.739  14.766   2.509  0.1621 -0.0536  0.0098
 3061W        W19195   7.069  12.307   4.743 -0.1668 -0.1102  0.0600
 3062W        W19196  13.344  12.049   3.205 -0.1024 -0.1206 -0.2436
 3063W        W19197   5.984  17.155  14.714  0.0259 -0.3589  0.0112
 3064W        W19198   1.853   6.841   4.130  0.1378  0.3602  0.0091
 3065W        W19199  18.614  16.832   3.445 -0.4902  0.3477  0.1393
 3066W        W19200   2.066  14.178  11.012  0.0861 -0.1647  0.0933
 3067W        W19201  17.570   0.087   3.612  0.0800  0.1862  0.0132
 3068W        W19202  11.818  15.458   2.025  0.1456 -0.1091 -0.2245
 3069W        W19203  13.796  18.706  14.133 -0.1972 -0.2327  0.1451
 3070W        W19204   4.739  14.499   2.555  0.1858 -0.2493  0.2527
 3071W        W19205   1.027   0.230   9.607 -0.0088 -0.0777 -0.2531
 3072W        W19206  19.343   4.108  10.571  0.1171  0.1923  0.1990
 3073W        W19207  12.933   7.012  12.066 -0.1905 -0.1155  0.1874
 3074W        W19208  17.238   2.355  11.679  0.1705 -0.1605 -0.0616
 3075W        W19209  16.900  15.054   2.284 -0.0777 -0.0205  0.0060
 3076W        W19210  16.151  16.004   2.885  0.1951  0.4580  0.0903
 3077W        W19211   5.310  18.491  10.682 -0.0141  0.1590 -0.3776
 3078W        W19212   5.454  18.564   2.136 -0.1946 -0.0548 -0.0612
 3079W        W19213   6.775  13.125  12.684  0.1104 -0.1148  0.0171
 3080W        W19214   7.307   7.334   3.833  0.1284  0.0231  0.0016
 3081W        W19215   3.004  13.545  14.606 -0.1152  0.1442 -0.1413
 3082W        W19216   4.991   4.772  11.780 -0.3095  0.1741 -0.1176
 3083W        W19217   8.176  16.463  14.365 -0.0755  0.0767 -0.1273
 3084W        W19218   3.937  16.023  14.150 -0.2998 -0.0964  0.0866
 3085W        W19219   4.648  16.495  10.157  0.0207 -0.0576 -0.4237
 3086W        W19220   7.137  13.967   0.451 -0.1255  0.2684 -0.0164
 3087W        W19221  12.094   4.758  11.715  0.0693 -0.2464  0.0361
 3088W        W19222  17.662   2.341   1.846 -0.0404 -0.1544 -0.1368
 3089W        W19223   0.765  11.383  11.196 -0.0426  0.0755 -0.0439
 3090W        W19224  14.818   2.257   2.422  0.1759 -0.0574 -0.1905
 3091W        W19225  14.952  13.942  14.254  0.0339  0.0005 -0.5123
 3092W        W19226  15.875   2.813   0.094  0.0152  0.1380 -0.0686
 3093W        W19227   5.620  16.991   3.415  0.1157  0.2109 -0.0889
 3094W        W19228  14.476  14.077   2.341  0.1600  0.2894  0.3033
 3095W        W19229  13.000  11.089   4.151  0.1919  0.2029  0.0576
 3096W        W19230   6.926  15.686   1.363  0.0526  0.1128  0.0713
 3097W        W19231   6.000  18.273   0.499  0.0945  0.1033 -0.2324
 3098W        W19232  11.909  17.478   0.589 -0.2117 -0.1166 -0.2304
 3099W        W19233   4.001  13.641  10.137 -0.0697 -0.1380 -0.2500
 3100W        W19234   5.102   3.239  10.834  0.3548  0.1160 -0.0710
 3101W        W19235   8.557   5.810   0.197 -0.2321  0.2265 -0.1692
 3102W        W19236  17.864   8.909   4.166 -0.1542 -0.0496  0.0421
 3103W        W19237  13.270  16.212   0.480 -0.1633 -0.2734 -0.2666
 3104W        W19238  10.444   1.522  10.903  0.3612 -0.1136  0.0299
 3105W        W19239   2.159  16.399  14.668  0.0014  0.2881  0.0808
 3106W        W19240  10.704  13.508  12.142 -0.0643 -0.0286  0.2738
 3107W        W19241  15.544   9.221  10.796  0.2884  0.2352  0.4277
 3108W        W19242  17.187  13.022  14.919 -0.2215 -0.0587 -0.0343
 3109W        W19243   6.452  14.791  12.947 -0.0867  0.0297  0.1086
 3110W        W19244   9.554   1.415  11.279 -0.0445 -0.0076 -0.1791
 3111W        W19245  18.380  12.163  13.844 -0.0824  0.3988 -0.1996
 3112W        W19246  19.025   1.155   2.327 -0.0304 -0.0028  0.1611
 3113W        W19247  12.282   4.204  11.191  0.4205 -0.1165  0.2770
 3114W        W19248   0.544  12.686  11.858 -0.3680  0.4959  0.0330
 3115W        W19249  14.433  12.625   4.335  0.2489  0.2070  0.2541
 3116W        W19250  15.156  18.872   0.476  0.1200 -0.1135 -0.1779
 3117W        W19251   0.879   0.971  11.764  0.2028 -0.0900 -0.0391
 3118W        W19252  17.012   7.799  13.648 -0.2607 -0.3444  0.0370
 3119W        W19253  18.750   3.020  13.048 -0.2655 -0.1234 -0.3462
 3120W        W19254   0.325  13.685  14.975 -0.2827  0.0606 -0.0742
 3121W        W19255   6.459   6.888  14.425  0.1051  0.2270  0.0035
 3122W        W19256   5.234   7.932  13.353 -0.0783  0.4104  0.4060
 3123W        W19257   3.122   2.648   0.777 -0.2039  0.2236 -0.3680
 3124W        W19258   8.050  17.328   1.215  0.3856 -0.1290  0.0541
 3125W        W19259  17.640  11.852   1.579 -0.2266  0.4564  0.3936
 3126W        W19260  11.209  18.626  12.516 -0.2485 -0.0774  0.1776
 3127W        W19261   4.632   5.265  14.499 -0.1262  0.1813 -0.2087
 3128W        W19262  15.228  11.032   4.608  0.0841  0.1620 -0.0503
 3129W        W19263   3.082  10.238  14.277  0.2355 -0.0422 -0.0497
 3130W        W19264  18.724  18.111   1.969  0.2745  0.1661 -0.2861
 3131W        W19265   5.151   9.130   0.427 -0.1662 -0.0390  0.2325
 3132W        W19266   2.119   6.250   2.937  0.1592  0.0158  0.2224
 3133W        W19267   0.118  18.607   2.270  0.2828  0.2055  0.1977
 3134W        W19268  11.211  15.160  14.056  0.2564 -0.2920 -0.3927
 3135W        W19269  14.794   3.245   5.189  0.0789  0.1596  0.3085
 3136W        W19270   8.271  18.574   1.816  0.1667 -0.1608 -0.1180
 3137W        W19271  13.168   4.331  14.808  0.1723  0.0754  0.2139
 3138W        W19272   7.493  16.701   3.364 -0.1973 -0.4300 -0.3400
 3139W        W19273  10.263   5.777   0.753  0.3031 -0.3228 -0.0333
 3140W        W19274  11.377   2.208  10.994  0.1289 -0.3688  0.2845
 3141W        W19275   3.423   4.622  12.272  0.0534 -0.2840 -0.1457
 3142W        W19276   1.820  17.876  10.685  0.1428 -0.4534 -0.1766
 3143W        W19277  10.342  13.909   2.312 -0.0365 -0.1259 -0.1194
 3144W        W19278   7.699  11.119  12.453 -0.0544  0.0529 -0.0923
 3145W        W19279   5.447   3.069  12.939  0.1567  0.2627 -0.0002
 3146W        W19280  15.254   2.265  10.412  0.0091 -0.0266  0.0609
 3147W        W19281  18.592   8.829  10.233  0.0520 -0.2455  0.0639
 3148W        W19282   9.663   3.574  11.525 -0.0171  0.1463  0.1677
 3149W        W19283   3.123  16.550  14.813 -0.4722 -0.0700  0.2178
 3150W        W19284  13.803   7.256  14.308  0.2782  0.2264 -0.1620
 3151W        W19285  14.926   3.508   3.380  0.0225  0.1739  0.0943
 3152W        W19286  14.639   6.142   1.609 -0.2836 -0.1899 -0.2936
 3153W        W19287   4.768  16.484   0.052 -0.0125  0.2848  0.1219
 3154W        W19288  14.426   7.016  11.757 -0.0628 -0.0178 -0.2061
 3155W        W19289   9.371   5.336  12.860  0.2799 -0.3695  0.4653
 3156W        W19290  17.299   8.934  12.743 -0.0350  0.2295  0.0784
 3157W        W19291  12.485   1.131   3.211  0.1070 -0.0280  0.2092
 3158W        W19292  16.918  18.131  13.611  0.0839 -0.0576  0.2271
 3159W        W19293   3.920  18.920   3.888 -0.1269 -0.2239  0.1114
 3160W        W19294  12.560   4.729   4.204  0.0119  0.0256  0.1437
 3161W        W19295   1.506   4.635   1.219 -0.1446 -0.1149 -0.2464
 3162W        W19296   2.042  12.304   2.335  0.0775 -0.1982  0.1410
 3163W        W19297  19.161   7.700   1.917  0.1699  0.0250 -0.1243
 3164W        W19298   3.230   9.922   2.104 -0.0111 -0.3375  0.3662
 3165W        W19299   9.921  17.996  12.743 -0.2734 -0.0966  0.2368
 3166W        W19300   6.255   6.448   1.569  0.3802 -0.1161 -0.2260
 3167W        W19301   0.595   5.685  12.651 -0.1313 -0.1446  0.2927
 3168W        W19302  12.032  16.310  14.413  0.1717  0.0145  0.3207
 3169W        W19303   3.069  12.871  10.805 -0.1250  0.1536  0.0034
 3170W        W19304   1.602  14.633  14.504  0.1529 -0.0321 -0.2342
 3171W        W19305  19.106   0.647   1.654  0.0436 -0.1529  0.1820
 3172W        W19306   7.518   9.376   0.320  0.3248 -0.2315 -0.1955
 3173W        W19307  15.639  17.169   2.667  0.0729  0.1929 -0.1168
 3174W        W19308  13.704  13.986  13.967 -0.0330 -0.1561 -0.1596
 3175W        W19309  16.605  13.503   3.850 -0.1175 -0.3255 -0.0183
 3176W        W19310  12.853   0.168   5.648  0.1455 -0.0392 -0.0059
 3177W        W19311  13.102   9.256  10.455  0.0360  0.4017  0.4565
 3178W        W19312  17.688  13.911   2.409  0.3813 -0.0652 -0.0139
 3179W        W19313  11.649  11.065  10.813  0.0051  0.0037 -0.1767
 3180W        W19314  12.774   5.843   1.234  0.3710 -0.2223 -0.1562
 3181W        W19315  17.354   4.607   1.830  0.2100  0.2585  0.3025
 3182W        W19316  15.242  15.963   9.794  0.0299 -0.1476 -0.0004
 3183W        W19317  12.282   3.359  12.125  0.2240  0.2079  0.1190
 3184W        W19318  13.686  17.429   5.097  0.1914 -0.0389  0.1856
 3185W        W19319  13.213  18.970   4.390 -0.0523  0.1238 -0.0448
 3186W        W19320   1.392   9.379   3.223 -0.3303 -0.0700 -0.1842
 3187W        W19321  12.104   0.608   5.377  0.1971  0.1847 -0.2351
 3188W        W19322   5.665   0.298   1.415 -0.4047 -0.3669  0.0557
 3189W        W19323   8.551  12.000   1.563 -0.0636 -0.1644 -0.1221
 3190W        W19324  12.197  18.041  12.188  0.3214  0.0688 -0.0500
 3191W        W19325  10.666   1.692   1.762  0.1161  0.1075  0.0283
 3192W        W19326   7.313  16.581   2.856  0.1733  0.3235  0.1200
 3193W        W19327  11.489  12.774   3.777 -0.0368  0.0524 -0.2007
 3194W        W19328  14.805  17.965  12.126  0.1428 -0.0597 -0.0791
 3195W        W19329  11.906   1.944  10.882 -0.2755 -0.0204  0.0984
 3196W        W19330  12.787   6.278   0.437  0.0941  0.2336  0.0474
 3197W        W19331  12.991   8.635   0.383  0.0059  0.0064 -0.4442
 3198W        W19332  17.086   3.021  13.458  0.0537  0.1277  0.1835
 3199W        W19333   6.644  18.222  11.906 -0.0418  0.0977  0.1497
 3200W        W19334   9.890  10.283   2.691 -0.1474 -0.0110  0.1415
 3201W        W19335  15.479  18.249   5.036  0.1076  0.1594 -0.0009
 3202W        W19336   2.642   6.081  14.588  0.1636 -0.4472 -0.1239
 3203W        W19337   9.199  13.165   4.153 -0.0098 -0.2925  0.0398
 3204W        W19338  13.578   5.437   5.071 -0.2623  0.2508  0.1676
 3205W        W19339  11.114   6.125  12.820  0.1128 -0.3079  0.1539
 3206W        W19340   7.693   2.437  13.653 -0.1148 -0.1841  0.3266
 3207W        W19341  17.267  15.843   0.414  0.0543 -0.0737  0.0974
 3208W        W19342  17.234  17.256  11.331 -0.0293  0.1099 -0.3521
 3209W        W19343   2.701   4.935  11.828  0.1604 -0.1451  0.7546
 3210W        W19344   6.014  18.211   4.765 -0.0158 -0.3582  0.2659
 3211W        W19345   1.052  18.645   1.344 -0.1202  0.0114 -0.1918
 3212W        W19346  14.831  19.190   2.264 -0.0165 -0.3174 -0.0267
 3213W        W19347  13.311  14.290  12.006 -0.1606  0.1095 -0.3164
 3214W        W19348  12.390  17.030   1.869 -0.0336 -0.1029  0.3965
 3215W        W19349  10.015   7.997   2.644 -0.2806  0.1979  0.0809
 3216W        W19350   6.648   2.528  13.215  0.1687  0.0778  0.1196
 3217W        W19351   9.108   4.435  11.194 -0.1717  0.0210 -0.0735
 3218W        W19352  18.603   6.182  13.720 -0.2390 -0.0272  0.1060
 3219W        W19353   4.198  18.041  12.819  0.0329 -0.3554  0.1543
 3220W        W19354   5.151  18.983   4.508 -0.3169  0.1409 -0.4193
 3221W        W19355   3.787  19.113  14.006 -0.1873  0.1456 -0.0537
 3222W        W19356  11.125   6.668  12.110 -0.2267 -0.1806  0.3187
 3223W        W19357   3.893  19.156  10.586  0.0351 -0.3403 -0.1426
 3224W        W19358  12.595  19.133  14.845 -0.1501  0.0189 -0.3208
 3225W        W19359  14.421   2.404   2.114  0.0245  0.0168  0.1572
 3226W        W19360  11.421   7.966  12.908  0.1662 -0.0040  0.2558
 3227W        W19361  10.843  11.227  13.655  0.0960 -0.0022 -0.0230
 3228W        W19362  17.664   3.910  12.296  0.1061 -0.1392 -0.1020
 3229W        W19363  10.948   7.205   2.340  0.1095 -0.0238 -0.2196
 3230W        W19364  15.827   0.152   5.643 -0.2705 -0.3183 -0.0782
 3231W        W19365   5.765  15.041   5.352 -0.1818  0.1572  0.2618
 3232W        W19366  18.561   8.354  12.598 -0.3237  0.0151 -0.2422
 3233W        W19367  16.463   6.309   8.922 -0.0311  0.1477 -0.3171
 3234W        W19368  14.861  14.372  12.847  0.0230 -0.1103 -0.3699
 3235W        W19369   7.296   3.345   9.602 -0.2143 -0.0434  0.2431
 3236W        W19370  12.593  18.131   4.121 -0.2161 -0.0195  0.3450
 3237W        W19371   3.058   5.191   4.349  0.0713 -0.2946 -0.6619
 3238W        W19372   9.102  10.679   3.456 -0.0227 -0.3157 -0.2629
 3239W        W19373   9.961   6.056  11.741 -0.1954 -0.0263  0.2134
 3240W        W19374  17.610   2.059  10.571  0.1811 -0.1237 -0.3731
 3241W        W19375  11.616   5.134   1.753  0.1324 -0.0239 -0.0292
 3242W        W19376   9.066   9.740  12.915 -0.0543  0.0273  0.1019
 3243W        W19377  14.039   2.842  11.404  0.2446 -0.0782  0.2038
 3244W        W19378  16.980   4.774   0.282 -0.1162 -0.0398 -0.0598
 3245W        W19379  18.672  14.336   2.827 -0.0829 -0.0171 -0.1453
 3246W        W19380   9.089   6.491   3.863 -0.2953 -0.2532  0.3418
 3247W        W19381   2.584   1.361  14.089 -0.0993  0.0296 -0.2309
 3248W        W19382  18.257  10.304   1.010 -0.1374  0.2677 -0.1960
 3249W        W19383   1.540   8.336  13.776 -0.4667  0.2961  0.1667
 3250W        W19384  11.816  13.761   4.766  0.0662 -0.2897 -0.2177
 3251W        W19385  10.605   4.369  11.830  0.0608  0.0872  0.2213
 3252W        W19386  19.125   0.174   0.263 -0.1781 -0.2830  0.0739
 3253W        W19387  13.271  16.505   5.656  0.2876  0.0225 -0.0798
 3254W        W19388  18.679   7.550   2.494  0.1599  0.1800 -0.4522
 3255W        W19389   8.128  14.908   1.185  0.1124  0.1922  0.3855
 3256W        W19390  16.047   5.045   1.613 -0.3041 -0.5293 -0.2602
 3257W        W19391   8.369  19.141   4.485 -0.3286  0.4623 -0.0291
 3258W        W19392   8.123   8.890   4.905  0.2180  0.0436  0.0058
 3259W        W19393   1.600  13.159   2.267 -0.1081  0.3089 -0.1099
 3260W        W19394  16.390  10.253  13.773  0.0710 -0.0687  0.0702
 3261W        W19395  16.758   2.400  13.031  0.1239  0.1171  0.2044
 3262W        W19396   2.098  11.979  11.048 -0.0384 -0.1439  0.1129
 3263W        W19397   2.153   7.984   8.824  0.0187 -0.1253 -0.2231
 3264W        W19398   4.929   3.670  11.085 -0.1140  0.4642  0.1094
 3265W        W19399  16.645  13.677  12.894 -0.0042 -0.1450 -0.5473
 3266W        W19400   3.662  17.775  10.293 -0.3835  0.3298  0.1573
 3267W        W19401  13.567   7.433  11.887  0.0100  0.0153  0.0823
 3268W        W19402  18.570  16.824   4.292 -0.0103  0.0143 -0.2321
 3269W        W19403   6.062   0.495  14.765  0.0252 -0.2560  0.1650
 3270W        W19404   4.694   4.838  14.814 -0.1137  0.0168 -0.2007
 3271W        W19405   4.983   2.515   3.163  0.1116  0.0688 -0.3390
 3272W        W19406   0.475  12.910  10.617 -0.2654  0.3180 -0.0400
 3273W        W19407   2.914   2.124  10.252  0.1417 -0.1488 -0.4454
 3274W        W19408   3.567  11.719  14.657 -0.4180  0.0549 -0.1049
 3275W        W19409   1.371  13.375  11.615 -0.1908 -0.2976  0.0658
 3276W        W19410   1.451   5.263   1.414  0.0906  0.2289 -0.0763
 3277W        W19411   9.655   0.383   3.809  0.2022  0.1010 -0.1881
 3278W        W19412  18.209   6.443   0.521  0.1558  0.2603  0.1885
 3279W        W19413  19.102   4.324  12.142 -0.0215  0.0783  0.1914
 3280W        W19414   8.246  19.323   3.682  0.0518 -0.6708  0.1692
 3281W        W19415  13.279   1.048   4.065 -0.2786 -0.1448  0.3248
 3282W        W19416   5.813   8.558   3.291  0.1006 -0.1482  0.0611
 3283W        W19417  16.586  13.468  11.870  0.4382 -0.1666  0.2063
 3284W        W19418  10.521  13.192   3.370  0.1847 -0.2962  0.0893
 3285W        W19419   0.136   6.948   1.472  0.0316 -0.1604 -0.0765
 3286W        W19420  17.768   5.918   1.051  0.1478 -0.0282  0.0581
 3287W        W19421  12.985  15.637  13.864  0.0912  0.0439 -0.0736
 3288W        W19422  12.437  12.511  12.216 -0.0956  0.0835 -0.0114
 3289W        W19423   5.865  16.106   3.038  0.0295 -0.0408 -0.0684
 3290W        W19424   7.423   5.391  12.561 -0.2281 -0.1825 -0.0018
 3291W        W19425  19.341   5.629   0.735  0.1480 -0.2875  0.3638
 3292W        W19426   1.644   8.605   4.769 -0.2772  0.1662 -0.1901
 3293W        W19427  15.442   8.888   0.611  0.1687 -0.1396 -0.2191
 3294W        W19428  10.606  18.446   2.720  0.0982 -0.1763  0.3161
 3295W        W19429   7.816  15.952  12.989 -0.2810 -0.1278 -0.1627
 3296W        W19430  18.184  15.322  13.141 -0.1665  0.1604 -0.0004
 3297W        W19431  11.546   1.048  11.162 -0.1118  0.1805  0.0403
 3298W        W19432   5.770   2.385   1.752 -0.1258 -0.2334 -0.1008
 3299W        W19433  15.688   8.754  10.949  0.0229  0.0481 -0.3811
 3300W        W19434  17.157  11.894   1.693 -0.0802  0.3262 -0.0097
 3301W        W19435   6.852  13.372  14.460 -0.0416  0.0947 -0.2062
 3302W        W19436  12.173   7.725   2.109  0.0568 -0.3337  0.2448
 3303W        W19437   5.676  18.912   2.935 -0.0196 -0.2738 -0.0418
 3304W        W19438  16.190   3.371  11.800 -0.0062  0.0547 -0.4449
 3305W        W19439   8.727  13.030  12.854 -0.1827  0.3936 -0.2121
 3306W        W19440   5.540  15.995  14.197  0.1108 -0.2148  0.1333
 3307W        W19441  14.693   0.416  14.318  0.3510 -0.1705  0.0803
 3308W        W19442  15.111  12.886  11.349 -0.0168  0.1255  0.0031
 3309W        W19443   6.005  14.678   2.621  0.2887 -0.3631 -0.1223
 3310W        W19444  14.268  17.239  12.009  0.0287  0.0413 -0.0123
 3311W        W19445  15.868  16.872   5.542  0.2698  0.1301 -0.1104
 3312W        W19446  15.462  15.026   0.826  0.0407 -0.1771  0.0631
 3313W        W19447  14.431  13.649   1.526 -0.0778 -0.0725  0.3585
 3314W        W19448   7.340  11.200  13.632 -0.3046 -0.1679 -0.1169
 3315W        W19449   8.372   1.282   1.872 -0.1597 -0.2265 -0.0538
 3316W        W19450  14.034   4.770  13.727  0.3100 -0.0012  0.0554
 3317W        W19451  13.654   3.524   1.793 -0.2134  0.0242 -0.1198
 3318W        W19452  14.247   4.878   4.112  0.1981  0.1471  0.1062
 3319W        W19453  10.780  17.326   4.076  0.0646 -0.2316  0.1036
 3320W        W19454  12.249   0.993   4.381  0.0169 -0.0237 -0.3450
 3321W        W19455  12.846   2.740   3.168  0.0598 -0.1689 -0.1754
 3322W        W19456   1.664  11.408   8.860  0.0707  0.2532  0.1943
 3323W        W19457   7.036  15.220  10.403 -0.0232 -0.0564 -0.4459
 3324W        W19458  18.751  18.710  11.863 -0.0281 -0.2140  0.1560
 3325W        W19459   8.827   6.195  12.510 -0.1117 -0.2868 -0.1483
 3326W        W19460  13.951  11.669   4.791  0.2644 -0.1151  0.1931
 3327W        W19461   7.138   7.983  10.369  0.2006 -0.2812 -0.2067
 3328W        W19462  10.735  13.812  12.946 -0.0092 -0.1226 -0.0150
 3329W        W19463   8.069  14.123   4.287 -0.2845  0.3002 -0.0268
 3330W        W19464   2.731   6.573   4.096  0.0202 -0.3161  0.3707
 3331W        W19465  16.864   9.273   0.543  0.0677  0.0041  0.1677
 3332W        W19466  13.921   2.067   2.120 -0.1385 -0.1458  0.1644
 3333W        W19467  15.655  14.613   0.693 -0.3226  0.3094  0.3115
 3334W        W19468  16.431   2.082  11.133  0.1192  0.1962  0.2964
 3335W        W19469   6.000   8.794  14.469  0.0175  0.0999  0.2084
 3336W        W19470   7.129   6.141   3.694  0.0865 -0.0834  0.0359
 3337W        W19471  14.489   6.516   5.351 -0.2083 -0.1789 -0.2208
 3338W        W19472   5.205   4.584  14.975 -0.0514 -0.1610 -0.0802
 3339W        W19473   6.097  18.195   3.746 -0.1980 -0.0219 -0.3332
 3340W        W19474   2.020  18.002  11.982 -0.1100  0.0489 -0.2329
 3341W        W19475  12.324  17.397   5.424  0.1524 -0.1103  0.0038
 3342W        W19476   2.038   1.548  12.079 -0.1158 -0.1313  0.0585
 3343W        W19477  17.857  12.355  11.295 -0.0385  0.0542 -0.2289
 3344W        W19478   5.556  10.581  14.936 -0.1866  0.3486  0.0930
 3345W        W19479  18.789  12.881  12.676  0.1851 -0.1977  0.1070
 3346W        W19480   5.443   1.471   4.102  0.1621 -0.2917  0.1106
 3347W        W19481  13.499  15.489  14.828 -0.1838 -0.0771  0.1286
 3348W        W19482  14.336   9.585   3.440  0.0171  0.2729  0.1118
 3349W        W19483   4.066  13.116   2.641 -0.2846 -0.5393 -0.2556
 3350W        W19484  11.250   6.571  13.044 -0.2426  0.0848  0.0191
 3351W        W19485   0.664   9.234   3.511  0.2223 -0.0220 -0.0001
 3352W        W19486   9.342  12.380   0.810  0.1107 -0.0550  0.0549
 3353W        W19487   7.830   6.194  12.360 -0.1377 -0.0770 -0.0158
 3354W        W19488  18.483   7.214   0.233 -0.0176 -0.0615 -0.0918
 3355W        W19489   2.215  13.993   0.358  0.3395  0.3193 -0.2170
 3356W        W19490   0.504   2.730  12.309 -0.2653 -0.2082 -0.2868
 3357W        W19491  18.437   4.917   1.895  0.0043 -0.0697  0.5608
 3358W        W19492  10.607  15.692   0.546 -0.0475 -0.1284  0.0660
 3359W        W19493   3.270   5.839   0.994  0.3388 -0.0635  0.0018
 3360W        W19494   8.786  12.834  12.420  0.1070  0.3338 -0.0373
 3361W        W19495  10.266   7.740  14.404 -0.2884 -0.0811  0.0660
 3362W        W19496   5.909   5.286   3.020  0.0424 -0.0942 -0.3380
 3363W        W19497   9.402   4.561  14.340 -0.4012 -0.0231 -0.3303
 3364W        W19498  13.906  11.152  11.780  0.2050 -0.1471 -0.1214
 3365W        W19499  14.694  15.441  13.874  0.1332  0.0396 -0.5112
 3366W        W19500  19.037   3.262   0.368 -0.0061 -0.0121  0.0597
 3367W        W19501  17.724   0.137   2.068  0.2616  0.2234  0.1577
 3368W        W19502   0.169   4.323   5.085 -0.0416  0.3423 -0.2230
 3369W        W19503   9.886   1.621  13.833  0.0775  0.0506 -0.0237
 3370W        W19504  12.923   9.507   4.233  0.0559  0.1735 -0.1852
 3371W        W19505   3.223  10.901   2.416  0.0786 -0.2096  0.2561
 3372W        W19506  10.143  11.384   1.359 -0.0048 -0.4617  0.1520
 3373W        W19507   4.439   9.811  12.806 -0.0437 -0.2941 -0.1321
 3374W        W19508  13.158   8.247   1.164  0.2163  0.2232  0.2209
 3375W        W19509  18.939  11.224  11.830  0.2927 -0.0859  0.0139
 3376W        W19510   6.859  19.181  10.508 -0.0513 -0.2295  0.1977
 3377W        W19511  14.621   1.418  11.794 -0.3081 -0.0149  0.2200
 3378W        W19512  12.902  16.312   0.886  0.0716  0.0183  0.1002
 3379W        W19513   4.368  14.567  13.934  0.0327  0.1513  0.1770
 3380W        W19514  11.853   2.277  13.480 -0.3916  0.0875 -0.2154
 3381W        W19515  10.142   0.275   0.177  0.2029  0.1616 -0.5016
 3382W        W19516  11.110  11.818  14.853  0.3094  0.3579 -0.0029
 3383W        W19517   4.368  10.069   5.032 -0.2431  0.2268  0.1114
 3384W        W19518   6.699   7.886   2.675  0.0780  0.0305  0.1179
 3385W        W19519   5.044   7.345   3.269  0.0543  0.0285  0.1185
 3386W        W19520   9.362   7.301   0.549  0.0646  0.2650 -0.3054
 3387W        W19521   7.838  14.284  11.625  0.2914  0.3196  0.0520
 3388W        W19522   6.942   3.251  11.648 -0.1448 -0.2548 -0.0464
 3389W        W19523  12.036   3.386  14.412 -0.0174 -0.3182 -0.2500
 3390W        W19524   6.570  14.985   4.993 -0.2227  0.1431  0.3667
 3391W        W19525   6.019  17.494  14.354 -0.1507 -0.0401  0.0020
 3392W        W19526   0.571   3.917   5.294 -0.2907 -0.1752  0.0812
 3393W        W19527   4.736  19.116  12.856  0.1510 -0.1010  0.1164
 3394W        W19528   6.201  12.996  14.136  0.3175 -0.1437  0.3319
 3395W        W19529   9.019  19.108   0.744  0.1791  0.1000  0.2106
 3396W        W19530  11.317  15.266  14.551 -0.3901  0.3339  0.3126
 3397W        W19531   3.614  14.620   3.346  0.1579  0.0892 -0.0168
 3398W        W19532  10.296   8.591   3.201 -0.1419 -0.1384 -0.1896
 3399W        W19533  11.573   4.013  14.269 -0.1989 -0.2338 -0.1988
 3400W        W19534  18.312   9.588  12.159 -0.0244 -0.1098  0.0428
 3401W        W19535   6.345   9.472   2.967  0.1322 -0.2002 -0.0559
 3402W        W19536  19.071  15.445  12.644  0.0233 -0.0613 -0.0072
 3403W        W19537   0.260  10.928  10.756 -0.0440  0.0062 -0.0930
 3404W        W19538   5.397   7.264   1.214 -0.0555  0.0369 -0.1772
 3405W        W19539   9.329  15.263   5.182 -0.1502 -0.0090 -0.3113
 3406W        W19540   0.981   4.390  11.799 -0.1763 -0.2764 -0.0532
 3407W        W19541   3.108   2.233  14.305 -0.1827 -0.2102 -0.0671
 3408W        W19542   5.193  12.247  12.915 -0.0284  0.0262 -0.2300
 3409W        W19543   8.648   5.948  11.271  0.1775 -0.0432 -0.1492
 3410W        W19544   1.446   2.459  12.237  0.1956  0.0142  0.0630
 3411W        W19545  19.050  18.485  14.651  0.3516 -0.0045  0.0509
 3412W        W19546  15.810   9.986  12.056 -0.1187 -0.0978  0.0748
 3413W        W19547   8.569  16.320  13.370  0.1371  0.0978  0.1550
 3414W        W19548   7.739   8.271  13.344 -0.3068  0.3296 -0.0263
 3415W        W19549   1.431   1.625   1.008  0.0969 -0.2315 -0.0545
 3416W        W19550  14.422  17.361  13.222 -0.2801  0.5086  0.4230
 3417W        W19551   3.363  14.356   2.019  0.2844  0.1966  0.3515
 3418W        W19552  17.071   4.424   2.235  0.2019  0.2633  0.2549
 3419W        W19553  15.148  16.984  14.848  0.1418  0.2873 -0.0338
 3420W        W19554   0.435  10.712   0.663 -0.1140 -0.0095  0.0091
 3421W        W19555  14.674   1.346   2.452 -0.0497 -0.1599 -0.0515
 3422W        W19556  19.010   6.974   0.558 -0.0380  0.7008 -0.1399
 3423W        W19557   7.418  14.274   0.744 -0.0653 -0.2641 -0.1332
 3424W        W19558  14.660   5.614  13.615 -0.2949 -0.0056  0.1139
 3425W        W19559  17.785   5.356   9.958  0.2258 -0.1095  0.0394
 3426W        W19560   7.763   2.860  13.097 -0.1509  0.4212 -0.0631
 3427W        W19561   7.021  18.744  12.714  0.0588  0.0301 -0.1513
 3428W        W19562  18.200   8.151   5.397 -0.0936 -0.0576 -0.0621
 3429W        W19563   0.821  11.251  12.844 -0.1363 -0.0539 -0.0820
 3430W        W19564  15.395   1.495   5.208  0.2167  0.1225 -0.0248
 3431W        W19565   3.048  17.624  11.964  0.1906  0.2689 -0.0039
 3432W        W19566  13.122  11.383   2.080  0.1035  0.0235  0.2897
 3433W        W19567  12.038  12.301  11.255  0.1128  0.1614  0.0570
 3434W        W19568   8.756   4.862   1.696 -0.1251 -0.1179  0.1659
 3435W        W19569   1.869  10.121  11.413 -0.3413 -0.1566  0.2215
 3436W        W19570   0.895   3.209   3.898  0.0436 -0.0310 -0.0342
 3437W        W19571   5.717  18.236   4.143  0.0082  0.0345  0.1947
 3438W        W19572  10.432  10.595   0.896  0.2881  0.2385  0.3134
 3439W        W19573  16.027   8.456  12.854  0.0908  0.2266 -0.3768
 3440W        W19574   2.858  18.322  12.204  0.0046  0.0018 -0.2496
 3441W        W19575  10.235  11.196   2.661 -0.0936  0.1258  0.2884
 3442W        W19576   5.275  10.892   0.204  0.0725 -0.1192  0.5288
 3443W        W19577   3.126   0.887  11.037 -0.1623  0.1998 -0.1771
 3444W        W19578   4.889  19.258  12.402  0.1593  0.2229  0.1318
 3445W        W19579  17.895   0.878   4.996  0.3250  0.3142 -0.2355
 3446W        W19580   4.513  18.791   1.823  0.0545  0.0946 -0.3976
 3447W        W19581   9.415   9.669  10.312 -0.2622  0.1024 -0.1473
 3448W        W19582   6.587  15.605  12.323  0.0656 -0.2651  0.0967
 3449W        W19583   7.651  19.215   1.571  0.1109  0.1079 -0.0192
 3450W        W19584   7.584   9.134   4.070  0.2632  0.1412 -0.4913
 3451W        W19585   1.431   5.073   0.083 -0.0562  0.2923  0.2873
 3452W        W19586  12.812  12.515  11.295 -0.4885 -0.3522 -0.4320
 3453W        W19587  14.733  17.624   2.371  0.2810 -0.0321  0.0823
 3454W        W19588  19.052   4.902   3.935  0.3213  0.0741  0.0414
 3455W        W19589  12.183   8.348   0.437  0.1182  0.0919  0.0076
 3456W        W19590   6.747  11.373   4.897  0.6618 -0.0425  0.0344
 3457W        W19591   8.879   3.355  10.699  0.1537  0.2664  0.0960
 3458W        W19592   9.422  16.560  10.804  0.2421 -0.0580  0.2190
 3459W        W19593   5.702  17.097   5.236 -0.0083  0.0139 -0.0595
 3460W        W19594   8.599   7.734  13.699  0.2681  0.0516 -0.2162
 3461W        W19595  17.403  16.954   0.277  0.1507  0.1356 -0.1338
 3462W        W19596  13.563   2.004  10.487  0.0733  0.1474 -0.1299
 3463W        W19597   9.637   2.474   2.587  0.0953 -0.1506  0.2523
 3464W        W19598   1.403  17.052   2.007  0.0361 -0.2182  0.1609
 3465W        W19599   0.874  18.106  14.945  0.2249 -0.1432 -0.2932
 3466W        W19600  15.237  19.257  12.738 -0.0285 -0.0939 -0.0463
 3467W        W19601   4.528  18.435  13.541 -0.0566  0.1377 -0.0567
 3468W        W19602  14.544   0.534   4.535 -0.0471 -0.1216  0.0780
 3469W        W19603  14.476  10.293  10.837 -0.5254 -0.3070 -0.1789
 3470W        W19604  17.131   2.851   0.470  0.2511 -0.1860  0.2203
 3471W        W19605  15.280  16.914  10.978 -0.2413  0.2199  0.0876
 3472W        W19606  14.238   3.270  10.136 -0.3891 -0.2198  0.0167
 3473W        W19607   0.976  16.890  13.119 -0.2174 -0.0872 -0.0454
 3474W        W19608  15.706  19.282   1.821 -0.4447 -0.0678  0.0171
 3475W        W19609   8.588  10.533   5.854  0.0981 -0.0849  0.2569
 3476W        W19610   5.058  12.501   9.606 -0.3038  0.2344  0.0631
 3477W        W19611  15.573   3.700  13.494  0.2338 -0.2485 -0.0231
 3478W        W19612  16.931   0.219  14.600 -0.1059  0.0222 -0.1495
 3479W        W19613   6.039  17.240   0.612 -0.0395  0.3820 -0.0295
 3480W        W19614  15.939   4.190   1.311 -0.0023 -0.1168  0.1598
 3481W        W19615  11.063   6.603   3.083 -0.0191 -0.0873  0.1499
 3482W        W19616   1.225  10.931   1.455  0.0337 -0.2689  0.0685
 3483W        W19617  12.386  15.122  11.223  0.2044 -0.0792 -0.0801
 3484W        W19618  10.956  16.686   2.583  0.0730 -0.2691  0.5597
 3485W        W19619   6.762   0.721   3.123 -0.1273 -0.2319 -0.1305
 3486W        W19620   7.758   8.893  13.778  0.2240  0.0779 -0.2376
 3487W        W19621  13.063  15.175  12.599  0.2458 -0.0201  0.0630
 3488W        W19622   7.609  18.991  14.452  0.2322  0.1338  0.0875
 3489W        W19623   8.596  19.223   0.567 -0.1462 -0.1446  0.0498
 3490W        W19624  10.424   5.749   3.313 -0.3168  0.2093 -0.0971
 3491W        W19625  10.821   5.800  10.262  0.0823  0.1079 -0.0821
 3492W        W19626  14.745   3.037   1.870  0.0581  0.0930  0.1212
 3493W        W19627  15.193   4.464   3.264  0.0399  0.0263 -0.4115
 3494W        W19628   6.494  16.628  12.298 -0.1367  0.1643 -0.1898
 3495W        W19629   1.760   8.593   0.744  0.0596 -0.3364  0.1906
 3496W        W19630  10.467  11.363   0.402 -0.0832  0.1761 -0.0029
 3497W        W19631  17.735   5.861  10.202  0.2471 -0.3009 -0.4120
 3498W        W19632   8.343   9.908   0.099 -0.0922 -0.1188  0.1202
 3499W        W19633  17.983   7.670  14.568 -0.1843  0.0033 -0.1727
 3500W        W19634   1.794  10.575   2.465 -0.0077 -0.1046  0.0128
 3501W        W19635  18.111   2.696   2.639 -0.1345 -0.0041 -0.2080
 3502W        W19636  13.708  18.884   4.217 -0.2130 -0.2041 -0.2406
 3503W        W19637   3.528   7.801  12.241 -0.0900  0.0632 -0.3391
 3504W        W19638  11.559  10.297  14.189 -0.1654  0.1168 -0.1223
 3505W        W19639   7.107   1.236   2.751 -0.2914 -0.1412 -0.0225
 3506W        W19640   7.288   9.937  13.541 -0.0689  0.2457  0.1266
 3507W        W19641  17.030   3.536  11.663 -0.0562 -0.0293  0.4614
 3508W        W19642  12.338   5.392  10.683  0.0601  0.3538 -0.2097
 3509W        W19643  10.035   4.635   2.146 -0.2372 -0.1014 -0.0459
 3510W        W19644  13.798  18.978   0.626  0.2064 -0.3366 -0.3358
 3511W        W19645   6.775   6.661   2.099  0.2350  0.1717  0.1143
 3512W        W19646   9.052  11.412   5.553  0.2528 -0.3745 -0.0048
 3513W        W19647  10.611   2.585  12.428  0.1419  0.0619 -0.0851
 3514W        W19648  17.263  14.196  13.859  0.2238 -0.3496  0.0262
 3515W        W19649  18.745   4.897   1.507  0.2284 -0.1913  0.0102
 3516W        W19650   5.653   1.843  10.466 -0.0450  0.1500 -0.0644
 3517W        W19651   2.636  11.476   1.669 -0.1412 -0.1592 -0.2662
 3518W        W19652   6.407   0.852  12.197 -0.1375  0.2820 -0.2186
 3519W        W19653   4.431   8.957  13.846  0.2134  0.0302  0.1423
 3520W        W19654   8.381  14.598   3.591  0.0603 -0.1481 -0.3566
 3521W        W19655  11.207  14.001  11.215  0.0064  0.2101  0.0654
 3522W        W19656   4.996   1.189   1.590 -0.2090 -0.0001 -0.2075
 3523W        W19657  12.034  14.969   1.832  0.3874 -0.1375 -0.0775
 3524W        W19658  13.487   5.789  11.523  0.3056 -0.4215 -0.0590
 3525W        W19659  13.169   9.058   1.173  0.0746  0.3484  0.1773
 3526W        W19660  16.479   3.903  13.049 -0.2827  0.0389 -0.0226
 3527W        W19661   1.436   7.758   1.598 -0.3421 -0.1393  0.1718
 3528W        W19662   6.767   8.701   3.091  0.0260 -0.1257  0.0378
 3529W        W19663  16.044   7.546   3.937  0.2502 -0.0743 -0.0481
 3530W        W19664  15.335   7.834   0.560  0.3880  0.1412 -0.1472
 3531W        W19665  18.901   7.770   3.990 -0.1832  0.2267  0.2135
 3532W        W19666  15.121  15.839  12.816  0.3488  0.1002  0.0412
 3533W        W19667   2.629  10.372  11.594  0.2476 -0.1882 -0.2898
 3534W        W19668   2.079   3.510   9.009  0.1248  0.1522  0.0588
 3535W        W19669  11.616  13.243  13.320 -0.3215 -0.2517 -0.1546
 3536W        W19670   6.294   1.165   2.411  0.0628 -0.2146  0.1981
 3537W        W19671  15.262  14.070   0.100  0.1433  0.0252  0.0896
 3538W        W19672  16.896   9.097   2.493  0.1934 -0.2768  0.1887
 3539W        W19673  11.362   6.569  12.507 -0.1830 -0.1230  0.1160
 3540W        W19674  10.545  18.229  14.317 -0.0763  0.2571 -0.0290
 3541W        W19675   3.301  12.806   2.594 -0.0238 -0.0815 -0.0690
 3542W        W19676  13.138  10.489  11.804 -0.0115 -0.1273  0.1994
 3543W        W19677  12.133   9.692  10.723 -0.0980  0.2703 -0.2020
 3544W        W19678   2.225  12.396  10.827  0.2953  0.3786 -0.2325
 3545W        W19679   5.358   1.194   0.253  0.2140 -0.2212  0.1624
 3546W        W19680  10.878   5.272  10.928 -0.3102 -0.2356 -0.0691
 3547W        W19681   0.161  17.627   3.100  0.0176  0.0991 -0.0257
 3548W        W19682   4.850   1.276  14.955 -0.0035  0.1620 -0.1296
 3549W        W19683   1.411  12.625   2.974 -0.0890  0.0320  0.3757
 3550W        W19684  15.471   4.484   2.469  0.2149  0.1387  0.2442
 3551W        W19685   2.091  18.326  14.318  0.1379 -0.1509 -0.2559
 3552W        W19686  18.216   2.103   4.881 -0.0389  0.0486 -0.2333
 3553W        W19687  10.294   8.876  10.539  0.3157 -0.0804  0.2156
 3554W        W19688  11.334  17.128   4.862  0.1255  0.1798  0.4436
 3555W        W19689   1.937   1.678   2.189  0.0467  0.2017  0.0258
 3556W        W19690  19.286   3.178   4.422 -0.1139  0.3441  0.0928
 3557W        W19691  10.624   0.314   9.872 -0.0666 -0.0145  0.0308
 3558W        W19692  13.086  10.955  13.039  0.2240 -0.4453  0.3967
 3559W        W19693  16.438  10.558   2.277  0.0437 -0.0516 -0.0444
 3560W        W19694   0.358   3.753   2.476 -0.0136 -0.3354 -0.0498
 3561W        W19695  11.709   8.861   3.128  0.2322  0.1973  0.3358
 3562W        W19696  13.271  11.457  10.165 -0.0525 -0.3178  0.3324
 3563W        W19697  15.180  14.470  13.320  0.3242  0.0547  0.4680
 3564W        W19698   8.480   9.298   2.020  0.0804  0.3733  0.1744
 3565W        W19699   8.358  13.675  13.219 -0.1794  0.1274 -0.1075
 3566W        W19700  15.174   8.564  11.405  0.1074  0.2064  0.2729
 3567W        W19701   1.163  14.469   2.109 -0.0586  0.1528 -0.1693
 3568W        W19702  11.354  18.209   3.943  0.3618 -0.1713  0.0058
 3569W        W19703  18.191  14.436  10.584 -0.2484 -0.0473 -0.1604
 3570W        W19704   1.691  18.625  14.116 -0.1352 -0.3508  0.1102
 3571W        W19705  11.441   8.777   1.819 -0.1417 -0.1051 -0.0247
 3572W        W19706  11.229  13.343  13.624 -0.1588  0.1808 -0.2525
 3573W        W19707   6.138   8.292  10.376 -0.0616 -0.2597  0.3270
 3574W        W19708   8.028   7.242  11.323  0.2013  0.0383  0.0453
 3575W        W19709  18.482   9.482   4.426 -0.1497 -0.0869 -0.3956
 3576W        W19710  12.400  12.550   1.408  0.0532 -0.4412 -0.0188
 3577W        W19711   2.553   4.394   0.459  0.0324 -0.2366 -0.0408
 3578W        W19712   7.013  15.980  12.026  0.0575 -0.1300 -0.2371
 3579W        W19713  17.533   4.010   4.853  0.0400 -0.2193 -0.0715
 3580W        W19714  16.592   9.717   0.904 -0.0129  0.0496 -0.0014
 3581W        W19715  17.765   6.534   1.892 -0.4201  0.1515 -0.0163
 3582W        W19716   2.599  15.096  12.145  0.0416 -0.2414  0.0857
 3583W        W19717   3.282   3.313  12.156 -0.2240 -0.0281 -0.1439
 3584W        W19718   8.471   8.099  11.012  0.1263  0.2101  0.3694
 3585W        W19719  18.643   8.074   0.644 -0.0759 -0.1836 -0.1473
 3586W        W19720  11.662   6.048  13.462 -0.2904 -0.1466 -0.0089
 3587W        W19721  13.455  12.266   2.098  0.3930  0.1328  0.2204
 3588W        W19722  12.776   9.817  14.085 -0.4585 -0.0845  0.2523
 3589W        W19723  11.230   6.758   4.111 -0.1671 -0.2576 -0.1651
 3590W        W19724   8.487   2.166  12.515  0.1016 -0.1774  0.1203
 3591W        W19725  10.390   4.925   3.911  0.4315 -0.0664  0.2476
 3592W        W19726  15.433   8.403   1.802 -0.0593  0.1465  0.1930
 3593W        W19727  16.447  12.044  10.933 -0.4150  0.0381 -0.2176
 3594W        W19728  15.704   7.069   0.168  0.1133 -0.1358 -0.2391
 3595W        W19729  10.211   6.196  14.794 -0.0928  0.3276 -0.3799
 3596W        W19730  11.277   7.022   1.971 -0.0027 -0.2148  0.1213
 3597W        W19731   3.487  17.749   4.051 -0.3595  0.2584 -0.1480
 3598W        W19732  15.499   6.362  13.645 -0.3014 -0.1715  0.0287
 3599W        W19733  15.112   4.992  11.016 -0.0374 -0.0052 -0.3481
 3600W        W19734  11.527   9.367  10.109 -0.2279 -0.2550 -0.0371
 3601W        W19735  14.681  14.437  10.892 -0.0093  0.1168  0.1930
 3602W        W19736   5.770   3.709  10.493 -0.0032  0.2580 -0.2091
 3603W        W19737   4.826  10.290   4.488 -0.0448 -0.1320 -0.0899
 3604W        W19738   0.693   7.235  10.641  0.0179  0.0271 -0.0351
 3605W        W19739   2.649   6.633  12.218 -0.1479  0.1475  0.2485
 3606W        W19740   7.408  14.656  14.375  0.0457  0.0530  0.1680
 3607W        W19741   3.966  10.645   4.541  0.1413 -0.1449  0.1236
 3608W        W19742   7.484   9.383  12.433  0.3854  0.1233  0.3179
 3609W        W19743  18.724  10.775   3.801 -0.2747  0.1832  0.2062
 3610W        W19744  18.597  17.631   1.002 -0.0419 -0.3949  0.1525
 3611W        W19745   0.824  18.093  13.130 -0.2564  0.5546 -0.2518
 3612W        W19746  17.193  11.546   5.285 -0.0356 -0.1171 -0.1595
 3613W        W19747  15.580  10.992   5.050  0.1051 -0.0118 -0.3959
 3614W        W19748  12.826   8.228  12.263  0.0730  0.1053  0.2352
 3615W        W19749  15.497   6.570   3.180 -0.1384 -0.3484  0.0761
 3616W        W19750  10.327   1.539   0.608 -0.2754 -0.0785 -0.0509
 3617W        W19751   0.358  14.690  12.412  0.0490 -0.3198 -0.0262
 3618W        W19752  12.540   4.006   3.052 -0.1526 -0.2557 -0.2212
 3619W        W19753   4.265   4.512  13.854  0.0802 -0.0160 -0.1672
 3620W        W19754   8.339   8.138   0.220  0.0351  0.1831  0.2184
 3621W        W19755   6.893   1.553   0.326  0.0617  0.0245  0.0245
 3622W        W19756   2.807  10.780  13.588 -0.2529 -0.1723 -0.1603
 3623W        W19757  11.911  12.496   1.596 -0.2429 -0.0263  0.2253
 3624W        W19758   3.486   4.153   0.623 -0.1124 -0.0971  0.1989
 3625W        W19759  16.926  16.722   3.077  0.3559  0.0340 -0.0667
 3626W        W19760   3.217  15.033  11.006 -0.1437 -0.0026 -0.3927
 3627W        W19761  18.477   6.828   1.037 -0.0893  0.0536  0.1553
 3628W        W19762   3.271  14.639  11.274 -0.3980  0.2642  0.0381
 3629W        W19763   4.021  15.241  12.474  0.1312  0.1336  0.0710
 3630W        W19764  16.751   6.054   2.943 -0.3036  0.2521 -0.0444
 3631W        W19765   5.929   4.903  10.158  0.3174  0.1116  0.3055
 3632W        W19766  17.268   4.541   3.963  0.2184  0.0513 -0.0584
 3633W        W19767  11.098   9.715  11.832 -0.1262 -0.1579  0.2627
 3634W        W19768   0.213   4.378   1.563 -0.1373 -0.2191  0.0293
 3635W        W19769  12.365  16.704   2.430  0.1050  0.3522  0.2085
 3636W        W19770   3.419   2.210   1.996 -0.1227  0.1623 -0.0901
 3637W        W19771  17.026   6.427   1.864  0.1015  0.0766  0.0046
 3638W        W19772  18.389   0.388   1.176  0.3486 -0.0316  0.0587
 3639W        W19773  14.182  10.712   2.713  0.0344 -0.1305  0.5074
 3640W        W19774   2.909  14.348  12.703 -0.1617  0.0138 -0.0032
 3641W        W19775   0.415  19.243  11.051  0.1004  0.1135 -0.2208
 3642W        W19776   0.656  12.455   1.455 -0.4650 -0.0562  0.2554
 3643W        W19777  11.428  13.415  12.382  0.2091  0.2098 -0.0525
 3644W        W19778  13.581   3.107  14.398  0.0407  0.0127  0.4777
 3645W        W19779   9.684  10.468  12.957 -0.0891 -0.3440 -0.0685
 3646W        W19780   5.715   6.402  10.764 -0.1736 -0.0672  0.1294
 3647W        W19781   2.605   8.363   0.922 -0.0751  0.0490 -0.0533
 3648W        W19782  16.056  15.393  12.801  0.0057  0.3118  0.0945
 3649W        W19783  10.457  12.022   0.857 -0.2635  0.4050 -0.5050
 3650W        W19784   5.780   3.492   1.317 -0.0324  0.0186  0.2503
 3651W        W19785   7.802  12.468   2.463 -0.3799 -0.1153  0.1251
 3652W        W19786   9.970   9.186   4.116  0.0896 -0.0810  0.1429
 3653W        W19787   2.265   0.525   0.329  0.0131  0.0853  0.1847
 3654W        W19788  16.189   6.795   3.371  0.2698  0.0473 -0.1929
 3655W        W19789   6.563  11.685   2.358 -0.2380 -0.0718  0.0939
 3656W        W19790  12.322   3.406  10.028 -0.3489 -0.1609  0.1413
 3657W        W19791   6.259   3.143  12.387 -0.0673 -0.1626 -0.0177
 3658W        W19792   8.611  17.378   3.510 -0.0031  0.1579 -0.1288
 3659W        W19793   2.459  11.606  11.215 -0.0216 -0.0542 -0.1758
 3660W        W19794  13.939   5.787  10.298 -0.0125 -0.0539  0.3574
 3661W        W19795  14.279   2.071   0.132 -0.0907  0.1857  0.3038
 3662W        W19796  13.030  16.517   5.009  0.1022 -0.0069  0.4905
 3663W        W19797  18.589  13.723  10.583 -0.0093  0.3351 -0.3007
 3664W        W19798  17.140  14.067   2.553 -0.1312 -0.3339 -0.0759
 3665W        W19799   7.653   0.281   1.202 -0.2193  0.3503 -0.0516
 3666W        W19800   1.619   5.320   9.787  0.0466 -0.1250  0.1181
 3667W        W19801   5.512  12.437  10.966  0.2653  0.0977 -0.2782
 3668W        W19802   2.614   4.525  10.268 -0.2378  0.2592 -0.1440
 3669W        W19803   0.157  19.219   2.467 -0.2729  0.0433 -0.0567
 3670W        W19804   1.586   7.556  12.746  0.1405 -0.0491  0.0985
 3671W        W19805   2.390   5.104   1.619  0.1470 -0.0951 -0.0531
 3672W        W19806   9.642  11.772  14.694  0.0935  0.1653  0.0932
 3673W        W19807   6.529  15.508   3.865  0.0056 -0.0513  0.1989
 3674W        W19808  10.691   0.378   2.625 -0.2015 -0.1467 -0.2519
 3675W        W19809  18.633   9.390  11.774  0.1444  0.1660 -0.1211
 3676W        W19810   7.875   0.033  13.586  0.4027 -0.0328 -0.1748
 3677W        W19811   5.448   1.666   3.164  0.0938 -0.4491  0.6289
 3678W        W19812  12.601  11.743  13.824  0.0048  0.1588  0.0039
 3679W        W19813   3.372   1.832   1.270  0.1316  0.0889 -0.1004
 3680W        W19814  13.025   9.217   5.094 -0.3042 -0.3435  0.2369
 3681W        W19815   7.152  16.812  13.819  0.0912  0.2170  0.1144
 3682W        W19816  14.343  14.779  10.857 -0.2482 -0.0218 -0.1185
 3683W        W19817   0.146   2.948   0.187  0.4472  0.0203  0.4440
 3684W        W19818   3.366  14.514  14.084  0.3358  0.2501  0.1000
 3685W        W19819   8.140  19.318   1.668  0.0080  0.0017  0.1454
 3686W        W19820   5.159   3.962   4.067 -0.5791 -0.0119 -0.0908
 3687W        W19821   6.274   9.952   4.023 -0.0834 -0.0522  0.5457
 3688W        W19822  14.141  11.359   0.705  0.2012  0.1197 -0.1027
 3689W        W19823   4.286  18.592   1.063  0.0287  0.2515 -0.1325
 3690W        W19824   7.040   8.791   5.078 -0.3068 -0.4356  0.0014
 3691W        W19825   2.614   1.459  11.948  0.1447 -0.0659  0.0245
 3692W        W19826  16.532   4.037  12.428  0.1028 -0.0846  0.3178
 3693W        W19827   9.568  18.482   1.138 -0.2195 -0.0871  0.1043
 3694W        W19828  11.014  15.413   1.310 -0.0022 -0.3602  0.2628
 3695W        W19829   9.687  18.196  11.027 -0.2976 -0.3216  0.2734
 3696W        W19830   2.852  14.261   0.905 -0.0598  0.2412  0.1506
 3697W        W19831   5.977  15.157   3.060  0.2568  0.1507 -0.2866
 3698W        W19832  15.576  13.898   5.264 -0.0572 -0.0800 -0.1367
 3699W        W19833  14.863   1.949  13.589 -0.0689 -0.0321  0.0044
 3700W        W19834  12.357  18.562  14.531  0.1429  0.1767 -0.0261
 3701W        W19835  11.625   7.936   4.435  0.3414  0.2146  0.0626
 3702W        W19836   0.119   3.781   3.477  0.0512  0.1032 -0.1757
 3703W        W19837   6.346  11.721   1.368 -0.2619  0.2496  0.0835
 3704W        W19838   4.141   7.934  12.771 -0.0214  0.0901 -0.0888
 3705W        W19839  13.247   6.117  11.799  0.1037 -0.0321 -0.2595
 3706W        W19840   7.825  14.300   4.710  0.0418 -0.1570  0.1869
 3707W        W19841  15.383  17.579   2.553 -0.1981 -0.0376 -0.0658
 3708W        W19842  19.232   1.234  13.069 -0.0214 -0.2159 -0.0444
 3709W        W19843   8.556   3.690  14.340 -0.0505 -0.0506  0.0578
 3710W        W19844  10.170   7.496  10.272 -0.2082 -0.1676 -0.3480
 3711W        W19845   7.918  17.247  11.954 -0.1282 -0.2444 -0.3139
 3712W        W19846   9.280   8.164  12.201 -0.2049 -0.1315  0.3646
 3713W        W19847   5.570  10.722  12.571 -0.1194 -0.1868  0.0929
 3714W        W19848  18.585  17.011  13.000  0.1579 -0.2386 -0.0036
 3715W        W19849   8.568  18.037   5.924 -0.1520  0.2720  0.1284
 3716W        W19850  18.333  13.266   2.459 -0.0222  0.0804  0.2093
 3717W        W19851   9.838   5.367  13.088  0.2326 -0.0214  0.0411
 3718W        W19852  14.478   2.370   0.505 -0.1823  0.3349 -0.2152
 3719W        W19853  17.078   7.802  12.418  0.0253  0.1279  0.1230
 3720W        W19854   3.760  14.421  11.183  0.0841  0.0925  0.2586
 3721W        W19855   8.217   8.433   4.740 -0.0568 -0.0352  0.2847
 3722W        W19856  12.095   9.769   0.996  0.0863  0.0465 -0.0128
 3723W        W19857  11.786  13.299   4.630  0.3323  0.2660  0.1545
 3724W        W19858  14.836   0.375   5.379  0.1474  0.0978 -0.0483
 3725W        W19859  12.872  14.547   1.412  0.1772 -0.1181  0.0296
 3726W        W19860   9.690   2.635  11.920 -0.1922 -0.1446  0.0249
 3727W        W19861  11.002   7.087   4.367 -0.0196  0.1889  0.0855
 3728W        W19862  16.117  14.578   2.673  0.5621  0.2090  0.2383
 3729W        W19863   5.966   3.279  11.147  0.0891  0.1155  0.1614
 3730W        W19864  16.462   3.264  14.714  0.3342 -0.2720  0.3188
 3731W        W19865  19.148   7.064  12.203  0.1141  0.0277 -0.1752
 3732W        W19866  17.067   8.038   2.022 -0.1759  0.2807 -0.0057
 3733W        W19867  14.599   1.938  11.384  0.0704  0.0804 -0.3906
 3734W        W19868   8.743  17.867   2.723 -0.0222  0.0448 -0.0453
 3735W        W19869   8.010   8.853   3.955 -0.3019  0.2345 -0.1033
 3736W        W19870   9.107   8.807  10.476  0.0905  0.2885  0.0046
 3737W        W19871   5.323  19.025   2.131  0.1449 -0.1689  0.0670
 3738W        W19872  17.680   3.119  10.861  0.3312 -0.0339 -0.2197
 3739W        W19873   3.157   0.218   4.585  0.1936  0.1712 -0.3192
 3740W        W19874  10.692  12.648   2.029  0.0533  0.1476  0.2028
 3741W        W19875   1.361  17.358   4.706  0.1877  0.0720 -0.2351
 3742W        W19876   4.225  15.561  13.358 -0.0514 -0.2391 -0.0280
 3743W        W19877  16.132   0.356  14.744  0.1863 -0.1778 -0.3421
 3744W        W19878  16.993   3.344   1.373  0.2768 -0.1749  0.1183
 3745W        W19879   8.803  11.057  14.050  0.0698 -0.0487 -0.0030
 3746W        W19880   2.336  14.319   3.275  0.0173 -0.1258  0.1958
 3747W        W19881   2.247  10.582   2.778  0.2678 -0.0338  0.0983
 3748W        W19882   0.157   7.067  10.330 -0.1025 -0.1022 -0.0940
 3749W        W19883   0.595   9.632   2.119  0.2128  0.0795  0.1735
 3750W        W19884   2.903  11.244   0.224  0.0305 -0.2729  0.1734
 3751W        W19885  17.509   9.204  13.130  0.1506  0.0873 -0.0618
 3752W        W19886  11.255   2.905  14.499 -0.1133 -0.0799 -0.2485
 3753W        W19887   2.029  10.834  13.113 -0.1892  0.1063  0.2187
 3754W        W19888   2.812   6.850   0.490 -0.0282 -0.1174  0.3861
 3755W        W19889  16.520   0.559   1.915  0.0002 -0.1639  0.2042
 3756W        W19890   6.238  16.084  14.446  0.0513  0.2446 -0.5336
 3757W        W19891  16.091   8.970   9.268  0.1026  0.1940 -0.3523
 3758W        W19892   4.226   5.004   4.243  0.1736 -0.1512 -0.0206
 3759W        W19893   8.281  10.472  12.142  0.0453  0.2431  0.0259
 3760W        W19894   5.614   0.054   3.809  0.0853  0.2617  0.1929
 3761W        W19895   0.636   4.538  10.890  0.1152  0.0251 -0.1278
 3762W        W19896  10.834   4.361  13.289  0.0311  0.1287  0.2732
 3763W        W19897   7.268   8.552   2.965 -0.3541  0.1101  0.2967
 3764W        W19898  16.014  10.063  13.533 -0.1917 -0.0349  0.2534
 3765W        W19899  11.642   4.151   0.516 -0.0244 -0.0374  0.3566
 3766W        W19900   7.307   3.839   4.646 -0.0582  0.0256 -0.1291
 3767W        W19901  12.700  12.249   4.952 -0.1949 -0.0587 -0.1185
 3768W        W19902   1.183   3.016  12.770  0.2981  0.0895  0.2905
 3769W        W19903   6.239  18.326   4.370  0.0160 -0.0657  0.0500
 3770W        W19904   1.235   3.711   8.801 -0.1303  0.2586 -0.0763
 3771W        W19905   6.492  18.848  14.434  0.4064  0.0521  0.3354
 3772W        W19906  17.114   8.436  10.530  0.3252  0.3896  0.1750
 3773W        W19907  15.187   1.747   0.107 -0.2255 -0.1580  0.0291
 3774W        W19908  16.654  17.708  12.106  0.0777  0.1092  0.1679
 3775W        W19909  10.755  18.322   5.458 -0.0562  0.1332  0.2167
 3776W        W19910  18.981   3.639  11.544 -0.1307 -0.1897  0.4084
 3777W        W19911  14.040  15.893  12.576  0.0573  0.1477 -0.1677
 3778W        W19912   7.208  12.702   2.076 -0.0161  0.4609  0.0812
 3779W        W19913   2.499  14.975  11.599  0.1000 -0.0043 -0.2524
 3780W        W19914  19.224   9.450   0.809  0.2379  0.2114  0.0280
 3781W        W19915   2.706  15.539   0.641 -0.0358 -0.0135  0.2751
 3782W        W19916  16.706   6.785   4.935  0.0769 -0.0300 -0.0757
 3783W        W19917  13.192  11.163   1.642 -0.0838 -0.1833  0.1828
 3784W        W19918  14.780  10.245   0.225 -0.1768 -0.1672 -0.0483
 3785W        W19919  18.579  13.427  11.033 -0.0373  0.0507 -0.0754
 3786W        W19920  17.902   3.828  12.696  0.0990  0.2431  0.1379
 3787W        W19921  18.214  13.335   3.892 -0.1003  0.0316  0.6651
 3788W        W19922  14.318  16.262  14.144 -0.1567  0.2795 -0.3395
 3789W        W19923  11.499  12.971   5.032  0.0840 -0.3794 -0.0920
 3790W        W19924   9.878  18.920  13.208  0.2199 -0.0155  0.0996
 3791W        W19925   3.378   5.894   3.577 -0.2673  0.0380 -0.0991
 3792W        W19926  13.688   7.690   0.662  0.1375  0.0935  0.1198
 3793W        W19927  13.784   8.537  11.394 -0.0560  0.2991  0.2685
 3794W        W19928  12.452   1.391  14.639 -0.1063 -0.0793  0.0687
 3795W        W19929   2.765  14.492   5.266  0.0383 -0.3071  0.0669
 3796W        W19930   8.221  12.345  13.432  0.0041 -0.2289 -0.0760
 3797W        W19931  11.078   9.646   3.771 -0.3824 -0.2618 -0.1480
 3798W        W19932  15.317   9.847  12.378  0.0364  0.2250 -0.1524
 3799W        W19933   7.279  15.484  14.960  0.1294 -0.2852  0.0104
 3800W        W19934   6.945  18.093  11.548 -0.1231 -0.1041 -0.2731
 3801W        W19935   6.792   9.189   3.079 -0.0787 -0.0705 -0.0601
 3802W        W19936  13.215  14.308   4.710 -0.0319 -0.0273  0.0149
 3803W        W19937   7.365   8.147   3.272  0.0291 -0.1722 -0.2938
 3804W        W19938  17.994  16.936  10.985  0.0544  0.0077  0.0257
 3805W        W19939   0.089  17.669   4.876  0.0355 -0.0917  0.3948
 3806W        W19940   9.897   9.016  12.691 -0.1042  0.0537  0.2544
 3807W        W19941   5.724   2.368   4.974  0.0999  0.0286 -0.1066
 3808W        W19942   9.002  17.093  13.249  0.0666  0.4654 -0.0109
 3809W        W19943   3.434   6.215   3.183  0.4559  0.0240  0.0698
 3810W        W19944  14.101  14.042   6.152  0.0092 -0.0128  0.0437
 3811W        W19945  12.704   1.869   0.505 -0.2258 -0.1298 -0.1105
 3812W        W19946   9.953  14.950  13.506  0.3227  0.0396  0.1185
 3813W        W19947  13.228  12.210  10.936 -0.2011  0.0046  0.0089
 3814W        W19948   1.719  16.074  10.408  0.2553  0.0078  0.2410
 3815W        W19949  14.257  10.433   3.797 -0.1101  0.0176  0.2222
 3816W        W19950   4.611   0.344  14.632  0.2705 -0.2098 -0.1056
 3817W        W19951   0.701  13.342   3.834 -0.0298 -0.0855 -0.0624
 3818W        W19952   4.773  11.798  13.999 -0.2783 -0.0387 -0.0385
 3819W        W19953  17.581  13.017   9.823 -0.1532  0.1123  0.0557
 3820W        W19954  13.774   3.236  11.105  0.0440  0.1754 -0.2259
 3821W        W19955  12.906   1.569   3.911  0.1125  0.1082  0.0842
 3822W        W19956   7.737  10.363   9.957  0.0269  0.1852  0.0547
 3823W        W19957  10.878   8.994   3.788  0.2980 -0.6189 -0.0293
 3824W        W19958   5.847  17.597   0.212  0.1941 -0.2758 -0.0903
 3825W        W19959   0.815  17.946  11.291 -0.1897 -0.0496  0.1757
 3826W        W19960   4.582  10.669  14.400  0.0003 -0.0244 -0.0198
 3827W        W19961  18.055   0.539  11.250 -0.1838 -0.0032 -0.1178
 3828W        W19962   7.182  10.330  14.900  0.0119  0.1383  0.2800
 3829W        W19963  12.130   4.394   3.930  0.2051 -0.0215 -0.3494
 3830W        W19964   6.374  17.752   2.998 -0.1634 -0.0864  0.1638
 3831W        W19965  12.481  14.276   1.300 -0.7140 -0.1412 -0.2744
 3832W        W19966  17.353  13.837   1.262  0.0307 -0.0872 -0.1408
 3833W        W19967   1.050   7.506   1.881 -0.1027  0.1749 -0.2805
 3834W        W19968  13.498  17.033   2.704  0.3097 -0.2469 -0.2543
 3835W        W19969  11.461   9.384  13.659 -0.1318  0.2487  0.0451
 3836W        W19970   6.406  16.488   1.651  0.0042  0.0800  0.1290
 3837W        W19971  18.591   6.752  10.137 -0.2696  0.0060  0.2943
 3838W        W19972   1.024  15.310  14.483 -0.1543 -0.0384 -0.4008
 3839W        W19973  18.772   6.785   1.739 -0.0415  0.0772  0.1459
 3840W        W19974   1.432   4.474   4.926 -0.3883 -0.1705 -0.0863
 3841W        W19975   0.274  15.135  14.913  0.1004 -0.0552 -0.0950
 3842W        W19976  14.386   8.274  13.253 -0.0882 -0.1800  0.0418
 3843W        W19977   1.477   7.167  12.302 -0.1275 -0.0369  0.1113
 3844W        W19978  14.599  11.522   2.407 -0.2838  0.1422  0.2936
 3845W        W19979   2.903   0.591  13.723 -0.1298  0.1077 -0.2255
 3846W        W19980   6.455  11.740   2.894  0.3488 -0.0659  0.1517
 3847W        W19981  10.496  17.246   3.663  0.0837  0.0707 -0.2349
 3848W        W19982   0.374   8.006  14.039 -0.2724 -0.0757 -0.1056
 3849W        W19983  18.509   3.076  10.608 -0.0685  0.0191 -0.6960
 3850W        W19984  18.610  13.036   0.702 -0.1678 -0.1814 -0.2076
 3851W        W19985  16.841  12.125  12.063 -0.3631  0.1143 -0.0994
 3852W        W19986   0.691   2.164  10.670 -0.0209  0.1685  0.3959
 3853W        W19987   3.007   3.754   2.241 -0.0159 -0.1691  0.1139
 3854W        W19988   1.220  18.159   1.363  0.2847  0.0525 -0.0790
 3855W        W19989   9.358  15.890   2.933 -0.0765  0.1273 -0.0998
 3856W        W19990   3.706   2.420   4.136 -0.3411  0.0172 -0.0080
 3857W        W19991   8.417  10.930   8.732  0.2867  0.2822  0.2421
 3858W        W19992  16.646   4.571  10.266 -0.4373  0.0402  0.0714
 3859W        W19993  11.887   3.131   4.947 -0.0841  0.0965 -0.0456
 3860W        W19994  12.441   8.644   4.230 -0.0282  0.0804 -0.0874
 3861W        W19995  12.360   1.679  13.774  0.0406  0.2361 -0.1151
 3862W        W19996   9.504   2.541  14.153  0.1511 -0.3165  0.3576
 3863W        W19997  13.189  16.787   0.636  0.1975  0.0141 -0.1097
 3864W        W19998  10.370   0.866   1.927  0.0511  0.1226  0.0799
 3865W        W19999  17.245   6.887   0.226 -0.3504  0.4872 -0.2971
 3866W        W20000   9.125   8.133   2.777  0.2916 -0.0083 -0.2617
 3867W        W20001   0.887   4.434  14.661 -0.2239  0.0971 -0.0471
 3868W        W20002  16.246  15.645   5.392  0.1477  0.2421  0.1307
 3869W        W20003  10.197   7.103  14.566  0.2062  0.1519  0.0312
 3870W        W20004  11.386   4.991   0.225 -0.2002  0.1637 -0.0464
 3871W        W20005  18.934  14.988  13.455 -0.1443 -0.3015 -0.1645
 3872W        W20006  15.416   9.416  11.609 -0.3582  0.0872 -0.0812
 3873W        W20007   0.338  16.292   0.093  0.2737 -0.4514  0.0208
 3874W        W20008  14.655   7.351   3.882  0.3022  0.0817  0.2095
 3875W        W20009   4.618   4.971   4.652 -0.0781  0.1480 -0.4599
 3876W        W20010  19.195   6.616  14.166 -0.0570  0.1747  0.0592
 3877W        W20011  12.632   8.481   0.082  0.0038  0.0265  0.0103
 3878W        W20012  19.260   7.733  14.117 -0.1287 -0.1206  0.2593
 3879W        W20013  12.763  15.688   3.735 -0.1175 -0.0861  0.0574
 3880W        W20014  14.453  14.226  12.402 -0.3758 -0.1451  0.1530
 3881W        W20015   6.771   6.101  13.496  0.1059  0.4908  0.1272
 3882W        W20016   2.402  10.980  12.225 -0.0808 -0.3303 -0.0583
 3883W        W20017  10.764  10.966  10.806  0.1739  0.2000 -0.2039
 3884W        W20018   4.658  13.509   0.366 -0.1474  0.1858 -0.0076
 3885W        W20019   4.677   5.643  11.472  0.0976  0.2829 -0.0488
 3886W        W20020  11.167  17.952   0.424 -0.1406 -0.1019  0.2393
 3887W        W20021  10.428  13.029  14.496 -0.1839  0.2018 -0.0214
 3888W        W20022   3.755  16.624   2.059 -0.3173  0.0806  0.2361
 3889W        W20023  10.719   2.370   3.678  0.0434 -0.1234 -0.3761
 3890W        W20024   8.334   7.190   0.120 -0.1147  0.0547 -0.2790
 3891W        W20025  12.116  12.723  11.843  0.2285 -0.0392  0.0978
 3892W        W20026  17.990   7.486  12.125  0.0765 -0.1216  0.2598
 3893W        W20027  14.937  17.220   0.449 -0.2152 -0.0744 -0.3165
 3894W        W20028  10.476  17.015   0.490  0.3815  0.1348  0.0280
 3895W        W20029   7.122   6.724  11.746  0.2278  0.4060 -0.1891
 3896W        W20030   7.957  19.178  11.369  0.0227  0.3274  0.1953
 3897W        W20031   8.371   6.835  11.198  0.1022 -0.2255 -0.0412
 3898W        W20032  17.971  13.826  13.164 -0.0840  0.1650 -0.1275
 3899W        W20033   9.363  16.399  12.809  0.0526 -0.0616 -0.1838
 3900W        W20034  18.608   6.725   0.448 -0.1752  0.1876  0.0357
 3901W        W20035   2.979  14.132   4.447 -0.0107  0.0749  0.2017
 3902W        W20036   2.659  10.886   9.977  0.1430 -0.1012  0.1842
 3903W        W20037   6.021   6.155   1.861 -0.0105  0.2101 -0.2618
 3904W        W20038  18.807   4.503   1.219 -0.0906  0.0525  0.1992
 3905W        W20039  11.638   0.975   2.830 -0.3511  0.3637  0.1055
 3906W        W20040   1.589   2.430  13.247  0.1866 -0.0588  0.0755
 3907W        W20041   3.644   9.473   1.806 -0.0232  0.2443  0.2558
 3908W        W20042   4.057  12.935   1.111 -0.1050  0.0981 -0.2747
 3909W        W20043   2.908  10.188   2.372 -0.0295  0.0403  0.3178
 3910W        W20044   0.065  17.223  13.984 -0.2042 -0.0485 -0.1141
 3911W        W20045   5.598  11.624  11.912  0.4597  0.0916 -0.0767
 3912W        W20046   6.133  17.974  14.293 -0.5172 -0.1932  0.0444
 3913W        W20047  10.526  17.706   1.083 -0.1272  0.3020 -0.0980
 3914W        W20048   5.312   2.882   3.917  0.1424 -0.0268 -0.3327
 3915W        W20049  18.746  10.273  11.586  0.0640  0.0821 -0.0085
 3916W        W20050   0.915   5.515   2.498  0.0838 -0.1995  0.2015
 3917W        W20051  16.960  15.580  11.124 -0.0617 -0.2143  0.2385
 3918W        W20052  13.760  17.534   2.462  0.0685  0.0807  0.3870
 3919W        W20053   3.516  16.596   2.964  0.1432 -0.1725 -0.1491
 3920W        W20054   5.192  16.341   3.511  0.1051  0.1861  0.1800
 3921W        W20055  13.074  10.526  12.794 -0.0291  0.0632 -0.2812
 3922W        W20056   4.647   0.919  13.513  0.2098  0.0975 -0.1379
 3923W        W20057   5.862  11.312   2.815  0.1250 -0.1853  0.0587
 3924W        W20058   8.423   0.797  13.913  0.0596  0.1531  0.1534
 3925W        W20059  15.428  12.171   1.054 -0.2428  0.0168 -0.2412
 3926W        W20060  16.834  14.517  10.413  0.3213  0.3021  0.1512
 3927W        W20061  13.939   8.763   4.589 -0.5003 -0.1789 -0.1495
 3928W        W20062   5.552  15.493  13.174 -0.2551 -0.2987 -0.1965
 3929W        W20063   2.444   0.377   2.419 -0.2288 -0.4557 -0.0016
 3930W        W20064  14.576  14.016  10.635 -0.0015 -0.0180  0.1526
 3931W        W20065  13.850  12.061  13.545 -0.0292  0.2357  0.1494
 3932W        W20066  15.542  10.313   0.721 -0.0463 -0.2769 -0.1177
 3933W        W20067   9.537  16.287   3.329  0.1772 -0.1556  0.2512
 3934W        W20068   9.007  15.230  11.375 -0.1161 -0.0240  0.1329
 3935W        W20069  12.546  18.273   4.564 -0.0174  0.1786 -0.1005
 3936W        W20070  15.812  13.424  14.775 -0.3716  0.0221 -0.1278
 3937W        W20071  15.627   7.083  13.056 -0.1367 -0.0979  0.0217
 3938W        W20072  13.357   0.989   1.799  0.0294 -0.0424  0.1111
 3939W        W20073  10.173   1.796   2.996 -0.0664 -0.0483  0.0981
 3940W        W20074  15.653  19.166   3.418  0.3284  0.1287 -0.0972
 3941W        W20075   5.135  12.644   2.824 -0.3662  0.0964  0.0672
 3942W        W20076   7.677  10.996  13.099 -0.0274  0.2005 -0.0258
 3943W        W20077   7.233   6.064   0.970 -0.2108 -0.2458  0.0790
 3944W        W20078   3.696  19.289   4.339  0.1525 -0.3520 -0.1954
 3945W        W20079  13.081  14.039  14.138 -0.0096  0.2328 -0.1582
 3946W        W20080   8.001  19.157  10.061 -0.1967 -0.0403 -0.0836
 3947W        W20081  14.741  14.623   4.758 -0.2233  0.1466 -0.0075
 3948W        W20082  18.292   6.574  13.932 -0.1377  0.2437  0.1946
 3949W        W20083   1.947  14.297   0.631 -0.5614 -0.1492  0.1628
 3950W        W20084   2.313   5.643   2.848  0.0316 -0.4399  0.1591
 3951W        W20085   0.189  14.113   4.847  0.1152  0.0673 -0.4435
 3952W        W20086  12.174  14.894  12.055 -0.0247  0.0109  0.0100
 3953W        W20087  18.167   0.230  14.290  0.2374 -0.1058 -0.1781
 3954W        W20088   8.986   3.157  11.739 -0.3989 -0.2744 -0.1489
 3955W        W20089  10.763   5.268  11.422 -0.0085 -0.0354  0.0396
 3956W        W20090   0.246   2.156  11.616 -0.1537  0.3271  0.4063
 3957W        W20091  11.351  12.329   3.439  0.0976 -0.2103 -0.1090
 3958W        W20092   1.019   5.037   2.620  0.0356 -0.1534  0.0581
 3959W        W20093  18.165  14.678  10.106 -0.1396  0.0318  0.2091
 3960W        W20094  18.721  11.356   9.918  0.2989  0.2022  0.0622
 3961W        W20095  17.628   1.133   3.294  0.2239 -0.0855 -0.0042
 3962W        W20096  13.227  15.056   3.986 -0.1227  0.1972  0.0263
 3963W        W20097   2.312  12.748   3.023 -0.0690 -0.0844 -0.0792
 3964W        W20098  10.096  12.361   0.780  0.2948  0.3692 -0.0709
 3965W        W20099  18.395  13.407  13.686  0.0135  0.0688  0.1231
 3966W        W20100   6.498  17.337  10.196  0.0534 -0.1242 -0.0859
 3967W        W20101   9.257   9.876  13.757  0.0276  0.0789  0.1740
 3968W        W20102   6.350   4.839  11.464  0.2621  0.1177  0.0482
 3969W        W20103   3.019  16.827   4.905  0.0173  0.2607  0.0287
 3970W        W20104   9.607   7.302  12.223 -0.1343 -0.0484  0.0486
 3971W        W20105  15.235  14.063   4.818 -0.1591  0.0873  0.3903
 3972W        W20106   6.184   2.567   1.933 -0.0105  0.0725  0.1058
 3973W        W20107   9.501  14.493  13.682  0.0721  0.0962 -0.0291
 3974W        W20108   9.548  13.674  12.849 -0.0372 -0.0177 -0.2276
 3975W        W20109  16.148   1.909   0.384 -0.1631  0.0239  0.2323
 3976W        W20110   6.592   0.386  11.649 -0.0017 -0.1955 -0.3264
 3977W        W20111   4.491   9.653  14.117 -0.0153 -0.0325  0.1033
 3978W        W20112  18.681   3.839   3.640  0.1459  0.1723  0.2002
 3979W        W20113   1.412   1.778   5.215  0.0668  0.1492  0.5087
 3980W        W20114  11.780  12.197  10.837 -0.1045 -0.0728  0.1493
 3981W        W20115   4.681   1.815  11.402 -0.2694  0.0349  0.0574
 3982W        W20116  12.350  16.105   2.579  0.2405  0.0709  0.0652
 3983W        W20117   2.475  14.456  12.839  0.3039  0.2453 -0.0641
 3984W        W20118   3.218  14.321   3.135  0.0453  0.0783 -0.1736
 3985W        W20119   6.139   7.798   0.467  0.0969  0.1362 -0.1383
 3986W        W20120   6.249   9.627  13.665 -0.1628 -0.1599  0.0315
 3987W        W20121  14.707  19.046  13.149 -0.3331  0.0593 -0.1687
 3988W        W20122  16.900   5.876  10.999  0.0840  0.1021 -0.0398
 3989W        W20123   9.577  10.451   3.609 -0.0704 -0.1552  0.0307
 3990W        W20124  18.606   9.732  13.906  0.0226 -0.4158  0.3920
 3991W        W20125  18.261   8.682   3.908 -0.0338  0.0132  0.3728
 3992W        W20126  15.060   7.526   1.612 -0.2858  0.0541 -0.0530
 3993W        W20127   6.864  17.416  11.853  0.0926 -0.1960  0.2688
 3994W        W20128  16.523  16.928  13.425  0.1483  0.2607 -0.1887
 3995W        W20129  17.537   9.771  14.174  0.0528 -0.0938 -0.1655
 3996W        W20130  15.342   3.136   5.237  0.1323  0.4397  0.3482
 3997W        W20131   6.047   7.173  14.491 -0.1719  0.3743 -0.0265
 3998W        W20132   2.378   1.118   4.737  0.2933 -0.0372 -0.1239
 3999W        W20133   3.852   1.922   4.131  0.0552  0.2205 -0.0059
 4000W        W20134   6.410   0.274  12.187 -0.1856  0.0422 -0.3478
 4001W        W20135   1.777  12.368   0.439  0.0197 -0.0131 -0.2635
 4002W        W20136   1.530   1.356  12.283 -0.0610  0.1815 -0.0240
 4003W        W20137   0.931   4.892   0.863  0.0250  0.1429  0.1651
 4004W        W20138  15.106  15.138  13.824 -0.1222 -0.1344  0.0569
 4005W        W20139  17.432   6.615  13.832 -0.2239 -0.0092  0.1490
 4006W        W20140   1.382  18.064   2.352  0.1537  0.0299 -0.3038
 4007W        W20141  15.012   1.681   2.216  0.2232  0.1748 -0.2436
 4008W        W20142  11.539  11.531  12.362  0.0589  0.0151 -0.0165
 4009W        W20143  17.955   1.225   4.528 -0.2500 -0.2218  0.3167
 4010W        W20144   1.788  12.669   0.886  0.2759  0.4235 -0.1034
 4011W        W20145  11.105  18.292  10.809  0.1973 -0.1546  0.0610
 4012W        W20146  12.899  13.189   0.935 -0.1751 -0.0989  0.0608
 4013W        W20147   2.993   7.718  13.617  0.0717 -0.1737  0.2447
 4014W        W20148   6.460  11.365  11.866  0.0833  0.1696 -0.0020
 4015W        W20149  17.337  15.941  12.196  0.0843  0.0279  0.3820
 4016W        W20150  16.954  13.760  13.760  0.2278  0.2634  0.2437
 4017W        W20151  18.615  11.742  13.639  0.0784 -0.2176 -0.0036
 4018W        W20152   7.944  18.330   4.861  0.0819  0.2489  0.0853
 4019W        W20153  15.652  16.199  12.643 -0.1103 -0.1597  0.0790
 4020W        W20154   8.347   0.237  14.007  0.5047 -0.0813  0.0077
 4021W        W20155   9.648   4.848   4.489 -0.2719 -0.0848  0.0442
 4022W        W20156  12.824  10.424  13.768  0.0884  0.2592 -0.1099
 4023W        W20157   2.718  16.910  14.816 -0.0493  0.0962 -0.3048
 4024W        W20158   6.681   2.525   3.627 -0.2265 -0.0644 -0.0510
 4025W        W20159   8.836   8.816   9.002  0.2534 -0.0099 -0.0280
 4026W        W20160   5.321  14.399   1.612  0.3605 -0.2313  0.4513
 4027W        W20161   6.505   6.202   0.126 -0.0475  0.1660 -0.2359
 4028W        W20162   2.614  18.265   4.179 -0.3915  0.1898  0.0278
 4029W        W20163   2.170   5.537   0.284  0.0850  0.1455  0.1307
 4030W        W20164   2.359   6.543  11.774  0.0771  0.1633  0.2808
 4031W        W20165  18.193   2.665  12.192 -0.2130 -0.0942  0.1426
 4032W        W20166  18.159  19.234   1.241  0.0545  0.1561 -0.1373
 4033W        W20167  18.429   1.300   1.402 -0.2860 -0.0809  0.1066
 4034W        W20168  18.474   9.176   2.316 -0.2900 -0.2045 -0.3955
 4035W        W20169   8.055   7.011   1.112 -0.1793  0.2754 -0.0368
 4036W        W20170   1.920  16.560   4.957  0.1524  0.0306 -0.0849
 4037W        W20171   4.160   8.747   0.722 -0.0563  0.1058 -0.0916
 4038W        W20172  17.255   1.114   4.556 -0.0098  0.0048 -0.1197
 4039W        W20173  13.442   4.270  12.021 -0.1398  0.1235  0.0190
 4040W        W20174   0.006   7.590  12.391 -0.3389 -0.3166  0.2543
 4041W        W20175   2.861  13.327   0.552 -0.1206 -0.0204 -0.0347
 4042W        W20176   3.364   2.484   0.334  0.3517 -0.2967 -0.0548
 4043W        W20177   4.297  11.203  13.152  0.1943 -0.1668  0.0264
 4044W        W20178   0.442   3.516  14.592  0.2802  0.0064  0.0334
 4045W        W20179  10.639   8.194  13.523  0.3564  0.2204 -0.3395
 4046W        W20180  15.810   0.533   0.108 -0.0644 -0.0186  0.3238
 4047W        W20181  16.113  19.144   4.463  0.4011  0.2032 -0.0049
 4048W        W20182   9.258   6.078   3.581  0.2435  0.0334 -0.1535
 4049W        W20183   9.268  19.205  14.418  0.0597  0.2426  0.0318
 4050W        W20184  19.031  18.991   2.280  0.0844 -0.0621 -0.4796
 4051W        W20185   9.801  10.562   4.064  0.0032 -0.3101  0.0909
 4052W        W20186   7.013  12.484   2.473 -0.3339  0.0553 -0.1584
 4053W        W20187   1.096  18.511  10.559  0.3203  0.1771 -0.0257
 4054W        W20188  14.742  14.501   1.277 -0.1036  0.1361  0.0103
 4055W        W20189   3.446  14.348   0.519 -0.1565 -0.2724 -0.2998
 4056W        W20190  14.054  15.351   2.832 -0.0296 -0.1569  0.0111
 4057W        W20191  10.966   0.039  14.879  0.0236 -0.0721 -0.3523
 4058W        W20192   7.040  10.392   4.854  0.0228  0.0693  0.0248
 4059W        W20193   4.888  12.200   3.911  0.0464  0.1485  0.2971
 4060W        W20194  15.896  15.405   0.127 -0.0368  0.0710 -0.1351
 4061W        W20195   8.843  10.842   2.626  0.0554  0.2563 -0.1402
 4062W        W20196   8.051   9.695   3.403  0.2325 -0.0607  0.1693
 4063W        W20197  12.309   4.297  11.673 -0.0036 -0.3021  0.2746
 4064W        W20198   5.819   4.798   2.259 -0.5597 -0.0149  0.3140
 4065W        W20199  13.694   8.078  12.571  0.0326  0.0324  0.3956
 4066W        W20200  13.126   4.899   4.869 -0.1022 -0.0699  0.1989
 4067W        W20201  14.811   7.043   1.608  0.3437 -0.0142 -0.0902
 4068W        W20202  18.375  14.917  10.461  0.0389 -0.1046  0.1039
 4069W        W20203  17.276  10.534  10.418  0.2521 -0.1809  0.2394
 4070W        W20204   1.283   8.346  11.023 -0.1933  0.0798 -0.1687
 4071W        W20205  19.348  18.712  13.307  0.0853  0.3869 -0.0969
 4072W        W20206   3.542  12.825  14.699 -0.0369  0.1837  0.1948
 4073W        W20207  14.874  16.981   5.336  0.0308  0.0281  0.2538
 4074W        W20208  15.207   4.900   1.265 -0.0897 -0.0156  0.0246
 4075W        W20209   7.447  15.032   2.702  0.1613  0.1082 -0.0232
 4076W        W20210   9.890   9.988  14.559 -0.1573  0.2668  0.2976
 4077W        W20211  17.219   1.686  11.231 -0.1721  0.3267  0.1673
 4078W        W20212  18.943   1.415  12.514 -0.0494 -0.1958  0.0416
 4079W        W20213   1.047   2.794  12.332  0.0637  0.0576 -0.0950
 4080W        W20214  17.689   7.406  14.936  0.1238  0.2174 -0.0939
 4081W        W20215   8.709   5.767   2.913 -0.2348 -0.2836  0.0955
 4082W        W20216   8.190   7.122   5.240  0.2017  0.0062  0.1845
 4083W        W20217  17.478  10.641  14.038 -0.1397 -0.2677 -0.0681
 4084W        W20218   3.948   0.089  10.973  0.4050 -0.2956  0.3894
 4085W        W20219  10.655   0.888   2.956 -0.1314 -0.1917 -0.1601
 4086W        W20220   2.001  12.596   4.429 -0.2167  0.1562  0.0131
 4087W        W20221   8.399  10.073   5.327 -0.2711 -0.1708 -0.1145
 4088W        W20222  18.507   6.205   3.151 -0.3525 -0.1863 -0.0396
 4089W        W20223  11.345  16.427   2.045  0.0886 -0.1080  0.2100
 4090W        W20224  12.874   3.605  14.043  0.1280  0.0393 -0.0398
 4091W        W20225   4.651  10.239   3.577 -0.0628 -0.3113 -0.0265
 4092W        W20226   5.867  18.361   1.796  0.2849 -0.0029  0.3328
 4093W        W20227  19.167   2.762   2.888  0.0493  0.5460  0.0999
 4094W        W20228  16.163   7.969  10.605  0.1646  0.0011 -0.3546
 4095W        W20229   8.157  16.048   3.452 -0.0140  0.0667 -0.3369
 4096W        W20230  16.407   1.530   2.355 -0.0687 -0.1155  0.1538
 4097W        W20231  13.541   5.665  12.549 -0.2981  0.0435  0.1546
 4098W        W20232   2.445  16.572   2.730  0.0800 -0.2646 -0.3692
 4099W        W20233   8.265   4.337   3.156  0.2401  0.0676  0.1503
 4100W        W20234  17.297   5.493  14.898 -0.3240  0.1605 -0.0865
 4101W        W20235   3.505   0.905   0.199  0.0914  0.2508 -0.0197
 4102W        W20236   5.144  15.419  14.569  0.1237 -0.2542 -0.0963
 4103W        W20237  14.750  11.913   4.954 -0.0756  0.0007  0.0020
 4104W        W20238  15.143  11.922  14.040 -0.0222  0.2285  0.0044
 4105W        W20239  16.876   5.014  10.059  0.2650 -0.0723  0.1313
 4106W        W20240  11.834   1.642   4.834  0.0499  0.1020 -0.1207
 4107W        W20241   8.003  17.767  14.282  0.0243 -0.1743 -0.1247
 4108W        W20242  10.673   9.381  14.026 -0.1189 -0.1545 -0.2975
 4109W        W20243   6.508  12.077  14.838 -0.0821 -0.0954  0.0848
 4110W        W20244   6.057   9.798  12.624  0.0422 -0.2107  0.2864
 4111W        W20245   1.753   7.585  10.481  0.1046  0.4199 -0.0118
 4112W        W20246  19.076   5.111   0.501 -0.2953  0.3174  0.1044
 4113W        W20247  13.226   7.418  12.323 -0.3759 -0.3137  0.4339
 4114W        W20248  10.066   1.285   4.270  0.2291  0.0463 -0.2164
 4115W        W20249   3.559   5.820  11.602 -0.2480  0.1838  0.2479
 4116W        W20250   7.207   9.057  14.802 -0.0488 -0.1810  0.4424
 4117W        W20251  18.023   3.796  11.985 -0.4783 -0.2940  0.1855
 4118W        W20252  17.982   9.788   4.685  0.0632  0.3752 -0.0673
 4119W        W20253   1.803   8.666  11.355  0.0624 -0.1701  0.1372
 4120W        W20254   1.706   4.399   0.753  0.0642 -0.3056 -0.1467
 4121W        W20255  18.341   3.118   2.710 -0.3670 -0.0295  0.2649
 4122W        W20256   2.338  16.286   4.963  0.0276  0.1613 -0.0417
 4123W        W20257   6.246   3.201   3.275  0.2576  0.0796  0.2156
 4124W        W20258  13.127   9.818  11.282 -0.3410 -0.1288  0.0770
 4125W        W20259   9.366  14.289   1.496 -0.1831  0.2681  0.1496
 4126W        W20260   2.988  16.230  12.562 -0.1055  0.2328 -0.3600
 4127W        W20261   2.493  13.335   5.031 -0.0633 -0.0038  0.0594
 4128W        W20262  11.148   0.827  14.152  0.2287 -0.2380 -0.1274
 4129W        W20263   4.090   6.786  14.512  0.2136 -0.0999 -0.0522
 4130W        W20264  16.531  14.301   3.954  0.1389 -0.2590  0.2466
 4131W        W20265  17.289   7.612   3.301  0.3702 -0.5579  0.2876
 4132W        W20266  17.090  17.375  13.934  0.2471 -0.0924  0.0876
 4133W        W20267  10.443  16.274   2.248  0.3567 -0.0918  0.1099
 4134W        W20268   5.519   1.391  12.301 -0.0462  0.4376 -0.0404
 4135W        W20269   8.467   9.403   3.496  0.0590 -0.2238  0.1810
 4136W        W20270  10.299  15.000   5.144  0.0343  0.0862 -0.1768
 4137W        W20271   7.156  16.165   2.368  0.0629 -0.0357 -0.0914
 4138W        W20272   8.169   2.788   0.958 -0.1014 -0.0065  0.0882
 4139W        W20273   2.533   1.113   1.274 -0.0229 -0.1214  0.3460
 4140W        W20274   5.755  10.259  13.911  0.0337 -0.3770 -0.0009
 4141W        W20275  10.173  16.772   4.330 -0.1828  0.1367 -0.2484
 4142W        W20276   7.313  18.009   3.600 -0.2046 -0.0865 -0.2804
 4143W        W20277   7.529   8.608  10.225 -0.0864 -0.1712  0.0572
 4144W        W20278  18.525  14.809  13.059 -0.4142 -0.0328 -0.0655
 4145W        W20279  11.629   5.192  11.757  0.0542  0.1332 -0.0754
 4146W        W20280   3.203  10.512   4.035 -0.1081 -0.1498  0.0645
 4147W        W20281   5.393   8.534  13.557 -0.0869 -0.0693 -0.4058
 4148W        W20282  14.978   5.519   1.834  0.4627 -0.0896  0.2711
 4149W        W20283  10.824  16.838   3.079 -0.2115 -0.0309  0.1682
 4150W        W20284   9.710  10.890  14.146 -0.0324  0.3239  0.1579
 4151W        W20285   3.340  11.715  12.664  0.0424 -0.3006  0.0367
 4152W        W20286  17.895   3.681  10.494  0.0086 -0.3455 -0.0348
 4153W        W20287  10.763   0.728   5.376 -0.0926 -0.0405  0.1195
 4154W        W20288   2.312   7.352   8.833  0.2046 -0.1817 -0.0314
 4155W        W20289   4.015   4.735   1.288  0.1528 -0.2304 -0.1530
 4156W        W20290   1.886  15.639   3.379 -0.4640 -0.1603 -0.1145
 4157W        W20291  12.191   0.062   3.770 -0.0484  0.1655 -0.0958
 4158W        W20292   6.690  14.508   3.417  0.0834 -0.2852  0.0875
 4159W        W20293   5.730   7.833   2.647  0.0982  0.0529  0.0060
 4160W        W20294   2.722  15.614   1.545  0.0285  0.1384 -0.0446
 4161W        W20295  10.851   1.811   3.737 -0.2663 -0.1249  0.2546
 4162W        W20296   5.727   0.505  11.994 -0.5379  0.3295  0.0788
 4163W        W20297   9.027   6.665  11.861 -0.1155 -0.3500 -0.2670
 4164W        W20298  12.519  15.495   5.250  0.0270 -0.0518  0.0174
 4165W        W20299  14.293  11.589  10.791 -0.3182  0.0124  0.1690
 4166W        W20300   0.173   4.092  12.022  0.0111  0.0763  0.2323
 4167W        W20301  10.426  14.346  14.931  0.0070 -0.4331 -0.2481
 4168W        W20302   2.877  15.247   0.278  0.1647  0.2158 -0.0304
 4169W        W20303   3.309  16.790   1.105  0.1487 -0.0839  0.3303
 4170W        W20304   3.365   7.394  12.674 -0.2030 -0.1382 -0.0962
 4171W        W20305  17.443  14.719   1.580  0.0844  0.2109 -0.0129
 4172W        W20306   0.444  16.340   3.003  0.1933 -0.3506  0.0640
 4173W        W20307  17.150  11.217   1.100  0.0074 -0.0152  0.1127
 4174W        W20308   8.521   6.625  10.102  0.2280 -0.3948  0.0764
 4175W        W20309  14.103  17.500  13.574 -0.0046  0.2705  0.1294
 4176W        W20310   8.007  15.843   3.914 -0.1049 -0.1984  0.2132
 4177W        W20311   8.633   7.872   3.053  0.2128  0.2798 -0.1036
 4178W        W20312  10.219  17.255  14.638 -0.0962  0.0047 -0.1395
 4179W        W20313   0.115   3.348   9.907 -0.2356 -0.0226 -0.0579
 4180W        W20314   7.707   1.472   3.425  0.0805  0.2636 -0.2932
 4181W        W20315  11.693  18.806  11.744 -0.0006 -0.0556  0.2898
 4182W        W20316   3.637   1.882   3.279 -0.1715  0.0167 -0.0522
 4183W        W20317   9.620   9.432  12.065  0.1411 -0.0262  0.1305
 4184W        W20318  18.185  12.469  10.961  0.0931  0.3232  0.2663
 4185W        W20319   2.601   8.241  10.783 -0.0523 -0.0028  0.0666
 4186W        W20320  13.670   3.046  12.774  0.0719  0.5290 -0.0788
 4187W        W20321  17.189   6.913   4.933 -0.2069  0.1160 -0.0449
 4188W        W20322  16.266  12.803   1.534  0.0736  0.2019 -0.0684
 4189W        W20323  12.529  10.806  13.976  0.0376 -0.1784 -0.4149
 4190W        W20324  10.368   5.497  11.039  0.0551  0.4544 -0.2590
 4191W        W20325  18.301  10.947  14.252  0.0186 -0.0030 -0.2358
 4192W        W20326  18.638   8.511   0.888 -0.0353  0.0244 -0.1471
 4193W        W20327  14.221  10.903   0.155  0.0079  0.1217  0.0992
 4194W        W20328  12.213  18.908   0.057  0.0988  0.4173  0.1531
 4195W        W20329   5.960  13.778  12.575  0.1050  0.0524 -0.2150
 4196W        W20330  12.338   4.576   0.867  0.2010 -0.0253 -0.1248
 4197W        W20331  16.101   8.225  14.255  0.4582 -0.0650  0.0652
 4198W        W20332  15.244   1.164  14.176 -0.2270 -0.1285  0.0840
 4199W        W20333   1.643  19.058  13.078  0.1480  0.3066  0.1932
 4200W        W20334  16.340  17.290  14.353 -0.1898 -0.0858 -0.0028
 4201W        W20335   7.022  15.889   4.778 -0.1080  0.1535 -0.2304
 4202W        W20336   6.383  19.111   1.609 -0.2383 -0.2870  0.1646
 4203W        W20337  15.994   6.477   1.177  0.2625 -0.0140 -0.4052
 4204W        W20338  14.748  15.906  13.111  0.2680 -0.0053  0.0510
 4205W        W20339  18.141  15.542   1.547  0.0814  0.1523 -0.4716
 4206W        W20340   6.316   9.105   4.378 -0.1768  0.1080 -0.3528
 4207W        W20341  16.887   9.783   5.611  0.0524 -0.0292 -0.1754
 4208W        W20342  10.204   5.907   3.836  0.0243 -0.0756  0.0810
 4209W        W20343  15.441  11.944   0.069 -0.1870 -0.0672 -0.1900
 4210W        W20344  10.733  16.067  13.466  0.2586 -0.0429  0.0859
 4211W        W20345  11.895  19.292   1.589  0.4276 -0.0167  0.0872
 4212W        W20346   7.546  17.667  13.580  0.0738  0.2556 -0.0572
 4213W        W20347  15.277   6.040  11.897  0.1954 -0.1813  0.0874
 4214W        W20348  18.152   5.602   2.701  0.1147 -0.1315  0.1007
 4215W        W20349  11.506   2.363   4.246  0.3031 -0.0701 -0.0238
 4216W        W20350   7.504   0.220   4.631  0.3178  0.1882 -0.0233
 4217W        W20351   9.345  17.229   4.013 -0.1997  0.0651 -0.0448
 4218W        W20352   4.262  18.737   3.531 -0.1417 -0.2544 -0.0742
 4219W        W20353  10.001  13.086   2.680 -0.2031  0.0743  0.1761
 4220W        W20354   0.817   2.271   0.078 -0.0209 -0.0904 -0.1798
 4221W        W20355  14.549   9.629   1.358 -0.0542 -0.1287  0.0535
 4222W        W20356   6.842   9.203   9.835 -0.0087 -0.0820 -0.2224
 4223W        W20357  11.136  18.116  13.950  0.0310 -0.0392 -0.1944
 4224W        W20358  16.590   6.425   1.545  0.1712 -0.1287  0.2933
 4225W        W20359   1.319   3.276   0.719  0.3705 -0.3575  0.0175
 4226W        W20360   3.679  12.360   2.779  0.2199 -0.0956  0.0490
 4227W        W20361  18.639  13.314  10.159 -0.1612 -0.3115  0.1548
 4228W        W20362   9.843   6.345   4.753 -0.1598 -0.0531 -0.0460
 4229W        W20363  17.677  18.531  12.360  0.3933 -0.3026 -0.1217
 4230W        W20364  16.267  11.605   2.594 -0.0682 -0.2129  0.3774
 4231W        W20365  17.417  12.388  14.439  0.0232 -0.0322  0.1112
 4232W        W20366   1.397  10.628   9.686  0.2148  0.0742  0.1375
 4233W        W20367  13.512   7.799  12.913  0.0560  0.0807  0.3919
 4234W        W20368   5.599   6.243  12.840  0.0822 -0.0284 -0.2353
 4235W        W20369  18.675   8.083   1.159  0.0183 -0.0221  0.1380
 4236W        W20370   0.940   3.098   2.221 -0.2369  0.0677  0.0370
 4237W        W20371  17.965   5.807   1.776 -0.1762 -0.0730 -0.0602
 4238W        W20372   7.606   4.061   0.062 -0.0474  0.1851 -0.1416
 4239W        W20373  11.086  15.974   1.408  0.3154 -0.4672  0.0194
 4240W        W20374  17.365   4.013  14.824  0.1974 -0.0358  0.3015
 4241W        W20375  14.488   3.807   3.603  0.1362 -0.1052  0.3894
 4242W        W20376  18.541   9.159  12.193  0.2354  0.1166 -0.0729
 4243W        W20377  15.645  16.120   2.649 -0.1012  0.0455  0.1384
 4244W        W20378   2.329   5.846   1.353  0.0960 -0.2059 -0.0471
 4245W        W20379  13.685   2.597  14.238 -0.3968 -0.2752  0.0773
 4246W        W20380   5.018  12.108  10.148 -0.2252  0.0021 -0.0623
 4247W        W20381  15.642  14.171   2.972 -0.5207  0.1504 -0.0875
 4248W        W20382   3.014  17.656   4.624 -0.0607 -0.2831  0.1765
 4249W        W20383   0.547   6.543  11.257 -0.1716  0.2050  0.0893
 4250W        W20384   1.150  12.962  11.739 -0.0620  0.1051 -0.0740
 4251W        W20385  15.984   2.404   0.331 -0.0332  0.2150 -0.0442
 4252W        W20386  18.861   2.211  10.719  0.1732  0.2992  0.3124
 4253W        W20387   8.516   2.908  14.780 -0.1807  0.1146  0.0735
 4254W        W20388  10.500   3.697  14.899  0.0863 -0.2630  0.0718
 4255W        W20389  10.721  14.682  10.881 -0.1549 -0.0212  0.0618
 4256W        W20390  12.290  13.916   4.730 -0.3044  0.0703  0.4201
 4257W        W20391  11.739  16.169  11.587 -0.3716  0.0842 -0.2418
 4258W        W20392   0.557  14.840   0.225  0.1149  0.0127 -0.3424
 4259W        W20393   3.696   4.496  13.858  0.0351 -0.1448 -0.1093
 4260W        W20394  19.113   9.937  11.563 -0.0399  0.2516  0.0954
 4261W        W20395   4.597  16.982   4.719  0.2523 -0.2087 -0.1071
 4262W        W20396  13.780   5.984   0.201  0.0273  0.0671  0.2445
 4263W        W20397  13.372   4.150   0.287 -0.1621 -0.0629 -0.2301
 4264W        W20398   7.553  18.833  12.790 -0.1034 -0.1437  0.1102
 4265W        W20399  11.321   4.333  13.202  0.1724 -0.0327  0.0222
 4266W        W20400   1.490  18.877  13.588 -0.1279  0.1112  0.0747
 4267W        W20401   1.584   0.559  11.449  0.0755  0.0373 -0.0319
 4268W        W20402   9.499  15.823  13.359 -0.1054 -0.1192 -0.1136
 4269W        W20403   1.992  19.090  11.731  0.0490 -0.2257 -0.1712
 4270W        W20404  13.077   4.790   1.595 -0.2708  0.0203  0.1320
 4271W        W20405   8.185  10.431   0.561 -0.0526  0.1216 -0.0273
 4272W        W20406  17.433  19.328   5.587  0.3096  0.2863 -0.1698
 4273W        W20407   1.411  17.383  11.274 -0.1232 -0.1296  0.0348
 4274W        W20408   2.143   9.031  11.823  0.4042 -0.3374  0.3215
 4275W        W20409  17.609   9.943   1.516 -0.2657 -0.2883 -0.0804
 4276W        W20410   6.120  14.475   1.199  0.3586 -0.3876 -0.0954
 4277W        W20411   0.787   6.757   4.390 -0.0411 -0.2796 -0.1083
 4278W        W20412  12.492   1.238   1.738 -0.0780  0.0242  0.1474
 4279W        W20413  13.892  17.611   0.793 -0.0623  0.0085 -0.4378
 4280W        W20414  18.536  11.810   4.263 -0.1576  0.1292 -0.0431
 4281W        W20415   3.203  16.116  11.003  0.0093  0.0837 -0.1528
 4282W        W20416   2.723   9.937  14.035  0.2910  0.4096 -0.4886
 4283W        W20417   2.310  16.949  11.576 -0.1887  0.4791 -0.0006
 4284W        W20418   0.142  19.219   3.512  0.0163  0.2540 -0.2350
 4285W        W20419  10.528  15.256   1.513 -0.0824  0.0631 -0.0623
 4286W        W20420   9.182   1.509   0.478  0.0060 -0.2143  0.1387
 4287W        W20421   3.532   4.832   1.425  0.2663 -0.0453  0.3096
 4288W        W20422  16.178   1.677  11.968 -0.0730  0.1316  0.0422
 4289W        W20423   9.914  13.544  13.870 -0.0951 -0.1998  0.1479
 4290W        W20424   0.365   0.406   4.492 -0.0672  0.2022 -0.3579
 4291W        W20425   1.649   3.234   4.521 -0.0938 -0.0029  0.0614
 4292W        W20426   6.054   0.953  14.659 -0.0202 -0.3126 -0.0970
 4293W        W20427   2.533   1.534   4.422  0.2141 -0.1039 -0.2641
 4294W        W20428  16.039   7.775   1.269 -0.1338  0.0122  0.0839
 4295W        W20429   0.271  11.972  11.374  0.4081 -0.0913  0.2162
 4296W        W20430  17.828  13.578   0.933  0.2930 -0.1615  0.0536
 4297W        W20431  10.215  10.426  13.662 -0.0386  0.2381 -0.1922
 4298W        W20432  11.568   1.906  14.093  0.0757 -0.2121  0.3345
 4299W        W20433   8.736  10.965  13.099  0.4329  0.1155 -0.1712
 4300W        W20434  14.225   0.809   1.438  0.1369  0.0136 -0.2173
 4301W        W20435  11.004   1.997   0.960 -0.0953  0.3707  0.0685
 4302W        W20436   0.809  14.060  11.911 -0.1309 -0.3424  0.2518
 4303W        W20437   5.640   7.416   3.885 -0.3504 -0.1819 -0.1758
 4304W        W20438   5.412   0.811  10.131  0.0553 -0.0480  0.4289
 4305W        W20439   5.853   3.656  13.644  0.0288 -0.1095 -0.2133
 4306W        W20440   8.611  13.516   2.668  0.0518 -0.0562 -0.0302
 4307W        W20441   4.867  13.387   2.101 -0.0671  0.1797  0.2157
 4308W        W20442   4.907  16.838   2.270  0.2731  0.0098  0.4756
 4309W        W20443   0.010   7.135  12.703 -0.0364 -0.3505 -0.0026
 4310W        W20444  18.089  15.419  11.808 -0.2643  0.3537 -0.0805
 4311W        W20445  12.699  14.366  11.257 -0.0850  0.1020 -0.2583
 4312W        W20446   3.196  17.583   1.443 -0.1043  0.0099  0.1327
 4313W        W20447   2.817  11.618  11.880 -0.3483  0.0364 -0.0062
 4314W        W20448  18.963  14.384   9.820  0.2547  0.3005 -0.1165
 4315W        W20449   4.657   1.158   0.840  0.3006  0.0773  0.3164
 4316W        W20450   6.383  12.722  11.007 -0.3379 -0.1690  0.0523
 4317W        W20451  12.529  10.211   2.728  0.0684 -0.0427  0.0599
 4318W        W20452  12.541  17.600  14.680  0.3517 -0.1099 -0.2276
 4319W        W20453  15.914  10.430  12.450 -0.0159  0.1297 -0.3507
 4320W        W20454   3.276   6.635  14.281  0.1223 -0.4041  0.4358
 4321W        W20455   9.645  10.697   2.879 -0.1531 -0.0149 -0.2567
 4322W        W20456   4.652  13.226   4.367  0.2003 -0.2151  0.0636
 4323W        W20457  14.461   4.795   1.054  0.1978 -0.0159 -0.1215
 4324W        W20458   4.045  10.644  11.734 -0.1036 -0.3568 -0.2357
 4325W        W20459   0.736  14.902  12.688 -0.4946  0.3831  0.0177
 4326W        W20460  16.208   9.331  11.136 -0.1741 -0.2288  0.2223
 4327W        W20461   6.672  17.011  14.754 -0.1351  0.4367 -0.0366
 4328W        W20462  14.379  18.556  14.875  0.2626  0.0744  0.0746
 4329W        W20463  16.337   1.432   3.908 -0.0667 -0.0437 -0.0868
 4330W        W20464  19.224  13.427  10.973 -0.0556 -0.1549  0.1436
 4331W        W20465   3.503   1.363  12.465 -0.2193  0.3704  0.3509
 4332W        W20466  11.987   2.957   3.450  0.1861 -0.1473  0.0292
 4333W        W20467   6.098  17.801   2.496  0.1257  0.2728 -0.3685
 4334W        W20468   8.632   9.753   2.106  0.1321 -0.0401 -0.2392
 4335W        W20469   2.607   9.540   1.556  0.1538  0.1351 -0.0932
 4336W        W20470  17.667   0.202  14.167 -0.2222 -0.0257  0.0549
 4337W        W20471   6.557   0.178   3.128  0.1460  0.1077  0.0169
 4338W        W20472  10.965   1.612   4.464  0.3177 -0.2861 -0.0297
 4339W        W20473  15.794   0.783   4.980 -0.2612 -0.4106 -0.1061
 4340W        W20474  14.851  12.135  11.877  0.1379  0.0680  0.0906
 4341W        W20475   8.842  19.137   4.299 -0.0059 -0.2511 -0.2105
 4342W        W20476  18.776   4.199  13.876 -0.0756  0.1097  0.0730
 4343W        W20477   7.520  16.051   9.970  0.1385  0.0986 -0.0666
 4344W        W20478   5.465   4.103  12.151 -0.0007  0.1484  0.1842
 4345W        W20479   2.657  16.342  14.792 -0.0712 -0.0501 -0.3932
 4346W        W20480  14.839   8.872   0.801  0.4959  0.2772  0.5217
 4347W        W20481  11.150  19.074   1.020  0.2179  0.1731  0.2360
 4348W        W20482  11.008  16.633  11.434  0.0828 -0.1126  0.0692
 4349W        W20483   8.449   6.095  13.923 -0.0872 -0.1449  0.1546
 4350W        W20484  10.997   2.951   4.539  0.0573 -0.0597 -0.4815
 4351W        W20485   6.874   4.550  14.340 -0.0538  0.1139  0.0549
 4352W        W20486   8.265  10.240  13.488  0.0629 -0.0244 -0.0072
 4353W        W20487   1.516  11.270   4.978 -0.0694 -0.1842 -0.0358
 4354W        W20488   2.128   4.837   8.984  0.1068 -0.0870  0.0231
 4355W        W20489  15.765   7.601   0.260  0.0800 -0.1675  0.1451
 4356W        W20490  17.547   0.687  14.868  0.1044  0.0740  0.3565
 4357W        W20491   5.699   4.084  14.792 -0.1045  0.2204  0.0340
 4358W        W20492   6.068  10.282   4.474 -0.1445  0.2393  0.1200
 4359W        W20493   9.603  18.790  13.951 -0.0467 -0.0286 -0.0614
 4360W        W20494  15.542   2.678   0.505 -0.0101 -0.1032 -0.0293
 4361W        W20495  10.059   4.069   1.326  0.1307  0.0054 -0.1096
 4362W        W20496   9.127   0.701   5.206 -0.0657 -0.0443 -0.0181
 4363W        W20497  11.836   4.678  13.219 -0.0130 -0.1776 -0.0474
 4364W        W20498   8.262  18.030   0.117 -0.1178 -0.2326 -0.2501
 4365W        W20499  10.144  13.129   1.494 -0.0192 -0.1091 -0.1179
 4366W        W20500  16.080   2.032  13.035 -0.1549  0.0917  0.0208
 4367W        W20501  10.026   0.389   3.010 -0.2558  0.1517 -0.0852
 4368W        W20502  12.110  18.994   4.115  0.0738  0.1475 -0.4352
 4369W        W20503  17.997   3.987   2.287  0.0647  0.1455  0.1176
 4370W        W20504  10.164   8.595   0.295  0.1883 -0.3423 -0.0451
 4371W        W20505  18.949   6.481  14.683 -0.3140 -0.2046 -0.0127
 4372W        W20506   7.799  11.411  14.511 -0.3041 -0.1043  0.1705
 4373W        W20507   4.731   1.683   4.277  0.0384 -0.3816 -0.3250
 4374W        W20508  15.297   3.267   1.263 -0.0256 -0.2153  0.0265
 4375W        W20509  11.358   8.063  12.316  0.0737 -0.0990 -0.0097
 4376W        W20510  13.515   4.953  10.783  0.0035 -0.0486 -0.1199
 4377W        W20511   8.745   0.395  14.820  0.0046  0.0182 -0.2489
 4378W        W20512  18.913   2.250   2.644 -0.0315  0.3970 -0.1703
 4379W        W20513  13.833  16.910   1.574  0.1698 -0.1766  0.1447
 4380W        W20514  10.813  13.572   0.887 -0.2041  0.2027 -0.0398
 4381W        W20515  19.126   2.888  11.633  0.1206 -0.3665 -0.2523
 4382W        W20516   5.386  10.980  14.576  0.1808  0.4044  0.4000
 4383W        W20517  11.367  15.047   1.273 -0.1697  0.3019 -0.2957
 4384W        W20518   6.117  11.017  11.173  0.1299 -0.3129 -0.2669
 4385W        W20519  10.777   1.446  14.571  0.1571 -0.3787  0.2975
 4386W        W20520  11.571  15.695  13.898 -0.2640  0.0340  0.3073
 4387W        W20521  16.491  18.970   1.377  0.1738 -0.1974 -0.0223
 4388W        W20522   6.670   4.837  12.390  0.0403  0.1813  0.1868
 4389W        W20523   8.550   0.425   2.934 -0.1063 -0.2577 -0.2502
 4390W        W20524   7.285  14.220  14.114 -0.1185  0.0112 -0.1006
 4391W        W20525   0.588   6.270   4.356 -0.3520  0.2367 -0.0462
 4392W        W20526   2.135  15.169  12.382  0.1639 -0.1199  0.0654
 4393W        W20527   7.359  10.642  12.848 -0.0736  0.0757  0.1238
 4394W        W20528  15.031  15.975   4.003 -0.0602 -0.0063 -0.2811
 4395W        W20529   8.612   5.878   2.339  0.1285 -0.4105 -0.0722
 4396W        W20530   7.832   9.149  14.479 -0.1352 -0.1236  0.4972
 4397W        W20531   3.749  18.356   0.185 -0.2235 -0.0761 -0.0686
 4398W        W20532  12.951   5.400   4.778 -0.2282  0.0555 -0.0251
 4399W        W20533  12.382   5.916  11.607 -0.0444  0.0668 -0.0758
 4400W        W20534  18.861   2.779  10.242  0.1120  0.2192  0.0981
 4401W        W20535  17.358  12.943   1.611  0.1636  0.0165 -0.0018
 4402W        W20536   2.554  17.761   4.348 -0.0371  0.2303  0.2661
 4403W        W20537   7.787   0.468  12.742  0.1620  0.2042 -0.2692
 4404W        W20538   4.281   8.935  11.254 -0.0423 -0.1641 -0.0484
 4405W        W20539  16.693  11.788  11.651  0.0196 -0.0068  0.0592
 4406W        W20540   3.863  10.588  13.714  0.2389  0.1736  0.1197
 4407W        W20541   3.906   5.215  14.920  0.1424 -0.0226  0.2402
 4408W        W20542   4.208  12.396   2.808 -0.2460 -0.2199 -0.2272
 4409W        W20543   7.248   7.269  13.893  0.0529  0.1137  0.2438
 4410W        W20544   7.615  10.753   3.955  0.2630 -0.1045 -0.0588
 4411W        W20545  16.162   6.243  11.801 -0.1038 -0.0784  0.1263
 4412W        W20546  16.981  10.862  13.120 -0.1565  0.1491  0.0187
 4413W        W20547   9.527   5.650   0.143 -0.2301 -0.3094 -0.0362
 4414W        W20548  17.933  17.922  10.665  0.1597 -0.3457 -0.1487
 4415W        W20549  12.034   7.510   1.544 -0.1491  0.0652  0.0363
 4416W        W20550  16.271   6.466  13.106 -0.0748  0.0343 -0.3130
 4417W        W20551  16.335  15.113  11.540  0.3851 -0.0253 -0.0204
 4418W        W20552   6.257  13.359  11.760 -0.0536  0.5169 -0.2442
 4419W        W20553   3.306  15.241  13.915 -0.0926 -0.1371  0.0173
 4420W        W20554  14.134  16.814   4.406  0.3559 -0.3683  0.0204
 4421W        W20555  16.312   7.570  11.090 -0.0089 -0.0347 -0.3237
 4422W        W20556   9.043   6.640  12.784 -0.0392 -0.5984  0.0963
 4423W        W20557  15.494   3.389  14.414  0.4887 -0.1365 -0.0921
 4424W        W20558   9.311  10.463  10.139  0.1388  0.5027 -0.0549
 4425W        W20559   4.854  16.266   5.168  0.3013 -0.2512  0.1674
 4426W        W20560   9.764   6.567   5.203 -0.2404  0.2308 -0.2426
 4427W        W20561  17.035   1.002   3.285 -0.2354  0.3051  0.1924
 4428W        W20562   0.600  11.294  10.698 -0.1245 -0.1234  0.1450
 4429W        W20563   8.161  17.841   5.045  0.3054  0.1453 -0.0478
 4430W        W20564  15.190  10.666   4.964  0.0472  0.0507  0.1967
 4431W        W20565   6.439   6.980   3.570 -0.1008  0.0043  0.0081
 4432W        W20566  18.676   4.883  14.741  0.2797  0.2940  0.1892
 4433W        W20567   8.359  18.427  13.069  0.3096 -0.1941 -0.3185
 4434W        W20568   1.148  12.822  12.977 -0.2518 -0.1021 -0.2025
 4435W        W20569   8.808  16.356  14.446  0.1682 -0.2927  0.1565
 4436W        W20570  11.544   7.447   2.950  0.0741  0.1167  0.1045
 4437W        W20571   7.123   5.099   4.056 -0.0410 -0.4320  0.2067
 4438W        W20572  16.598  10.775  13.937 -0.1412 -0.0374  0.0364
 4439W        W20573   1.956  18.987   4.269  0.0194 -0.2888 -0.1302
 4440W        W20574   4.609   9.754   9.246 -0.1286  0.1770 -0.0020
 4441W        W20575   1.851   0.203  14.695 -0.4175 -0.1242  0.0215
 4442W        W20576   8.285   2.073  14.253  0.2988 -0.0736  0.0067
 4443W        W20577  11.970   6.767  13.989 -0.1305  0.0784  0.2631
 4444W        W20578   5.633   1.633   1.661 -0.1432 -0.0921 -0.1303
 4445W        W20579  13.819  12.561   0.071 -0.0566  0.0685 -0.3175
 4446W        W20580   7.040  17.010   3.159  0.0601 -0.1024 -0.0726
 4447W        W20581   6.801  10.906   4.767  0.1041 -0.0083  0.1372
 4448W        W20582  12.188   1.287  12.201  0.0367 -0.0074 -0.0251
 4449W        W20583   8.763  16.076  11.085 -0.1053 -0.2651  0.1760
 4450W        W20584  14.175   6.356  12.095 -0.0998 -0.1950  0.2456
 4451W        W20585   7.841   3.997  12.763  0.1280  0.2878  0.2413
 4452W        W20586   2.611  12.031  11.992  0.0964  0.0625 -0.1873
 4453W        W20587  11.224   7.515  13.000 -0.0731  0.0641 -0.0068
 4454W        W20588  15.213   2.801  13.033 -0.2799 -0.0769  0.3918
 4455W        W20589   1.746   0.525   3.508  0.0607  0.2309 -0.1941
 4456W        W20590  13.532   2.070   6.120 -0.0019  0.1610  0.2910
 4457W        W20591   6.522   3.981   0.140 -0.0298 -0.4243 -0.1996
 4458W        W20592  15.214   1.349   1.694  0.1213  0.1440 -0.3679
 4459W        W20593  10.071  17.192   4.601  0.1762 -0.3159 -0.1050
 4460W        W20594   3.364   4.925  13.664  0.0278 -0.1810 -0.0212
 4461W        W20595   1.586  14.428  10.818  0.0010  0.3804 -0.0085
 4462W        W20596   5.820  13.623   2.950 -0.0775 -0.0123 -0.1640
 4463W        W20597   2.415  17.468   1.531  0.4906  0.5903  0.1569
 4464W        W20598   6.277   6.491  12.533 -0.2534  0.0786 -0.1180
 4465W        W20599   7.092  18.450  10.644  0.0485 -0.1722  0.0261
 4466W        W20600  14.389  11.057  11.517  0.0143 -0.0445 -0.1241
 4467W        W20601   0.552  12.897   3.425  0.0425 -0.3097 -0.1485
 4468W        W20602   2.926   5.969   3.368  0.0978  0.4595  0.0027
 4469W        W20603  14.489   7.589   0.400  0.0404  0.0071 -0.0109
 4470W        W20604   5.956   4.193  12.452  0.2073  0.0409 -0.3697
 4471W        W20605   6.770  13.035   5.373  0.1347 -0.3456  0.0500
 4472W        W20606  17.555  14.532   0.670  0.2870 -0.1053 -0.2764
 4473W        W20607   7.005   1.942   3.663  0.1069  0.0274 -0.0591
 4474W        W20608  19.103  11.635  14.560  0.1440  0.1181  0.2569
 4475W        W20609  13.036  16.858   5.381 -0.0103  0.1592  0.3080
 4476W        W20610   7.171   9.071   3.362  0.0460  0.0207 -0.0231
 4477W        W20611  10.905   8.038   2.999 -0.1489 -0.5311  0.0301
 4478W        W20612  16.860   7.934   2.449 -0.0943 -0.1843  0.0590
 4479W        W20613   8.407   6.239   3.196  0.2790 -0.0151 -0.1091
 4480W        W20614   5.266   0.051  12.900  0.1978  0.2232 -0.1087
 4481W        W20615   8.599  14.862  13.750  0.1296 -0.0229  0.1190
 4482W        W20616  12.152  13.113  10.998 -0.0796 -0.3308 -0.0471
 4483W        W20617  15.762  17.217  10.985  0.1558 -0.3672 -0.1607
 4484W        W20618   3.238  15.492   1.480 -0.0305  0.2266  0.0180
 4485W        W20619   6.885   1.357  13.546 -0.1188 -0.1194  0.4330
 4486W        W20620   6.939   2.926  13.558 -0.0725  0.2659  0.0624
 4487W        W20621   6.674  18.148   2.127 -0.3648 -0.2156  0.3724
 4488W        W20622   7.486   3.536  11.996 -0.2485 -0.0004 -0.0862
 4489W        W20623  17.246  12.926  13.419 -0.0276  0.2257  0.0615
 4490W        W20624   4.280  10.875   3.305 -0.0625 -0.0228 -0.0816
 4491W        W20625   0.167  15.338   9.592 -0.3117 -0.2068 -0.1374
 4492W        W20626  18.042   8.609  14.134  0.0773  0.0237 -0.0272
 4493W        W20627   4.541  10.943  11.884 -0.1822 -0.1053 -0.1405
 4494W        W20628   2.434  12.398  11.676  0.7243 -0.2844 -0.4054
 4495W        W20629  17.980   1.359   0.977 -0.1546 -0.1778 -0.1242
 4496W        W20630   2.770   6.273  10.384 -0.1496 -0.1710  0.0964
 4497W        W20631  16.047  13.742  11.538  0.0504  0.2153  0.0715
 4498W        W20632   0.463  15.187  13.036  0.0041 -0.1536 -0.1894
 4499W        W20633  18.874  14.012  11.392 -0.1773  0.2597 -0.0570
 4500W        W20634  15.334   3.729   5.768  0.1624  0.2194 -0.2299
 4501W        W20635   9.519  13.042  12.111  0.2280  0.1043 -0.1737
 4502W        W20636   1.881   2.245  10.765 -0.1349 -0.1235  0.0455
 4503W        W20637  16.415  17.064   5.717 -0.0296 -0.4027  0.3504
 4504W        W20638  18.085   1.816  12.691 -0.0210  0.1695 -0.0791
 4505W        W20639   5.084   6.436  10.916 -0.3143 -0.0856 -0.0739
 4506W        W20640   4.511  13.013  11.772 -0.0991 -0.0225 -0.2244
 4507W        W20641   2.279  10.445   3.345 -0.1309 -0.6992  0.0589
 4508W        W20642  15.328  14.175   1.367 -0.0844  0.0290  0.0394
 4509W        W20643  14.503   7.039   4.612  0.4387  0.0470  0.0188
 4510W        W20644   8.253   0.657  11.985 -0.0841 -0.0455 -0.0739
 4511W        W20645   6.479   0.133  13.703  0.0363 -0.0331 -0.2044
 4512W        W20646  17.875   4.183   5.447 -0.1755  0.1240  0.1187
 4513W        W20647   6.338   5.714   0.913 -0.0142  0.1910  0.0793
 4514W        W20648   1.964  10.090   2.510 -0.0447  0.0284 -0.0752
 4515W        W20649  11.771   3.243   1.691  0.2068  0.1304  0.0640
 4516W        W20650  16.612   8.999   0.104 -0.2217  0.1424  0.2035
 4517W        W20651   4.295   6.363  13.116  0.2643 -0.0236 -0.1362
 4518W        W20652   7.471  18.169   0.469  0.2645 -0.0137  0.0588
 4519W        W20653  17.289  16.039  12.909  0.0191 -0.2245 -0.0378
 4520W        W20654   2.995   9.400   0.826 -0.1017 -0.3103 -0.0112
 4521W        W20655  17.415  17.469   1.138 -0.0720  0.0350  0.0482
 4522W        W20656   8.644  14.113   4.436  0.1404  0.3493 -0.1665
 4523W        W20657   1.980  18.156  11.167 -0.0263 -0.1148  0.1430
 4524W        W20658  16.972   1.104  12.851  0.0556 -0.1456  0.1242
 4525W        W20659  14.260  10.060   2.072 -0.3541 -0.0403  0.1841
 4526W        W20660  17.586  16.553  14.963  0.2514 -0.4485 -0.1225
 4527W        W20661   1.838   2.253   0.914  0.1418 -0.0145 -0.2286
 4528W        W20662  12.182   8.167  11.190  0.1111 -0.4241  0.1068
 4529W        W20663   7.268  16.641   0.451 -0.0768 -0.0949 -0.2002
 4530W        W20664  17.138  10.363  12.531  0.0028  0.1219 -0.2387
 4531W        W20665   0.025   7.420  11.378  0.0906 -0.0848 -0.1115
 4532W        W20666  13.191   2.297  10.745  0.2864  0.1451 -0.2630
 4533W        W20667  11.911   9.901   1.924  0.1429 -0.1853  0.1231
 4534W        W20668  18.306   6.005  10.257 -0.1076  0.2198  0.3065
 4535W        W20669  11.097  13.715  12.636 -0.2841  0.1573  0.1830
 4536W        W20670   7.152   8.318   0.679  0.1852  0.3725  0.0946
 4537W        W20671  17.485   7.075   3.613 -0.0729 -0.2284 -0.1939
 4538W        W20672  10.038   5.247   0.751  0.1694 -0.0531 -0.2769
 4539W        W20673  15.530  11.405   3.319 -0.0538  0.2308  0.0305
 4540W        W20674   6.950   6.445   2.751 -0.1881  0.1309 -0.1161
 4541W        W20675   5.638  15.129   2.695  0.0949 -0.2188 -0.0020
 4542W        W20676   5.924  16.781   2.424 -0.0570 -0.1522 -0.0187
 4543W        W20677   6.732   5.488   4.070 -0.2441  0.2078  0.2403
 4544W        W20678   2.637  13.713  11.670  0.0044  0.0468  0.2428
 4545W        W20679   9.621   1.604   3.215  0.2165 -0.1043  0.1126
 4546W        W20680  11.473  15.858   5.163 -0.2607  0.0119  0.1567
 4547W        W20681  13.015   9.028   4.434 -0.0555 -0.0397  0.1526
 4548W        W20682  17.068   8.638   0.003 -0.0575 -0.0189  0.4860
 4549W        W20683  15.212   6.337  12.692  0.0232  0.4344 -0.1111
 4550W        W20684   7.199   7.181  11.594  0.0541 -0.1234 -0.1102
 4551W        W20685   6.345  18.310  13.255  0.1956  0.3231  0.3177
 4552W        W20686  15.817   9.140  11.280 -0.4220  0.1672  0.2254
 4553W        W20687   5.503  11.888   2.218 -0.1854 -0.1927 -0.5358
 4554W        W20688   5.441  13.095   0.876  0.0004  0.2543 -0.1461
 4555W        W20689   7.707   2.218  12.102 -0.1408 -0.0120  0.0544
 4556W        W20690   8.043  10.868   9.990  0.1021 -0.1940  0.0497
 4557W        W20691  12.185  10.117   4.391 -0.1467  0.2418  0.0932
 4558W        W20692   7.058  13.717  14.961 -0.0487  0.0981 -0.2262
 4559W        W20693  17.333   0.826   0.358  0.4070  0.1805 -0.2356
 4560W        W20694  13.706   1.389  14.003  0.4671  0.0712  0.0997
 4561W        W20695  11.406  17.325   2.469 -0.0369  0.3875  0.0970
 4562W        W20696   1.198   5.196   0.518  0.0796 -0.0371 -0.1034
 4563W        W20697   3.315  13.114  13.652  0.0515  0.1724 -0.0570
 4564W        W20698  19.283  13.090   3.078 -0.0417  0.0086  0.1726
 4565W        W20699   8.449   7.982  11.474 -0.2843 -0.1243  0.2030
 4566W        W20700  10.685  12.028  14.008 -0.1021 -0.1622  0.0527
 4567W        W20701  13.522   8.063   2.332  0.1933 -0.2169  0.0833
 4568W        W20702   2.445  13.690   1.182 -0.2052 -0.0230 -0.1128
 4569W        W20703  10.971   1.353   4.024  0.0172  0.0449  0.0577
 4570W        W20704  11.349  17.653   6.022  0.1707  0.1224  0.0293
 4571W        W20705  14.513  15.739  14.333  0.1473 -0.0018 -0.2424
 4572W        W20706  17.903   4.347  12.691  0.0169 -0.0678 -0.2773
 4573W        W20707  13.761  14.532  14.792  0.0031  0.3060 -0.0552
 4574W        W20708   7.135  13.765  14.448 -0.3851 -0.1009 -0.2961
 4575W        W20709  18.662  16.481   5.209 -0.1207 -0.1513  0.0072
 4576W        W20710  13.448   4.562   4.700  0.0438 -0.2823  0.1420
 4577W        W20711   7.514  13.503  14.004 -0.1632 -0.1213 -0.2070
 4578W        W20712   8.773   5.813   1.446 -0.1487 -0.2720 -0.1079
 4579W        W20713   1.959  13.762   0.904 -0.0028  0.2061  0.1794
 4580W        W20714   2.471  10.453   0.159 -0.0877  0.1134  0.2076
 4581W        W20715   5.885  18.072   3.042 -0.3381  0.2258  0.0414
 4582W        W20716   2.099  16.931  10.257  0.1665 -0.4328 -0.1104
 4583W        W20717  12.270  12.750   3.973 -0.1118 -0.1392  0.4965
 4584W        W20718   0.809   6.846  13.452 -0.0058  0.0146 -0.1925
 4585W        W20719  15.313  11.561  14.715 -0.0906 -0.0264  0.0218
 4586W        W20720   8.962  13.392  11.676  0.3283  0.1851  0.1251
 4587W        W20721   4.721  12.188   2.868  0.0918 -0.2372 -0.0406
 4588W        W20722   0.862   0.919  11.013 -0.1711  0.4154  0.1563
 4589W        W20723  14.746  15.501   1.128  0.0490  0.3762  0.1207
 4590W        W20724   7.034  17.881   4.049 -0.2771 -0.0684 -0.0586
 4591W        W20725  18.029  12.840  11.944  0.0079  0.1302 -0.0888
 4592W        W20726   6.187  19.087   3.183  0.0336  0.1318  0.0467
 4593W        W20727   0.360   1.764  13.006  0.2620 -0.0570 -0.1743
 4594W        W20728   4.467   0.456   1.571 -0.0716 -0.3337  0.3623
 4595W        W20729   8.615  14.439  11.921 -0.1904  0.2683  0.1690
 4596W        W20730  14.327  15.058   3.343 -0.0380  0.1178  0.2656
 4597W        W20731   2.781   8.454   0.441  0.1362  0.2430 -0.1419
 4598W        W20732   2.144   7.102  14.125 -0.2454  0.0764 -0.1675
 4599W        W20733  14.231  16.476  11.878 -0.0846  0.1554 -0.0810
 4600W        W20734  14.346   2.713   3.303  0.1644  0.0807 -0.0002
 4601W        W20735   1.127   0.581  10.623  0.1691  0.0675 -0.5749
 4602W        W20736  16.116  14.174   4.254 -0.4134  0.2174 -0.3941
 4603W        W20737   5.361   4.450   2.538 -0.3118  0.0707  0.2687
 4604W        W20738   7.950  17.897  13.770 -0.0686  0.0168  0.3595
 4605W        W20739  17.371   8.640   2.972  0.1422  0.0065  0.1522
 4606W        W20740  15.049   4.624   2.810 -0.0030 -0.2231  0.0148
 4607W        W20741  12.877   3.647   2.547  0.1383 -0.1707 -0.0449
 4608W        W20742   7.030  14.803   0.491  0.1524  0.1464 -0.1089
 4609W        W20743   1.774  17.329   2.485  0.2443  0.0521 -0.3411
 4610W        W20744   7.685  17.646   3.435  0.0703  0.1344 -0.3432
 4611W        W20745   7.626   4.212  10.786 -0.3011  0.0087 -0.0508
 4612W        W20746   5.671  17.664   0.689 -0.0192  0.0199  0.0605
 4613W        W20747  18.998   1.668  10.631 -0.0689  0.0922  0.1692
 4614W        W20748   0.496   4.962  10.703 -0.0239 -0.2243  0.0739
 4615W        W20749   1.426   7.927   2.116  0.2582  0.2582  0.1897
 4616W        W20750  13.471   8.978   5.949 -0.1577  0.0582 -0.2270
 4617W        W20751  16.186  13.324   3.366 -0.1410 -0.2334 -0.0141
 4618W        W20752   7.359  17.779  10.964  0.0023  0.2399  0.1489
 4619W        W20753  12.627  10.924  10.534  0.1534  0.3176  0.0129
 4620W        W20754  10.771  10.164   4.458 -0.2169 -0.1494 -0.2297
 4621W        W20755   7.126  17.605  12.472 -0.3266  0.0723  0.0835
 4622W        W20756  13.945  18.581  12.057 -0.3417  0.0245 -0.4569
 4623W        W20757   2.182   1.013   0.165 -0.0011  0.0257 -0.2249
 4624W        W20758  18.200  13.108  11.511 -0.0365  0.0252  0.1278
 4625W        W20759  13.026   7.768  13.636 -0.1911 -0.3754 -0.0458
 4626W        W20760   2.965  13.760   2.659 -0.1254 -0.0503  0.3251
 4627W        W20761   8.566  13.080  11.699  0.0123  0.3315 -0.1239
 4628W        W20762   1.524  12.483   1.455  0.2534 -0.1229 -0.0243
 4629W        W20763  11.405  16.928  11.168 -0.3557 -0.0212 -0.0040
 4630W        W20764  10.616   0.240   4.525  0.1540  0.3623  0.0748
 4631W        W20765   9.491   0.742  14.606 -0.2162  0.0293  0.1480
 4632W        W20766   4.880   6.425  13.044  0.2048 -0.1585  0.1742
 4633W        W20767  10.739   4.753  13.013 -0.0104  0.2253  0.3015
 4634W        W20768  19.149   1.185  14.354  0.1192  0.2587 -0.2576
 4635W        W20769  19.085   6.151   2.826  0.0698  0.0290 -0.4286
 4636W        W20770  11.354   5.234  10.368 -0.0766 -0.1901  0.2447
 4637W        W20771   7.552   0.457  14.739 -0.0869  0.1120 -0.0972
 4638W        W20772   4.536  14.295  14.964 -0.2784  0.2319 -0.1502
 4639W        W20773   3.549  14.088  13.185  0.1709 -0.2423  0.0307
 4640W        W20774   1.763   7.723  14.900  0.0691  0.1356  0.0734
 4641W        W20775  14.103   4.180  10.879 -0.3986  0.3855  0.0318
 4642W        W20776   9.431  19.275  13.552  0.3280 -0.2594  0.0806
 4643W        W20777  11.371   9.933   0.289 -0.1611 -0.4823  0.0867
 4644W        W20778  11.591  17.753   2.094  0.0525  0.2408  0.0259
 4645W        W20779   1.526  15.005   4.102 -0.0000 -0.3501  0.3203
 4646W        W20780   8.762   6.889  13.816  0.0664  0.4290 -0.0389
 4647W        W20781   5.145   2.211   3.647 -0.2392 -0.1103 -0.2133
 4648W        W20782  17.638  19.053  13.521  0.1123  0.0926 -0.1257
 4649W        W20783   8.109   7.061  10.099 -0.1678 -0.0502  0.1480
 4650W        W20784  11.918  13.059   3.707  0.4992 -0.1039  0.0181
 4651W        W20785  18.402  14.376  13.314 -0.2986  0.3358  0.0625
 4652W        W20786   0.216  17.545  14.303  0.0755  0.0073 -0.3213
 4653W        W20787  18.208   4.797   4.858 -0.2780  0.1673  0.5469
 4654W        W20788  15.116  17.834   5.353 -0.3009  0.2336 -0.0671
 4655W        W20789   8.722  17.447   2.552 -0.1412  0.1245 -0.1627
 4656W        W20790  13.417   0.960   3.083  0.2009 -0.0841 -0.2929
 4657W        W20791  14.207   4.747   3.317 -0.0611 -0.0403 -0.0656
 4658W        W20792   7.688  16.447  12.168 -0.1237 -0.1113  0.0773
 4659W        W20793   0.877  14.115   5.461 -0.1362  0.1581  0.2430
 4660W        W20794   7.316   1.570  10.436  0.1528 -0.0906  0.0850
 4661W        W20795  17.855  14.505   3.219  0.1102  0.2092  0.0288
 4662W        W20796  11.715   0.273   5.326  0.1697 -0.2512 -0.0561
 4663W        W20797   5.031  11.981   2.238  0.0066 -0.3293  0.2535
 4664W        W20798   2.734   8.665  11.033 -0.2712  0.1978 -0.2736
 4665W        W20799  11.986   4.472  10.604  0.0316  0.4248  0.1132
 4666W        W20800   3.561   2.663  14.819  0.4823 -0.0951  0.1463
 4667W        W20801   9.714  17.181   5.033 -0.0486  0.0077 -0.3784
 4668W        W20802  11.992   2.072   5.150  0.0933  0.1277  0.1531
 4669W        W20803  15.179  13.144   1.169 -0.0528 -0.0303  0.0861
 4670W        W20804  13.182  12.185   0.793  0.1686  0.0138  0.0592
 4671W        W20805  17.626  11.851  11.298 -0.0629  0.2733  0.3771
 4672W        W20806   5.063  18.667   1.762  0.1558 -0.0834 -0.1853
 4673W        W20807   9.327  10.788  13.144  0.0166 -0.2223  0.1047
 4674W        W20808  13.616  18.353  12.404 -0.2144 -0.1284  0.0280
 4675W        W20809   5.074  18.404  12.500  0.1962 -0.2924  0.2348
 4676W        W20810  12.758  18.695  11.134  0.0057 -0.1640  0.2032
 4677W        W20811   1.282  12.802  12.370  0.1414  0.0453  0.2213
 4678W        W20812  16.451  14.958   0.998 -0.1972 -0.0967  0.2682
 4679W        W20813  14.947  10.657  14.946  0.1974 -0.1151 -0.1149
 4680W        W20814   1.439  13.555   1.854 -0.0637  0.1547 -0.2440
 4681W        W20815   7.382   0.651  12.365  0.0034 -0.0695 -0.3492
 4682W        W20816  16.529   4.536   3.685 -0.0390  0.1246  0.1945
 4683W        W20817   9.594   7.714   5.335 -0.2385  0.0291 -0.0519
 4684W        W20818   2.259  14.115  14.796  0.0283 -0.1410 -0.2928
 4685W        W20819  14.453   7.347   2.110 -0.0126 -0.1331 -0.2597
 4686W        W20820   1.416  11.117  12.184  0.0277 -0.1099 -0.0255
 4687W        W20821  17.621   2.379   3.077  0.2169 -0.0856 -0.1260
 4688W        W20822   9.115   0.254  11.313 -0.4347  0.1992 -0.1990
 4689W        W20823  11.830   8.631  11.251 -0.4924 -0.0186  0.3567
 4690W        W20824   0.678   2.915  12.798 -0.1892 -0.1811  0.0429
 4691W        W20825   1.077  18.242   5.309 -0.0942  0.4112  0.1653
 4692W        W20826   5.989  17.629   3.847  0.0197  0.1185  0.0654
 4693W        W20827   9.574   9.975   1.992 -0.2325  0.3028  0.1882
 4694W        W20828  10.319   4.394  14.626 -0.1260  0.2594 -0.1395
 4695W        W20829   4.528   8.979  14.695  0.0225 -0.0318  0.1137
 4696W        W20830  19.124  17.398   3.752  0.2093 -0.1888  0.3173
 4697W        W20831   9.164  16.072   5.739 -0.0739 -0.1712  0.1339
 4698W        W20832  14.439  16.395   3.887  0.0372  0.1356  0.3073
 4699W        W20833  13.664  15.444   4.737  0.0606  0.1364  0.0206
 4700W        W20834   5.811  13.254  10.927 -0.0733  0.1704 -0.3495
 4701W        W20835  18.943  14.372  12.152  0.1789 -0.1325 -0.3759
 4702W        W20836   4.873  10.819   4.650  0.1804 -0.0486  0.1238
 4703W        W20837   7.151   7.856   2.413 -0.4189  0.2151 -0.0267
 4704W        W20838  11.542   3.395   0.289  0.1306  0.0334 -0.1605
 4705W        W20839  12.728   4.141   1.044  0.1630  0.4901 -0.0122
 4706W        W20840  18.711  10.111  13.474  0.2239  0.0762  0.0935
 4707W        W20841  16.907  19.267  11.407 -0.0663  0.2269  0.0313
 4708W        W20842   1.006   6.590  11.363 -0.2657 -0.0010 -0.2635
 4709W        W20843  13.356  15.288   5.788  0.0572  0.0286 -0.1690
 4710W        W20844   3.329   0.091  13.601  0.0678 -0.0276  0.5107
 4711W        W20845  10.774   5.920   3.807 -0.0521  0.1686  0.0991
 4712W        W20846  15.384  18.706  13.899  0.1176 -0.0770 -0.0470
 4713W        W20847  14.894  18.314  13.013  0.2412 -0.1757 -0.1838
 4714W        W20848   6.338   3.241  14.886 -0.0584  0.2359 -0.2173
 4715W        W20849   4.362   6.859   0.231 -0.1947 -0.0426  0.0610
 4716W        W20850  10.310   5.564   4.994  0.1321  0.1986 -0.0865
 4717W        W20851  13.288   5.111   1.969 -0.4752 -0.0744 -0.0881
 4718W        W20852  18.427   7.840   3.844  0.0946 -0.0700 -0.0555
 4719W        W20853   3.001   0.758   3.852 -0.0902  0.0312  0.3628
 4720W        W20854   5.279  16.464  14.895 -0.0504  0.3700  0.0464
 4721W        W20855  12.731   3.710  11.477  0.3473  0.1177 -0.2319
 4722W        W20856  14.376  15.897   1.040 -0.0184  0.0684  0.1627
 4723W        W20857  16.735  18.481  12.017  0.2852 -0.1984  0.0030
 4724W        W20858   5.273  16.412  10.243  0.1776 -0.2207  0.2217
 4725W        W20859  17.783   9.811   2.057 -0.2076 -0.1091 -0.2294
 4726W        W20860   4.891  11.712   3.065  0.1076 -0.5793  0.0420
 4727W        W20861  12.155  10.276  11.819 -0.4471  0.3620 -0.1579
 4728W        W20862  13.606  17.196  14.815  0.0410 -0.1456 -0.2631
 4729W        W20863   2.853   4.327  14.080 -0.2050  0.0273  0.2917
 4730W        W20864  17.798  11.136  11.440 -0.1487 -0.1916  0.1085
 4731W        W20865   3.131  18.322   4.192  0.0703  0.1243  0.2220
 4732W        W20866  12.785   2.740  13.883 -0.2872 -0.0409 -0.1481
 4733W        W20867   2.532   9.653   2.618 -0.0648  0.1521  0.1677
 4734W        W20868   1.164   7.257   0.552  0.0553  0.1937  0.1003
 4735W        W20869   6.241   7.896  11.435 -0.4591  0.0582  0.3971
 4736W        W20870  10.227   0.916  11.437 -0.3313  0.2652 -0.1799
 4737W        W20871   2.806  11.673   4.408 -0.2694 -0.1244 -0.0021
 4738W        W20872  12.569   4.993   4.627  0.1411 -0.0246 -0.1726
 4739W        W20873  11.582   9.291   4.133 -0.4270  0.1229 -0.0775
 4740W        W20874   1.364  16.054   2.057 -0.0250 -0.1593 -0.0485
 4741W        W20875  15.161   5.371   0.640  0.3404  0.1700 -0.1585
 4742W        W20876  13.010   4.901   3.476 -0.2705 -0.2145 -0.2736
 4743W        W20877   9.562   0.425  11.012 -0.3594 -0.1587 -0.0147
 4744W        W20878   7.370  17.235  10.677  0.1160  0.1082 -0.1391
 4745W        W20879   0.850   8.519  14.433 -0.1916  0.0597 -0.0002
 4746W        W20880  17.943   1.891   0.103  0.3573  0.0746 -0.2395
 4747W        W20881  19.341   6.268   4.302 -0.1227 -0.0998 -0.0480
 4748W        W20882   8.080   0.360  13.199  0.2242  0.0260  0.0392
 4749W        W20883   8.769   5.369  14.660  0.1155  0.0839  0.1840
 4750W        W20884   1.981  14.624   4.752  0.2815 -0.0082 -0.2666
 4751W        W20885   3.867  17.325  13.369  0.0154  0.1033  0.1454
 4752W        W20886  18.200   5.606   9.979 -0.1449  0.0817  0.0396
 4753W        W20887   5.087   6.784  14.399  0.0846  0.0994 -0.0315
 4754W        W20888   8.359  18.119  14.098 -0.2393 -0.0722  0.1693
 4755W        W20889  11.401   5.151   4.731 -0.0772  0.0248  0.0704
 4756W        W20890  18.452   0.231   4.023  0.1218 -0.2324 -0.1074
 4757W        W20891  15.515  16.486   5.514  0.1989 -0.2618 -0.1826
 4758W        W20892  12.101  13.268   0.540  0.1189  0.2632  0.0855
 4759W        W20893  12.676   1.010  10.555  0.0991 -0.1703  0.0788
 4760W        W20894  12.056  15.279  12.969 -0.2024  0.2573  0.1446
 4761W        W20895  12.412   0.707  10.904 -0.1902  0.0255 -0.2570
 4762W        W20896  18.904  19.128   3.460  0.2160 -0.2027  0.1303
 4763W        W20897   1.501  11.427  13.716  0.1007  0.3021 -0.1187
 4764W        W20898  10.094  18.552   1.096  0.0840 -0.0508 -0.0677
 4765W        W20899   9.389  17.650  12.167  0.1209  0.1768  0.2489
 4766W        W20900  14.270   5.616   4.318  0.2335  0.1524 -0.1383
 4767W        W20901  13.666   0.083   2.491  0.2413 -0.2398  0.2272
 4768W        W20902   5.136   8.990  13.420 -0.0765 -0.0056 -0.0383
 4769W        W20903   7.738  12.797  12.995  0.1425  0.0260 -0.0929
 4770W        W20904   7.473  13.671   5.237  0.1975 -0.1759  0.1621
 4771W        W20905   1.299  15.622  14.095 -0.1059  0.1176 -0.2122
 4772W        W20906   6.738  15.927  11.575  0.0483  0.0499  0.2643
 4773W        W20907  17.167   7.267   4.070  0.3429 -0.0650  0.0024
 4774W        W20908  10.516   3.883   4.411 -0.2910  0.0294 -0.1108
 4775W        W20909  12.695  11.807  10.814  0.0175 -0.1827 -0.0946
 4776W        W20910  17.106   7.355  13.814  0.0340 -0.1612 -0.0186
 4777W        W20911   2.626  16.809   1.091 -0.0634  0.0674  0.0745
 4778W        W20912  10.822  11.587   3.358 -0.2862  0.0377  0.1323
 4779W        W20913   0.190   5.307  14.897 -0.1784 -0.0291 -0.0365
 4780W        W20914   4.886   1.392   0.475 -0.0302 -0.4089 -0.1536
 4781W        W20915   2.255  13.225  12.259  0.0776 -0.2781 -0.2017
 4782W        W20916   5.360   4.415  13.183  0.0818 -0.2433 -0.0976
 4783W        W20917  18.564   8.931  11.719  0.2976  0.1504 -0.0324
 4784W        W20918  18.764   5.255  11.700 -0.1272 -0.0803  0.3535
 4785W        W20919  15.280   7.797   1.947  0.0982 -0.0137 -0.0321
 4786W        W20920   0.549  17.543   4.273 -0.1660 -0.1740 -0.0271
 4787W        W20921  18.229   4.632   0.521  0.1054 -0.1410 -0.1628
 4788W        W20922  12.387   7.071  10.321 -0.0634 -0.1439 -0.0595
 4789W        W20923   9.136   9.237  14.700  0.0633 -0.1065 -0.2834
 4790W        W20924   9.001   5.556  11.952 -0.0054 -0.0278 -0.0658
 4791W        W20925  15.870  18.850  12.195  0.1146  0.3780  0.4532
 4792W        W20926   9.269   3.669   0.319 -0.0793  0.0055  0.1731
 4793W        W20927  15.189   1.934   2.593 -0.0226 -0.1449  0.1081
 4794W        W20928  18.653   0.114  12.086 -0.0317  0.0424  0.3927
 4795W        W20929  10.434   6.665   0.936 -0.0331  0.0189 -0.3212
 4796W        W20930  15.350   3.499   2.476 -0.2776 -0.0039 -0.0886
 4797W        W20931   1.656  17.501  12.622  0.1559  0.1589  0.0343
 4798W        W20932   1.327  10.129  12.771 -0.1892  0.0385 -0.2240
 4799W        W20933  12.160   3.286  14.928 -0.1529  0.2118 -0.4939
 4800W        W20934   0.654  17.888   1.208 -0.0239  0.1181 -0.0044
 4801W        W20935   2.053   1.469  12.988 -0.1243  0.1816 -0.0149
 4802W        W20936  13.018   7.701  13.098 -0.1550  0.1692  0.2195
 4803W        W20937  17.045  15.213   3.874  0.1421 -0.2069  0.2336
 4804W        W20938  11.688   7.666  13.852  0.1973  0.1046  0.0722
 4805W        W20939   9.674  18.769   0.324 -0.1358 -0.1749 -0.0283
 4806W        W20940  16.660  12.620   3.847  0.1028 -0.1552  0.1210
 4807W        W20941   7.038   3.382  12.199 -0.2445  0.1704 -0.2079
 4808W        W20942   5.141   5.790   8.155  0.0106 -0.1448  0.1777
 4809W        W20943   5.520   0.280   3.029 -0.1251 -0.1248  0.1456
 4810W        W20944   0.501  18.443  14.855 -0.2628  0.1651  0.1143
 4811W        W20945   9.454  14.366   0.127  0.0472 -0.1371 -0.0142
 4812W        W20946  14.606   3.809  14.256  0.0478  0.2556 -0.1477
 4813W        W20947  13.702   1.871   4.423  0.1923 -0.1599  0.0007
 4814W        W20948   7.380   0.111  14.345 -0.4587 -0.1449 -0.1393
 4815W        W20949   8.404  17.283  12.078 -0.0679 -0.0166  0.2958
 4816W        W20950  16.488  18.635   3.172  0.3623  0.1308  0.0277
 4817W        W20951   0.258  11.534  11.080  0.0868  0.2687  0.2983
 4818W        W20952   9.713  18.246   3.237 -0.1456 -0.1335  0.2881
 4819W        W20953   4.407   1.181  14.526  0.1095  0.0995 -0.4993
 4820W        W20954  10.942  12.116   3.105 -0.2205  0.2199 -0.0561
 4821W        W20955  17.851  15.078  12.357 -0.1801  0.0803  0.2072
 4822W        W20956   7.704   7.248  14.716 -0.2443  0.0038 -0.1644
 4823W        W20957  18.235  15.456  12.289 -0.4115  0.3008  0.0561
 4824W        W20958   0.250  12.986  11.157  0.2323 -0.4256  0.2152
 4825W        W20959   7.935  12.682   1.516 -0.1138 -0.0510  0.2776
 4826W        W20960   3.404   2.209  14.730 -0.0332 -0.2903  0.0461
 4827W        W20961  15.242  13.912   3.011  0.2271  0.0879 -0.0057
 4828W        W20962   5.609   7.092  12.057  0.1470  0.1659  0.1175
 4829W        W20963  10.915   5.105   4.519 -0.1798  0.0606 -0.1469
 4830W        W20964   9.388  13.492   3.678 -0.2101  0.0247  0.1032
 4831W        W20965   0.596   8.634  13.046 -0.1047  0.0375  0.1863
 4832W        W20966  12.569   0.136   4.865  0.1728 -0.0583  0.0773
 4833W        W20967   8.850   7.218   0.150  0.0548 -0.1266 -0.1983
 4834W        W20968  17.527  13.223   1.161  0.3682 -0.3829 -0.3204
 4835W        W20969   6.991  19.154   0.117 -0.3936 -0.3473 -0.0083
 4836W        W20970  13.579   9.216  14.176 -0.2735  0.1252 -0.2389
 4837W        W20971  11.782  16.646   2.658  0.0377 -0.0458 -0.0456
 4838W        W20972   1.471  14.117   3.524  0.1539  0.1013  0.2186
 4839W        W20973   4.345  17.894  11.406 -0.2501 -0.0946 -0.0580
 4840W        W20974   3.398  18.038   2.559  0.1037 -0.0990 -0.2599
 4841W        W20975  15.084  12.745   3.635  0.0725 -0.1544 -0.0506
 4842W        W20976  12.054  14.248  13.259 -0.0854 -0.4963 -0.1104
 4843W        W20977  17.108   1.467   3.214 -0.0532 -0.3675  0.0058
 4844W        W20978   9.836  12.058   2.482 -0.1473  0.2467 -0.1174
 4845W        W20979  15.841   2.516  13.085 -0.0517  0.0958  0.2542
 4846W        W20980  14.867  10.880  12.357  0.0810  0.1688 -0.2218
 4847W        W20981  10.221   7.827   9.461 -0.0252  0.0125 -0.1592
 4848W        W20982  10.491   2.107  14.232  0.0964 -0.3040 -0.1437
 4849W        W20983   8.782  14.066   5.038  0.3093 -0.2243  0.1316
 4850W        W20984  16.788   2.642  10.793  0.0214  0.2835 -0.0857
 4851W        W20985   4.219  18.769  12.639  0.0453 -0.0234  0.2308
 4852W        W20986  10.893  17.142  11.111  0.2711  0.4989  0.1099
 4853W        W20987   7.625   9.610   3.066  0.0335 -0.1130  0.2030
 4854W        W20988   9.054   7.179  11.099 -0.0387  0.1109  0.2493
 4855W        W20989  14.299   8.902   1.325  0.1012  0.1977  0.0437
 4856W        W20990  14.701   6.162  10.675 -0.3360 -0.1938 -0.0560
 4857W        W20991   0.440   9.128  10.673  0.1166 -0.2970 -0.3064
 4858W        W20992   4.339  14.312   1.309  0.0926  0.2990  0.2567
 4859W        W20993  15.775   9.051  12.506  0.0416 -0.1581  0.0214
 4860W        W20994  12.353   4.938   2.075 -0.1776 -0.1089  0.1303
 4861W        W20995   4.910   4.231  12.948  0.2318  0.0279 -0.0183
 4862W        W20996   9.435  14.479   2.815  0.1766  0.2855  0.2339
 4863W        W20997  19.048  11.412  10.864  0.2472 -0.3865  0.1640
 4864W        W20998  11.095  15.202   1.902 -0.3101  0.0023  0.2274
 4865W        W20999  14.973  15.668   3.609 -0.1487  0.0933 -0.1322
 4866W        W21000  15.946  12.267   1.794 -0.1344 -0.0765  0.0579
 4867W        W21001  17.450  15.776   4.990 -0.3628  0.2453  0.3215
 4868W        W21002   7.169   6.756   1.534 -0.4544  0.2360  0.0786
 4869W        W21003  13.734   2.090  12.951  0.0953 -0.1315  0.3803
 4870W        W21004   2.436   0.275  12.361  0.0240  0.1282 -0.0995
 4871W        W21005   8.655   5.024   2.312 -0.3828  0.0835  0.1180
 4872W        W21006   9.694  18.404  14.332  0.1161 -0.0793 -0.1517
 4873W        W21007   2.749  13.143  11.051  0.0243  0.1409 -0.0928
 4874W        W21008  17.001   5.217   2.657  0.0736  0.0422 -0.2092
 4875W        W21009  17.216   3.522   0.924 -0.0657 -0.2410 -0.0310
 4876W        W21010  13.234  12.479  14.104  0.1624  0.1215 -0.0562
 4877W        W21011   0.475   0.670  14.903 -0.2085 -0.0357 -0.0969
 4878W        W21012  13.963   7.714   1.530 -0.0073  0.0146  0.2154
 4879W        W21013   5.285   3.883  12.904 -0.1181 -0.0819 -0.0830
 4880W        W21014   2.621   2.401   4.681 -0.1848  0.1292  0.1682
 4881W        W21015  15.893   9.846  11.069  0.0228 -0.2948 -0.0305
 4882W        W21016  10.841  18.555  11.127  0.0127  0.1251 -0.0923
 4883W        W21017   0.317  17.272   3.423 -0.0563  0.0990 -0.1442
 4884W        W21018  15.518  18.205   5.551 -0.1453  0.1340 -0.0547
 4885W        W21019  11.505  13.569  12.861  0.0853 -0.2169 -0.0526
 4886W        W21020  14.228  11.647  12.104  0.2500 -0.0277  0.2941
 4887W        W21021  17.757  10.845   0.499 -0.0464  0.0598  0.2562
 4888W        W21022   7.169   1.020   3.864  0.5804  0.3907 -0.2325
 4889W        W21023  11.957   4.497  13.639  0.3471  0.1056  0.0877
 4890W        W21024  16.760   9.472   3.058  0.0021 -0.0791 -0.0567
 4891W        W21025   8.157  19.352   3.207 -0.1909  0.1631  0.1652
 4892W        W21026   8.877   2.161   1.126  0.2890  0.1496  0.0104
 4893W        W21027   9.787  19.198   2.874 -0.4925 -0.2706 -0.1775
 4894W        W21028   6.219  12.085  14.015 -0.0513 -0.1896  0.0246
 4895W        W21029   2.117   6.284  10.991 -0.1263  0.1641  0.1874
 4896W        W21030   1.621   1.987  10.192 -0.1727 -0.1891 -0.1348
 4897W        W21031   6.072   8.835  13.794 -0.2530 -0.0920 -0.3276
 4898W        W21032  18.023  14.876   4.130 -0.1153  0.1929 -0.0908
 4899W        W21033  16.985   5.230  12.193 -0.0787 -0.2873  0.0680
 4900W        W21034   1.176   2.209  11.537 -0.1911 -0.0462  0.1906
 4901W        W21035   9.370  17.701   0.382 -0.0074  0.2770 -0.0625
 4902W        W21036   6.428  11.506  12.481 -0.1337 -0.1604  0.2255
 4903W        W21037   7.436   1.947  11.751 -0.2015 -0.0367  0.3111
 4904W        W21038  10.370  17.901  13.849  0.3830  0.2114 -0.2523
 4905W        W21039   7.498   3.408   2.236 -0.0548  0.0196  0.1140
 4906W        W21040  10.920  13.916   2.721  0.1784  0.0018  0.0765
 4907W        W21041   0.522  13.754  14.051 -0.1895  0.4921  0.0051
 4908W        W21042  17.031  16.795   0.722  0.2740 -0.1652  0.0752
 4909W        W21043   6.264  11.841  10.927 -0.1151  0.1198  0.3257
 4910W        W21044   3.998  14.192  14.853 -0.0993 -0.1345  0.0053
 4911W        W21045  13.612   6.571   0.510 -0.0645  0.3522  0.1139
 4912W        W21046   8.228  15.404  12.411  0.0285  0.2341 -0.0465
 4913W        W21047  13.693  13.892   2.535  0.4887  0.5021 -0.0278
 4914W        W21048  11.584   5.016  13.570  0.0120 -0.2051 -0.2505
 4915W        W21049  12.324  11.522  14.191  0.0769  0.0268  0.0823
 4916W        W21050   9.514   1.807  12.985 -0.0858 -0.0694  0.0222
 4917W        W21051  19.050   7.195   0.085 -0.1277 -0.0558  0.2245
 4918W        W21052   8.008   2.619  11.725 -0.1349 -0.0669  0.1897
 4919W        W21053  15.182   5.949  10.776  0.2537 -0.1125 -0.1370
 4920W        W21054   0.589   5.183   1.939 -0.1075 -0.1015  0.3420
 4921W        W21055   6.127   7.299  11.210  0.1322  0.0194  0.1885
 4922W        W21056  14.941   8.890   4.353 -0.3698 -0.1611  0.2779
 4923W        W21057   9.804  18.386   0.728 -0.0836 -0.0610  0.0133
 4924W        W21058   4.064  11.752   2.034  0.0950 -0.1504 -0.1119
 4925W        W21059  10.040   7.550   1.330 -0.1790 -0.1670  0.3995
 4926W        W21060  13.171   0.096   4.203  0.0183  0.3228 -0.0975
 4927W        W21061  17.591  12.513   0.293 -0.0083  0.0319  0.0598
 4928W        W21062   7.846   9.483   0.769 -0.0556  0.0267  0.0344
 4929W        W21063   0.940   4.263   3.603  0.1818 -0.1641  0.2684
 4930W        W21064   7.160   8.150  14.854 -0.0522 -0.3161 -0.1727
 4931W        W21065   3.005  14.561   0.471  0.0687  0.1258 -0.1890
 4932W        W21066  15.573  13.312   1.415  0.0451  0.1376 -0.2974
 4933W        W21067  13.545   5.472   9.209 -0.1446  0.0028 -0.0392
 4934W        W21068  19.092  10.063   0.751  0.0094 -0.3288 -0.1647
 4935W        W21069  15.567   5.623  11.553 -0.0724  0.0197 -0.1526
 4936W        W21070   6.919  17.236  13.992 -0.0231 -0.1090 -0.4087
 4937W        W21071  17.789  18.446  10.779  0.0343  0.0179 -0.0865
 4938W        W21072   4.341   7.698  14.776 -0.2975  0.2146 -0.1999
 4939W        W21073   0.170   2.993  12.649  0.1067  0.0194 -0.1173
 4940W        W21074  17.608   6.466   2.768 -0.1746  0.3537  0.1664
 4941W        W21075  18.406   9.059   0.516 -0.2253  0.0516  0.0454
 4942W        W21076   1.432   3.868   3.531  0.3548  0.5415  0.0430
 4943W        W21077  11.859  14.664   3.271  0.1946  0.2908 -0.1174
 4944W        W21078   1.005  16.461  11.368 -0.0781 -0.0568  0.2002
 4945W        W21079   2.773   5.758   2.956 -0.0051 -0.0368 -0.2699
 4946W        W21080  11.572   2.546   3.367  0.1309 -0.1859  0.1740
 4947W        W21081   4.490   4.551   1.499 -0.1305 -0.3255 -0.0865
 4948W        W21082  17.949   7.964  13.387  0.1244 -0.0046  0.0286
 4949W        W21083   6.488  10.178   1.629 -0.0755  0.0213  0.1315
 4950W        W21084  18.953  17.625   2.150  0.0322 -0.1039 -0.0206
 4951W        W21085   0.702   9.494   0.227  0.6090  0.1307 -0.2147
 4952W        W21086  10.598  18.685  14.677  0.2296 -0.1337  0.0292
 4953W        W21087   5.034   9.213   9.575 -0.0605  0.0535  0.1736
 4954W        W21088  16.572  18.511  11.496 -0.1665  0.2918  0.0648
 4955W        W21089  16.743  10.571  10.441 -0.1555 -0.2198  0.3049
 4956W        W21090   4.784   1.167  11.570  0.2137  0.1458  0.3467
 4957W        W21091  10.061   6.966   2.550  0.2418  0.0516  0.1219
 4958W        W21092  10.588  12.097   4.994  0.1598 -0.1166 -0.0008
 4959W        W21093   3.897   3.211  11.423 -0.1362 -0.2322 -0.0530
 4960W        W21094  11.063   0.412   0.910  0.1243  0.2273 -0.0654
 4961W        W21095  17.316  16.516   1.228  0.0406  0.0088 -0.2610
 4962W        W21096  16.789  11.764   0.468 -0.0657  0.0178  0.2027
 4963W        W21097   2.281   9.109   3.512 -0.0575 -0.1202  0.1652
 4964W        W21098   4.195  14.513  13.391 -0.0759  0.3009 -0.0924
 4965W        W21099  12.621   6.222  11.899  0.0573 -0.1884  0.3475
 4966W        W21100   1.464   0.298   0.041  0.2141 -0.0671 -0.0543
 4967W        W21101   4.176  17.869   5.615 -0.0309  0.0708 -0.0115
 4968W        W21102   8.716  19.305   3.733 -0.2982  0.2585 -0.0688
 4969W        W21103  10.126   0.708  14.907  0.3276  0.0715 -0.0332
 4970W        W21104  11.132  11.454  12.787  0.0598 -0.2796 -0.2261
 4971W        W21105   6.184   7.086   0.325 -0.4043 -0.4110 -0.1141
 4972W        W21106   9.969   0.387   4.413  0.0940 -0.1904  0.2035
 4973W        W21107  18.644  16.744  10.852 -0.1370 -0.1088  0.2166
 4974W        W21108  19.348   7.340   3.468  0.4097  0.2563 -0.0584
 4975W        W21109   7.242   5.997  13.317 -0.0906 -0.2749  0.2688
 4976W        W21110  10.479  15.387   0.947  0.1795  0.3833 -0.0919
 4977W        W21111   8.674   5.907  10.787 -0.0402  0.1839  0.0374
 4978W        W21112   6.084   7.400  10.620 -0.1748 -0.0907 -0.5155
 4979W        W21113  10.792   5.645   2.864  0.0899  0.0439  0.1157
 4980W        W21114   6.082   1.356   4.900  0.4208 -0.0512  0.0328
 4981W        W21115  18.117   0.720   3.410 -0.0718  0.0354 -0.4605
 4982W        W21116   5.040  16.403   0.871 -0.1862  0.0973 -0.0054
 4983W        W21117   1.645   1.786   4.504 -0.1700  0.0690 -0.0224
 4984W        W21118   8.502  17.105   4.458 -0.2779 -0.2018 -0.1271
 4985W        W21119   3.509   2.155  13.784 -0.0920 -0.1877  0.1681
 4986W        W21120  16.324   3.293   2.073 -0.0014  0.2059 -0.0215
 4987W        W21121   5.784  14.599  13.076  0.0749 -0.0305 -0.1209
 4988W        W21122   7.013  12.333  13.414 -0.2479  0.1741  0.0438
 4989W        W21123  16.303   6.142  12.736 -0.1073  0.1971  0.2027
 4990W        W21124   4.248   5.853   4.842 -0.4812 -0.2317 -0.2092
 4991W        W21125   3.323   2.417  10.089 -0.3253 -0.2099 -0.2268
 4992W        W21126   5.251   3.553   9.138 -0.2475  0.1517 -0.2793
 4993W        W21127  15.922   3.471   1.098 -0.2169 -0.1972 -0.1519
 4994W        W21128   7.768  11.888   2.700  0.1084  0.0392  0.1264
 4995W        W21129   0.595  18.097  12.197 -0.1319  0.0482 -0.2378
 4996W        W21130   4.095  12.801   3.575 -0.0242 -0.2971  0.0211
 4997W        W21131   3.909  12.541   1.384  0.2306 -0.1407  0.0373
 4998W        W21132   7.998  17.710  13.275  0.3589 -0.0114 -0.3229
 4999W        W21133  13.375   1.646   4.712 -0.2186 -0.1992  0.1285
 5000W        W21134  16.264  15.426   2.196  0.0900  0.2974  0.1463
 5001W        W21135   5.542   0.517   3.983  0.0701  0.4265 -0.1498
 5002W        W21136   3.685  10.524  12.209 -0.0905 -0.0897  0.1253
 5003W        W21137   4.489  18.463   1.473 -0.0392  0.1535 -0.2268
 5004W        W21138  13.595  18.905   3.750 -0.5292  0.1251 -0.0142
 5005W        W21139  12.619   6.963   9.863 -0.0703  0.1314 -0.1249
 5006W        W21140   7.470  18.837   2.985  0.1540  0.1647 -0.4999
 5007W        W21141  11.276   3.511   1.759 -0.2706  0.0852  0.0604
 5008W        W21142  18.369   1.093  11.281 -0.2067  0.3083 -0.0763
 5009W        W21143  10.017   5.373   3.925 -0.1576 -0.1304 -0.0529
 5010W        W21144   4.810  17.861  11.192  0.1815  0.0173 -0.1342
 5011W        W21145   4.256   6.285   2.084  0.0355  0.1903  0.1328
 5012W        W21146   8.604   9.693   5.016 -0.1365  0.0427 -0.1348
 5013W        W21147   7.344  10.178  13.086 -0.2059  0.1351  0.1223
 5014W        W21148  16.218  14.996   0.209 -0.2699 -0.1119  0.3606
 5015W        W21149  15.702   3.067  12.870 -0.1548 -0.0962  0.0514
 5016W        W21150   7.069  14.591  12.021 -0.0619 -0.0455 -0.1409
 5017W        W21151  11.848  19.297   0.025  0.0350  0.0147  0.5209
 5018W        W21152   7.198  16.128  14.973  0.1190 -0.1272  0.0386
 5019W        W21153  13.077  18.376  14.100  0.0091  0.2102 -0.2226
 5020W        W21154  15.762   3.779   3.037  0.2160 -0.2467 -0.2538
 5021W        W21155   0.759  15.715  11.922 -0.7011 -0.0239 -0.0557
 5022W        W21156   2.249  18.710  10.996  0.3981  0.0266 -0.0786
 5023W        W21157   8.254   5.691  14.681  0.1560  0.0087 -0.1022
 5024W        W21158   6.516  13.863  12.634  0.0923  0.2159 -0.0174
 5025W        W21159   7.348   1.043  11.951 -0.2542  0.0261  0.0046
 5026W        W21160   7.341  11.863  11.767  0.1729 -0.1358 -0.2191
 5027W        W21161   5.998   4.635   1.839  0.3659  0.3037 -0.1005
 5028W        W21162  12.471   8.533  12.547  0.0394  0.1338 -0.2565
 5029W        W21163   2.226  18.314   2.045  0.0672 -0.1828 -0.3239
 5030W        W21164  17.663   4.106   2.653 -0.2572  0.1319 -0.2210
 5031W        W21165   2.040  13.664   2.462  0.0343 -0.0767  0.0867
 5032W        W21166  11.623  16.180   2.968  0.3665 -0.1136 -0.1137
 5033W        W21167   7.864   7.611   9.726 -0.2734  0.0406 -0.3572
 5034W        W21168  15.077   9.552  14.510  0.0537 -0.0049  0.0372
 5035W        W21169  13.123  16.922  12.065 -0.0176  0.0109 -0.2150
 5036W        W21170  16.634   0.993   1.596 -0.0579 -0.1850  0.0727
 5037W        W21171  11.886   8.203   4.774 -0.1672  0.0593  0.2072
 5038W        W21172  17.961  18.629  14.609 -0.1062  0.2758  0.0508
 5039W        W21173  10.653  12.543  14.202  0.1156 -0.1949  0.0976
 5040W        W21174   1.089   6.127  13.019 -0.2340 -0.2315 -0.3072
 5041W        W21175  11.336   4.803   4.378  0.2526  0.0864  0.2385
 5042W        W21176  16.135   5.299  11.515  0.0751 -0.1764 -0.0285
 5043W        W21177   0.826  16.416  14.700  0.2174 -0.0376 -0.2937
 5044W        W21178   0.954   8.783   2.189  0.3335 -0.0578 -0.1363
 5045W        W21179   5.660   2.774  13.313 -0.2309  0.0238 -0.1659
 5046W        W21180  16.431   7.983  14.564 -0.2694 -0.0322 -0.1746
 5047W        W21181   4.278   1.278   3.929 -0.2425  0.3388 -0.1003
 5048W        W21182  17.134  18.201  14.506 -0.3727 -0.1314  0.1945
 5049W        W21183   2.412   3.116   2.407  0.0123  0.0223 -0.1862
 5050W        W21184   7.384  11.347  12.135 -0.0807  0.0122  0.4056
 5051W        W21185  15.917  10.679   2.520  0.4315 -0.0066  0.1353
 5052W        W21186  10.520  10.249   1.512  0.2869  0.2645  0.2616
 5053W        W21187  18.894   7.430  12.453 -0.0833  0.0284  0.2162
 5054W        W21188   4.004  13.264   9.696  0.1306  0.1739 -0.1681
 5055W        W21189  16.034   5.130  14.107 -0.1408  0.1384 -0.1921
 5056W        W21190  19.274   2.221   1.188 -0.1438 -0.2791  0.0652
 5057W        W21191   3.573  17.332  11.076  0.0520 -0.3566 -0.0096
 5058W        W21192  16.570  17.648  14.078  0.1762  0.0032  0.2551
 5059W        W21193   6.866   7.154   3.062 -0.1274 -0.0115  0.1149
 5060W        W21194  14.777   2.240  14.221  0.1854  0.0790 -0.2754
 5061W        W21195   1.774   8.750   2.185  0.1527 -0.0902 -0.1634
 5062W        W21196   1.469   4.200  11.826  0.3832  0.1916  0.2720
 5063W        W21197   9.536   7.900   2.107  0.1298  0.1829  0.2728
 5064W        W21198   6.002  11.745  11.572 -0.3752  0.1859 -0.0794
 5065W        W21199  12.665  18.970   3.597  0.0575  0.0415 -0.2774
 5066W        W21200  10.881   4.868   5.317 -0.1549  0.0509  0.0864
 5067W        W21201  15.230  15.773   1.848  0.1882 -0.0536 -0.1340
 5068W        W21202   5.036   1.777  14.024 -0.4139  0.0330 -0.1440
 5069W        W21203   2.436   9.382  11.626 -0.3748 -0.4402 -0.2962
 5070W        W21204   7.380   3.274  14.937 -0.2261  0.0810  0.1775
 5071W        W21205   7.297   6.115  10.899  0.0309 -0.0794  0.0981
 5072W        W21206  13.308   0.564   1.542 -0.4456  0.0971  0.0839
 5073W        W21207  12.397  14.349  11.981 -0.2054 -0.0624  0.1776
 5074W        W21208  12.305   5.397  13.883 -0.1323  0.2790  0.0630
 5075W        W21209  13.051  18.273  11.213 -0.1347 -0.0632 -0.0202
 5076W        W21210   6.226   8.736   8.890 -0.0543  0.1870 -0.0727
 5077W        W21211   7.226   0.287  11.113 -0.0992  0.2598  0.1726
 5078W        W21212   6.386   9.153  12.595 -0.0953  0.4567 -0.0350
 5079W        W21213   4.570   7.290  10.672  0.2447 -0.1767  0.0769
 5080W        W21214   6.191  13.085  11.358 -0.3065 -0.0517 -0.2007
 5081W        W21215   1.365  18.257  14.970 -0.1873 -0.1964 -0.0128
 5082W        W21216   5.161  12.579  10.131 -0.0037  0.3919 -0.0151
 5083W        W21217  10.298   2.862   4.211  0.1820  0.0659  0.1677
 5084W        W21218   9.130  15.334  12.660 -0.0002  0.0629  0.0196
 5085W        W21219  14.849   3.865   5.750 -0.0208  0.0371  0.0335
 5086W        W21220  17.972   5.297   1.800  0.1142  0.1546 -0.1323
 5087W        W21221   1.481  12.676  11.943 -0.0254 -0.4073  0.0011
 5088W        W21222  13.713   1.173   5.840  0.2116 -0.4706 -0.2096
 5089W        W21223  17.850   8.825  10.202 -0.0641 -0.1332 -0.1623
 5090W        W21224   8.794   7.690  14.395  0.1040  0.0951 -0.0818
 5091W        W21225  14.646   8.410   5.212  0.0581 -0.1079 -0.0672
 5092W        W21226  12.668  14.270  12.415  0.2187 -0.0001 -0.1759
 5093W        W21227   8.863   9.819  13.378 -0.1330  0.0124 -0.0770
 5094W        W21228   8.234   6.146   5.205 -0.0661 -0.2882  0.1288
 5095W        W21229  10.870   7.090   3.153 -0.0247 -0.1047  0.0573
 5096W        W21230   4.522   1.383   1.665 -0.4898  0.2330  0.0425
 5097W        W21231  18.507   2.584   4.366  0.0769 -0.1299 -0.0520
 5098W        W21232  14.192  14.891   2.790  0.0084 -0.1891 -0.0663
 5099W        W21233   2.065  17.793   3.449 -0.1848 -0.2435  0.3112
 5100W        W21234  10.113   4.973   2.918  0.0004 -0.1181  0.3524
 5101W        W21235  12.876  13.123  13.330 -0.0440 -0.0596 -0.2785
 5102W        W21236  15.170  15.380   3.077 -0.0625 -0.3055 -0.0402
 5103W        W21237  14.807   7.444  12.243  0.1534 -0.0829  0.0037
 5104W        W21238  13.013   0.041   3.173  0.0555 -0.1042 -0.0504
 5105W        W21239  10.276   0.784   4.383 -0.2186  0.2293  0.2000
 5106W        W21240  19.104   1.347   4.334  0.2083 -0.0552 -0.0209
 5107W        W21241  17.092  13.536   5.141  0.0324 -0.0109  0.2397
 5108W        W21242   2.169  16.702  12.560 -0.2790  0.0561 -0.2054
 5109W        W21243   5.360  10.271   9.554  0.0832  0.1436 -0.0046
 5110W        W21244  11.473   6.058  12.501  0.1792  0.2287  0.1331
 5111W        W21245   2.204  12.136   4.382  0.0188 -0.2144 -0.2435
 5112W        W21246  13.272   7.053   4.097  0.3112  0.0251 -0.0361
 5113W        W21247  12.829  13.083   9.984 -0.1242 -0.0765 -0.1376
 5114W        W21248   8.972  11.103  14.758 -0.1164 -0.1088  0.1717
 5115W        W21249  17.206  12.041  12.627  0.1789 -0.2482 -0.2566
 5116W        W21250  13.136  12.703   0.803  0.0001  0.0082 -0.3139
 5117W        W21251   9.673   1.082   3.157  0.0395  0.1286  0.0426
 5118W        W21252   6.018   7.587  13.030 -0.0620  0.2693 -0.0921
 5119W        W21253  10.218  13.451  11.625 -0.1690  0.1866  0.0568
 5120W        W21254   2.707   3.045  13.984 -0.0402  0.2509 -0.2044
 5121W        W21255  10.285   7.471   1.941 -0.1632 -0.1354 -0.0009
 5122W        W21256   2.632  11.829  10.375 -0.3748  0.0835  0.0470
 5123W        W21257   2.133  16.409  10.482 -0.0558  0.1158 -0.0278
 5124W        W21258   7.451  13.362   1.469 -0.0336  0.1691 -0.0622
 5125W        W21259  12.376  17.345   0.244 -0.1749  0.0903  0.0032
 5126W        W21260  17.009   1.398  12.236  0.3173 -0.0930 -0.4480
 5127W        W21261  12.882  15.959   2.568 -0.0397 -0.0506  0.1394
 5128W        W21262  12.222  10.699   2.172 -0.0163  0.0827 -0.1189
 5129W        W21263   6.994   6.597   4.630  0.0970  0.2503 -0.0804
 5130W        W21264  13.196  12.524   3.228  0.4914  0.0438  0.0283
 5131W        W21265  17.575   5.977   4.727 -0.2552 -0.0961  0.0454
 5132W        W21266  14.779  17.583  14.417  0.4012 -0.3577  0.2995
 5133W        W21267  14.941   4.211   0.570 -0.0694  0.0193  0.0251
 5134W        W21268   6.258   9.185   2.267  0.0730  0.4467 -0.1259
 5135W        W21269   8.910  18.271  11.592 -0.1322  0.0943  0.0635
 5136W        W21270  17.858   9.212   3.713 -0.1443  0.1211  0.0054
 5137W        W21271  10.998  15.270  11.821  0.0234 -0.2162 -0.4475
 5138W        W21272  13.436   2.125   0.392  0.2547  0.2233 -0.1975
 5139W        W21273   0.714  12.015   2.005 -0.0180  0.2469  0.1112
 5140W        W21274  17.468  17.496   4.323 -0.1021  0.2434  0.1104
 5141W        W21275   7.414  12.464   1.157 -0.1961  0.0576  0.0280
 5142W        W21276  17.039   5.438   4.226 -0.2477  0.1665 -0.1347
 5143W        W21277   9.724  15.397  12.196 -0.0535  0.1147  0.1682
 5144W        W21278  12.400  17.007  10.882  0.2121 -0.1301  0.0757
 5145W        W21279   4.944   1.332   3.947  0.1177 -0.0369  0.2978
 5146W        W21280   1.332  13.706   9.012  0.0570 -0.1681 -0.2770
 5147W        W21281   8.894  15.240  11.842  0.0387 -0.1873 -0.1583
 5148W        W21282  15.225  16.560   3.340  0.0688  0.0622  0.2534
 5149W        W21283   3.243   1.676  13.120  0.0800  0.0484 -0.0539
 5150W        W21284  12.220   6.333   2.209 -0.1508 -0.0545 -0.1974
 5151W        W21285   9.645   2.112  13.886 -0.0656 -0.0318  0.1702
 5152W        W21286  14.542   1.119   0.355  0.1491  0.1152 -0.3363
 5153W        W21287   9.934   7.627  13.510  0.3562 -0.2181 -0.0189
 5154W        W21288   9.244  17.808   4.930  0.0208 -0.2022 -0.0327
 5155W        W21289  15.460   3.549   0.838 -0.3326 -0.1117 -0.0429
 5156W        W21290   5.312   0.919   3.698  0.2411 -0.0393  0.1544
 5157W        W21291   6.416  11.309  10.829  0.1339  0.2667  0.0122
 5158W        W21292   9.786   3.907  13.796 -0.1611 -0.1793 -0.1317
 5159W        W21293  14.898   4.229   1.821 -0.0064  0.1927 -0.2424
 5160W        W21294  17.044  14.957   4.702 -0.0651  0.2459 -0.1133
 5161W        W21295  16.772  10.409  14.364 -0.1258  0.0954 -0.2067
 5162W        W21296   8.889  16.463   2.509 -0.1970 -0.1185 -0.2050
 5163W        W21297   0.397   3.283   4.620 -0.0486 -0.0939 -0.0214
 5164W        W21298  10.045  11.547  10.741 -0.0163 -0.2207 -0.1699
 5165W        W21299   0.135   8.454   2.025 -0.0196  0.0566  0.2276
 5166W        W21300   9.121   2.536   4.038  0.1768  0.0318  0.0899
 5167W        W21301  13.628  14.431   2.974  0.0852 -0.0287  0.1181
 5168W        W21302  18.713   9.356   4.912  0.0658 -0.1361 -0.0868
 5169W        W21303   1.115   2.162   5.502 -0.1525  0.0972 -0.2223
 5170W        W21304   2.691  13.459  12.618 -0.4006  0.4362  0.3815
 5171W        W21305   8.237  10.439   1.573 -0.0815 -0.2714 -0.1315
 5172W        W21306   0.516  11.911  12.500 -0.1987 -0.0736  0.1287
 5173W        W21307   3.376  17.054  14.783  0.2259  0.0360 -0.0734
 5174W        W21308   5.810  13.146   0.330 -0.2020 -0.2270  0.0401
 5175W        W21309  16.530   9.820   3.382  0.1053  0.1270 -0.0319
 5176W        W21310   9.962  17.670   0.020 -0.2769 -0.2183 -0.1092
 5177W        W21311  15.113   7.095  14.971  0.2699  0.0234 -0.2186
 5178W        W21312  11.132  15.655   3.047  0.4380 -0.0039 -0.0123
 5179W        W21313  19.128   0.665  12.121  0.1078 -0.2455 -0.0487
 5180W        W21314   1.022  17.867   1.805 -0.0397  0.3176 -0.1630
 5181W        W21315  17.778  19.233  13.059 -0.2455 -0.2821 -0.3145
 5182W        W21316  12.012  16.600  13.396 -0.1542  0.1632 -0.1607
 5183W        W21317  12.728   4.691   5.076  0.0223 -0.0333  0.0801
 5184W        W21318   4.968  15.241   1.706  0.3290 -0.5046  0.0334
 5185W        W21319  10.000   0.701   3.909  0.2385 -0.0438 -0.0778
 5186W        W21320  13.061   0.709  11.422 -0.1625  0.1702 -0.2839
 5187W        W21321   6.248   8.145  12.394  0.0550 -0.1862 -0.0696
 5188W        W21322  13.477   8.854   4.355  0.1496  0.5648 -0.0781
 5189W        W21323  19.194   7.767  10.372 -0.0723  0.0451 -0.0011
 5190W        W21324  11.997  18.052   4.734  0.0791  0.2345 -0.2723
 5191W        W21325   9.146  16.074  11.421 -0.1191  0.2984  0.0394
 5192W        W21326  19.205  19.062   3.876  0.2640 -0.1896  0.0495
 5193W        W21327  14.405  12.378   2.239  0.2602  0.1193 -0.3554
 5194W        W21328  14.747  14.794  13.124  0.2463  0.1599  0.1827
 5195W        W21329   2.532  13.572  14.834  0.1177  0.2425 -0.0084
 5196W        W21330   9.558  15.698  12.572 -0.1588  0.0967  0.0767
 5197W        W21331  11.423   0.068   2.517 -0.1455  0.1696  0.0902
 5198W        W21332   8.376  11.789  10.658 -0.0687  0.3779 -0.0206
 5199W        W21333   8.216   4.601  14.595  0.1551  0.1613 -0.0341
 5200W        W21334  19.159   9.325  10.586 -0.0976  0.0016  0.0815
 5201W        W21335  13.649   7.612  12.350  0.0743 -0.5017 -0.1807
 5202W        W21336  17.491   1.564   0.819 -0.0921 -0.0696 -0.1127
 5203W        W21337   1.425   1.763  14.473 -0.0115  0.0567 -0.0343
 5204W        W21338   9.501   0.254   0.352  0.1903 -0.0067  0.2382
 5205W        W21339  13.139   7.331  10.652  0.1737 -0.0945  0.0342
 5206W        W21340   7.813   3.695   3.598 -0.3039 -0.0570 -0.0814
 5207W        W21341  14.173   9.342   1.209  0.3397 -0.2709  0.2544
 5208W        W21342   4.532   2.130  13.329  0.0364  0.1021 -0.0152
 5209W        W21343   8.570   9.897  12.957 -0.1325  0.0603  0.3228
 5210W        W21344   1.393  10.771   2.717 -0.0706  0.0245 -0.3814
 5211W        W21345  19.345   8.629   9.051 -0.2036  0.1396 -0.1856
 5212W        W21346  16.014   0.506   2.386  0.3182  0.0020 -0.0684
 5213W        W21347  14.667   0.764   2.480  0.0428  0.1551  0.1409
 5214W        W21348   7.066   7.847  14.465 -0.2552 -0.0888  0.4350
 5215W        W21349   7.449   3.137   5.272 -0.2439 -0.2171  0.0512
 5216W        W21350   1.815  10.004  13.288  0.2558  0.0234 -0.0130
 5217W        W21351   5.174   4.670   2.065 -0.0752  0.2617  0.4029
 5218W        W21352  10.686  10.736   4.259 -0.0042 -0.0540  0.0601
 5219W        W21353   7.186  17.818   1.529  0.0318  0.3815 -0.0287
 5220W        W21354   6.695   9.482   4.426  0.3231  0.0006 -0.0119
 5221W        W21355  18.945  11.682   0.608  0.1196 -0.1375 -0.1519
 5222W        W21356  17.669  17.658  14.818  0.2581  0.0832  0.1736
 5223W        W21357  11.933   9.901   9.332 -0.1116  0.1215 -0.3469
 5224W        W21358  12.872   5.125   4.281  0.4747  0.4169 -0.0924
 5225W        W21359   7.992   1.082   5.851  0.0337 -0.2579 -0.0799
 5226W        W21360  11.562  19.252  12.553 -0.0832 -0.3013  0.1907
 5227W        W21361  10.889  14.612  13.021  0.1175  0.0280  0.2042
 5228W        W21362  16.242  17.546  10.940  0.0254 -0.0914 -0.2981
 5229W        W21363   8.790   5.312   4.264  0.2521  0.2664 -0.2234
 5230W        W21364  13.380   4.942   0.732 -0.0852  0.2728 -0.0962
 5231W        W21365   4.584   1.253   4.659  0.0990 -0.0814 -0.0926
 5232W        W21366   8.648   0.939   3.670 -0.2274  0.1000 -0.0661
 5233W        W21367  12.810   5.664   5.162  0.1090 -0.2785  0.3719
 5234W        W21368   0.034  18.132   4.327  0.1866  0.0196  0.3112
 5235W        W21369   7.072   1.059   0.536 -0.3019  0.0005 -0.3694
 5236W        W21370  13.058  17.487   1.223  0.2498 -0.0338 -0.0018
 5237W        W21371  13.067   1.042   2.705 -0.1593 -0.2369  0.0789
 5238W        W21372  18.570  11.924  10.037 -0.1820 -0.2024  0.0150
 5239W        W21373  10.793  15.429   2.224  0.2282 -0.1336  0.0380
 5240W        W21374   3.257   4.389   3.146 -0.2404 -0.0548 -0.0883
 5241W        W21375  11.504   1.233   4.002 -0.2097  0.2230  0.0237
 5242W        W21376   8.822   8.120  12.961  0.1736  0.0754 -0.0961
 5243W        W21377  12.278  17.892   6.156 -0.0539 -0.0187  0.1181
 5244W        W21378  12.204   2.443   9.935 -0.1284  0.3042  0.1178
 5245W        W21379  17.705  17.552   4.803 -0.1668 -0.1017  0.0070
 5246W        W21380   2.193  12.539   0.642 -0.0752  0.2100 -0.1377
 5247W        W21381  14.365   9.466  10.421 -0.0346  0.1565 -0.4742
 5248W        W21382  13.663   1.275  13.077 -0.1548 -0.2752  0.2915
 5249W        W21383   1.999   7.249   9.718  0.0102 -0.2640 -0.1559
 5250W        W21384   9.842   4.698   3.648 -0.4445  0.5133  0.0083
 5251W        W21385   6.321  11.022  10.132 -0.0987 -0.0916  0.1786
 5252W        W21386  17.483   4.619   5.399 -0.2046  0.0159 -0.1329
 5253W        W21387  15.869   2.800  10.900  0.1608 -0.1666  0.1067
 5254W        W21388  16.770   7.237   0.335 -0.4793 -0.0992 -0.0253
 5255W        W21389   5.360   9.517   0.673  0.0370 -0.1221  0.1380
 5256W        W21390   9.887   3.361  13.911 -0.0747 -0.0185  0.1197
 5257W        W21391   6.236   9.405  10.184 -0.1973 -0.0521  0.1391
 5258W        W21392   5.503   3.697   4.424  0.0048 -0.2467  0.1653
 5259W        W21393  10.598   5.952  12.690 -0.0585 -0.1567 -0.2194
 5260W        W21394  12.720  11.791  11.767  0.1468 -0.2146 -0.2732
 5261W        W21395  12.298  19.301   3.269 -0.1222  0.3295 -0.1442
 5262W        W21396   4.423  12.691   0.606  0.0433 -0.0975  0.2119
 5263W        W21397  13.419   5.544   2.991 -0.0361  0.0960 -0.1543
 5264W        W21398   5.871   9.241   4.095 -0.1282  0.1511  0.1998
 5265W        W21399  17.171   7.254   1.782  0.0041 -0.2522 -0.0814
 5266W        W21400   3.347   0.940  14.605  0.2961  0.0422 -0.1188
 5267W        W21401   5.919   1.826   0.352 -0.0452  0.2701  0.2131
 5268W        W21402  10.188  17.873  11.172 -0.1113 -0.1230 -0.0500
 5269W        W21403   3.697  18.671   9.916  0.1764  0.1658  0.1062
 5270W        W21404  15.564  15.514  12.699  0.0311 -0.1095 -0.1904
 5271W        W21405   6.803   2.868  10.247  0.2078  0.1138 -0.1775
 5272W        W21406  18.935   9.868   4.168  0.1161 -0.2330 -0.2879
 5273W        W21407  10.351   8.594  11.092 -0.0306 -0.2509 -0.1660
 5274W        W21408   5.211  16.544   2.008  0.0230  0.0954  0.0843
 5275W        W21409   3.777   4.710   0.007 -0.0956  0.0814 -0.0924
 5276W        W21410   9.023  18.074  13.001 -0.1084 -0.1652 -0.0750
 5277W        W21411  11.910  14.693   6.174 -0.1808  0.1041  0.0081
 5278W        W21412  16.332   1.688   5.208 -0.3455  0.0398  0.1143
 5279W        W21413   3.992   6.330   4.483  0.0630 -0.2493  0.0180
 5280W        W21414   3.386  18.989   0.623  0.2003  0.1746  0.0498
 5281W        W21415   9.869  17.230   5.637 -0.2016 -0.4305 -0.2394
 5282W        W21416  12.955   9.106   3.004  0.0514 -0.0097 -0.2105
 5283W        W21417   9.141   9.401  14.248  0.1973 -0.1607 -0.0183
 5284W        W21418   2.083  17.092  13.295 -0.0696  0.2002 -0.1875
 5285W        W21419  18.813  11.350  14.193 -0.0860 -0.2298  0.0171
 5286W        W21420   7.019   4.300  13.003 -0.2717  0.1405 -0.0426
 5287W        W21421  14.628  13.242  11.995 -0.4153 -0.1032 -0.0875
 5288W        W21422  15.758  11.003   1.520 -0.1014 -0.1690 -0.0732
 5289W        W21423  14.136  14.713  14.403  0.0588 -0.4117  0.1467
 5290W        W21424  17.501   0.760   2.921  0.2563  0.2252  0.0967
 5291W        W21425   1.799  10.224  13.967 -0.1065 -0.0219  0.2872
 5292W        W21426   3.697  12.748  11.810 -0.0139 -0.0401 -0.0289
 5293W        W21427  12.424   8.257   4.835  0.0098  0.0561 -0.0680
 5294W        W21428  17.594  10.672   2.746  0.0576 -0.0290 -0.2406
 5295W        W21429   6.282   8.967   3.299  0.0610 -0.0754 -0.1147
 5296W        W21430   5.498  11.126   1.769  0.5681 -0.0120  0.1727
 5297W        W21431  16.577   7.571   2.680 -0.0966  0.0102  0.1524
 5298W        W21432   8.869  14.320   1.379 -0.4274 -0.1181  0.1474
 5299W        W21433   3.915   5.847  11.261  0.1285 -0.1113  0.1025
 5300W        W21434   6.987  18.902  11.452  0.2641 -0.2281  0.1789
 5301W        W21435  12.397  18.505   5.405 -0.2591  0.1223 -0.2820
 5302W        W21436  18.150   3.409  10.863  0.0406 -0.0832  0.4635
 5303W        W21437  15.345   7.468   4.431  0.2887 -0.2438  0.2159
 5304W        W21438   5.864   7.810   3.166 -0.3158 -0.2834  0.2231
 5305W        W21439  11.843  13.743   0.638 -0.2371 -0.2470  0.0257
 5306W        W21440   4.892   5.694  12.351  0.0684 -0.2511 -0.2107
 5307W        W21441   1.745   7.719   0.854  0.0042  0.1088 -0.0695
 5308W        W21442  15.967   7.394   5.014  0.0540 -0.1276 -0.0542
 5309W        W21443   6.858   4.172  11.777 -0.2143  0.1388  0.2323
 5310W        W21444  11.224   2.470   1.945  0.2229 -0.3356  0.2222
 5311W        W21445   4.823  19.079   2.790 -0.0473 -0.1714 -0.2689
 5312W        W21446   5.121  13.101  13.420  0.0395 -0.2284 -0.0920
 5313W        W21447   4.529   7.840   9.711 -0.3001  0.3135 -0.0084
 5314W        W21448  18.534   1.261   5.377  0.2897  0.0818  0.0253
 5315W        W21449  17.505   1.239   2.845  0.1415 -0.2710  0.2181
 5316W        W21450   6.582   1.728  14.910  0.4804  0.0400 -0.0636
 5317W        W21451  12.251   8.930  14.353  0.1150  0.1682 -0.1042
 5318W        W21452  19.336  14.471  14.183 -0.2843 -0.3403 -0.3139
 5319W        W21453  18.744   9.296   1.766 -0.0280  0.0452 -0.0787
 5320W        W21454   1.605   4.482  11.313  0.2457  0.0045  0.2731
 5321W        W21455   5.437   2.219   2.342  0.1813 -0.0649 -0.0513
 5322W        W21456   4.289   0.759  12.548  0.0691  0.0614  0.0664
 5323W        W21457  16.839  14.559  10.902 -0.1308  0.0837 -0.1998
 5324W        W21458   8.357  14.025   0.653 -0.0448 -0.0991  0.0691
 5325W        W21459  12.580   7.370   5.805 -0.1571  0.1596 -0.0636
 5326W        W21460  18.174   4.026   2.868 -0.0418  0.1717 -0.0372
 5327W        W21461  19.075  10.088  13.930  0.0275  0.2063  0.0819
 5328W        W21462  17.575  11.646  13.859  0.1389  0.0227  0.1082
 5329W        W21463  15.561   4.957   3.634  0.0162 -0.2354  0.0836
 5330W        W21464  10.312   3.343   1.727 -0.1123 -0.3765  0.1009
 5331W        W21465  12.594  19.215  11.985  0.1031 -0.0895 -0.2921
 5332W        W21466   3.797  11.416  12.435  0.0187 -0.0265  0.1738
 5333W        W21467  14.291   8.438   4.761  0.2492 -0.0292 -0.3454
 5334W        W21468   3.568  14.148   3.603  0.0801 -0.1850 -0.0498
 5335W        W21469  10.650   1.300   5.308  0.1768  0.1754  0.3780
 5336W        W21470   8.272   8.375  12.261 -0.1598  0.0402  0.0402
 5337W        W21471   6.859  10.140  11.245 -0.1291  0.0882  0.2184
 5338W        W21472  16.398   4.469   1.449  0.0794  0.2519 -0.1184
 5339W        W21473   8.233   4.222   2.120 -0.2223  0.2131  0.3742
 5340W        W21474   1.608  10.401  11.077  0.3935 -0.0754  0.0568
 5341W        W21475  18.746  18.016   3.116 -0.3295 -0.0805  0.0802
 5342W        W21476  18.727  13.320   3.510  0.2539  0.3348  0.2248
 5343W        W21477   4.042  16.749   0.281  0.0183 -0.0740 -0.0892
 5344W        W21478  15.583   4.484   1.091  0.1071  0.0211 -0.2706
 5345W        W21479   2.787   4.467   3.608 -0.0252 -0.1035  0.0012
 5346W        W21480   5.287  10.378   2.267  0.0567  0.0677  0.0496
 5347W        W21481  14.138  18.381   0.431  0.1032 -0.0033 -0.1693
 5348W        W21482   8.516   6.228   1.400  0.0441 -0.1323  0.1997
 5349W        W21483   2.534  14.965   4.697 -0.0412  0.0488 -0.1709
 5350W        W21484  15.381   5.044  13.408  0.2127 -0.1868  0.0339
 5351W        W21485  13.806   9.524   1.565  0.1128 -0.3719 -0.1569
 5352W        W21486   4.186   7.483   9.900  0.2182 -0.0041  0.2504
 5353W        W21487  13.662   9.796   1.225 -0.0958 -0.1617 -0.0788
 5354W        W21488  13.695   5.407  13.228  0.1143 -0.0211  0.1738
 5355W        W21489   6.519   6.290  13.929  0.3218 -0.0089 -0.0047
 5356W        W21490   5.937  17.029  11.537  0.1690 -0.2633  0.0773
 5357W        W21491   7.587   7.207  13.044 -0.0144 -0.1763  0.0561
 5358W        W21492   0.440  15.442   5.370  0.0858  0.3110 -0.2446
 5359W        W21493   8.120  17.583  14.754 -0.3723  0.1431  0.2279
 5360W        W21494   2.197   6.664   1.952 -0.1062  0.1168 -0.1292
 5361W        W21495  17.267  16.414  12.476  0.0274 -0.0346  0.0918
 5362W        W21496  14.261   3.884   4.157  0.0069  0.0390  0.4535
 5363W        W21497   4.928   8.689   5.239  0.1889  0.0066 -0.1280
 5364W        W21498   1.865   7.809   1.842  0.1278  0.3763 -0.0411
 5365W        W21499   3.729   6.229   0.127 -0.1030  0.4915 -0.3404
 5366W        W21500   0.035   6.704   2.583 -0.3712 -0.0311 -0.0366
 5367W        W21501   3.273  13.994  10.409 -0.0571  0.1993  0.1316
 5368W        W21502  15.674   4.732  11.333 -0.0739 -0.0878  0.2336
 5369W        W21503  10.140   1.851  11.256  0.0061 -0.3816 -0.1035
 5370W        W21504  15.823  12.458   1.320  0.3168 -0.1806  0.1807
 5371W        W21505  18.869   0.504   1.018  0.0786 -0.3166  0.2616
 5372W        W21506   9.289   5.110  11.919 -0.1631 -0.0204  0.1404
 5373W        W21507  15.920   7.146  13.491 -0.1766  0.0865 -0.0920
 5374W        W21508   6.215  18.275   9.791  0.2221  0.3012 -0.2134
 5375W        W21509  10.749   8.261   2.143  0.0172 -0.0826 -0.0795
 5376W        W21510   9.665   2.081   9.606 -0.1525  0.4132  0.1504
 5377W        W21511   8.473   9.007   3.758 -0.1698  0.1984 -0.1264
 5378W        W21512   8.114   3.584   0.349  0.0171  0.1312 -0.0593
 5379W        W21513   8.340   1.238  11.116 -0.0991  0.0711  0.0066
 5380W        W21514   0.424   0.897  14.435 -0.3008 -0.1702 -0.2074
 5381W        W21515   7.179  17.815   0.806 -0.0217  0.1657 -0.0648
 5382W        W21516  14.817  18.903  12.528 -0.1259 -0.0270 -0.2547
 5383W        W21517   1.306   2.087  14.105  0.0869  0.0359 -0.0531
 5384W        W21518   6.119   2.424  14.043 -0.0861  0.1709  0.1046
 5385W        W21519   0.683   0.679   2.578 -0.2052  0.1192 -0.0624
 5386W        W21520  14.471   5.062  12.823 -0.0431  0.0319  0.1444
 5387W        W21521  10.547   2.853   4.760  0.0898 -0.0445  0.3103
 5388W        W21522   1.226   2.710  11.345  0.0510 -0.2448  0.1568
 5389W        W21523  12.905   9.372  12.882 -0.0759 -0.0884 -0.1349
 5390W        W21524  14.579  18.919   4.863 -0.0174 -0.2495 -0.2142
 5391W        W21525  14.465   8.180  11.899  0.2610  0.0002  0.0486
 5392W        W21526   2.865   7.584   3.997 -0.2061 -0.3298 -0.0227
 5393W        W21527  14.441  15.146  10.495  0.0670 -0.3558 -0.0972
 5394W        W21528   1.332  12.745   3.430  0.2066  0.1659 -0.0381
 5395W        W21529  12.003   0.835   5.833 -0.4440  0.2654  0.1873
 5396W        W21530   9.790   1.019  12.216 -0.0747 -0.1154  0.0488
 5397W        W21531  14.486   7.394   3.021  0.0947 -0.4310  0.1864
 5398W        W21532   2.166  14.909   0.830  0.1176 -0.1144  0.1120
 5399W        W21533   0.111  19.104   1.925 -0.0525  0.0592  0.0193
 5400W        W21534  12.718   1.371   5.189  0.1922 -0.0002 -0.0392
 5401W        W21535   7.255   6.905  14.639 -0.2431 -0.1655  0.2112
 5402W        W21536   5.545   1.346  11.769 -0.2197 -0.1319 -0.1366
 5403W        W21537   7.096   5.351  10.391 -0.0113  0.0373  0.1951
 5404W        W21538  12.906  11.539  13.004  0.0709  0.0882  0.1899
 5405W        W21539  14.960  15.210   0.686 -0.0978  0.2797 -0.0616
 5406W        W21540  11.813  16.553   5.965 -0.1575 -0.3007  0.1885
 5407W        W21541  13.652   9.727  11.908 -0.0824  0.1832  0.2258
 5408W        W21542  15.439   8.818  10.385 -0.4390  0.3587  0.0041
 5409W        W21543   4.659  16.153   4.288 -0.3206 -0.1061  0.3877
 5410W        W21544  13.153  13.894  10.137 -0.1351  0.0370  0.0682
 5411W        W21545  13.399  10.370   0.145  0.0037 -0.3433  0.2422
 5412W        W21546  16.160  15.943  11.691  0.0003  0.2225  0.0767
 5413W        W21547   5.695   1.954  11.038  0.1850  0.0426 -0.1986
 5414W        W21548   3.882   8.067  14.784 -0.2376 -0.2245  0.3807
 5415W        W21549  18.844   1.441  13.326  0.1597  0.1319 -0.1619
 5416W        W21550   3.476  18.508   1.453  0.2657 -0.1736  0.2934
 5417W        W21551   1.914   6.002  13.440 -0.0291  0.0932  0.0371
 5418W        W21552   8.739   5.969   0.678  0.1499  0.0609 -0.3143
 5419W        W21553   8.392  10.949   3.319 -0.1931 -0.0739  0.2140
 5420W        W21554   2.040   5.108   4.517  0.2615 -0.1811 -0.1930
 5421W        W21555  16.111   2.947   2.982  0.1128  0.4575 -0.2842
 5422W        W21556  11.480  18.454   2.931 -0.0166  0.4181 -0.3397
 5423W        W21557   4.003  15.829  10.450  0.2736 -0.3292 -0.1141
 5424W        W21558  16.702   3.541  14.108  0.2172 -0.4088  0.2188
 5425W        W21559   0.938   1.049   2.836  0.1230  0.0051  0.1563
 5426W        W21560   3.465  16.481   3.962  0.2212  0.0675  0.1319
 5427W        W21561   3.116  15.858   1.922 -0.1013 -0.0967 -0.2023
 5428W        W21562  11.723   5.562  11.278 -0.1289  0.2425  0.0585
 5429W        W21563   7.786   6.531   0.379  0.2408  0.2829  0.3159
 5430W        W21564   1.891   7.842   9.250  0.3245 -0.0271  0.0720
 5431W        W21565   6.306   0.098   3.528  0.2178  0.1091  0.0673
 5432W        W21566   5.910   0.841   4.903 -0.0335 -0.1210 -0.1047
 5433W        W21567   5.968  14.904   3.496 -0.0698 -0.4263  0.0175
 5434W        W21568   0.991  19.059  13.858 -0.2961 -0.1719  0.0644
 5435W        W21569   4.259   2.475   3.335  0.2362 -0.0410 -0.0217
 5436W        W21570  10.941   7.431   5.849 -0.3191  0.0324  0.6516
 5437W        W21571  11.886  17.648  13.470  0.4927 -0.0514 -0.0590
 5438W        W21572  11.905  11.626   1.665 -0.2886 -0.1112  0.0773
 5439W        W21573   4.774  12.831   2.123  0.2838 -0.1020  0.1029
 5440W        W21574   9.948  18.194  13.980 -0.4387  0.3579 -0.3159
 5441W        W21575  14.967  12.719   4.744 -0.0705 -0.3569 -0.1623
 5442W        W21576   6.348  13.642   2.879 -0.2041  0.1070 -0.2220
 5443W        W21577   7.430   8.490  13.700  0.2775  0.1084 -0.1150
 5444W        W21578   6.888   2.205  14.086 -0.2395 -0.2562 -0.1400
 5445W        W21579  15.804   4.931  11.736  0.0090  0.1053 -0.2965
 5446W        W21580  15.486   5.406   3.309  0.1536  0.2061 -0.1773
 5447W        W21581   3.968   3.767   4.777  0.1853 -0.0728 -0.1509
 5448W        W21582   6.985  17.524  13.514 -0.2077 -0.0087  0.1418
 5449W        W21583  11.004  17.157   2.287  0.3076  0.1507 -0.0815
 5450W        W21584  14.693   6.941   2.899  0.0835  0.1460 -0.1221
 5451W        W21585   9.918   7.497   2.297  0.0979 -0.3134 -0.0774
 5452W        W21586   7.984   5.197  10.455 -0.2437  0.0582  0.0431
 5453W        W21587  14.478   0.732   5.674 -0.2356  0.0645  0.0347
 5454W        W21588  15.377   8.124  11.561 -0.0774 -0.0145 -0.0062
 5455W        W21589  10.717   7.246   1.795  0.0915  0.0991  0.1351
 5456W        W21590   7.023   4.092   2.636  0.2673 -0.2007 -0.0094
 5457W        W21591   7.289   0.791   1.468 -0.2695  0.1516 -0.1311
 5458W        W21592  17.386  15.714   1.458 -0.1474 -0.1040 -0.0446
 5459W        W21593   7.996   4.868   0.990 -0.0106 -0.0564 -0.0385
 5460W        W21594  11.561  13.827  14.754  0.1082 -0.2791 -0.0589
 5461W        W21595   6.390   4.897  13.293 -0.3774 -0.1294 -0.1016
 5462W        W21596  13.056  16.957  13.042 -0.2340  0.1307  0.0953
 5463W        W21597  18.512  16.864  13.761  0.0902  0.3268  0.1154
 5464W        W21598   2.892  12.355  10.546 -0.0064  0.3511  0.3718
 5465W        W21599   9.811  14.725  12.789  0.1666  0.1742 -0.0102
 5466W        W21600   6.277   3.051  10.824 -0.0760 -0.1722  0.4415
 5467W        W21601  18.597   9.051   1.344  0.1147  0.3703  0.0960
 5468W        W21602   9.773   4.471  11.854 -0.0689 -0.1958  0.3497
 5469W        W21603   5.246   1.035   4.200 -0.1313  0.2368 -0.0432
 5470W        W21604  17.280  19.152   4.405 -0.0589  0.0269 -0.1959
 5471W        W21605   1.608   2.995  12.561 -0.1219  0.0278 -0.1127
 5472W        W21606   1.822  18.544  12.777 -0.0959 -0.2757  0.1261
 5473W        W21607  12.060  11.328   0.856 -0.0351 -0.0173  0.0754
 5474W        W21608   7.175  13.839   4.875  0.0515  0.0993 -0.0714
 5475W        W21609   9.268   7.847  12.978 -0.1984  0.1331  0.0149
 5476W        W21610  17.204   7.948   0.006 -0.1550  0.0217  0.0883
 5477W        W21611   2.710   8.839   0.917  0.4061  0.0503  0.2121
 5478W        W21612   6.308  15.312   3.453 -0.1523 -0.1837 -0.1166
 5479W        W21613  16.859   6.270   3.743  0.0384  0.1064  0.1747
 5480W        W21614  14.065  13.063  14.734  0.0510 -0.0356  0.2037
 5481W        W21615   0.689  11.179   3.851 -0.0774  0.0736 -0.1629
 5482W        W21616  18.917  10.709   4.315  0.1618 -0.2095  0.2081
 5483W        W21617  19.243  15.740  11.204 -0.4028  0.2523 -0.0664
 5484W        W21618  17.930   2.782   4.099 -0.2319 -0.0416 -0.3021
 5485W        W21619  18.507  16.153   0.874  0.3915 -0.3332  0.0057
 5486W        W21620   7.521   5.210  10.280 -0.2374 -0.3300  0.1558
 5487W        W21621   4.363  13.991   1.777 -0.2365 -0.4738  0.4144
 5488W        W21622   9.739  15.079   0.631  0.0818 -0.4087  0.0904
 5489W        W21623   5.029  10.341   1.318 -0.0992  0.1292 -0.3112
 5490W        W21624  11.365   0.757   4.188 -0.1889 -0.2511  0.1116
 5491W        W21625  10.064   1.892   5.029 -0.2140  0.1804  0.1659
 5492W        W21626  12.649   3.782  13.003 -0.0499  0.0200 -0.0230
 5493W        W21627  18.476   5.843  10.783  0.1066  0.0835  0.0259
 5494W        W21628   9.660   8.180   5.622  0.1006  0.3109 -0.0298
 5495W        W21629   7.355   4.970  11.695  0.1846  0.1470  0.0969
 5496W        W21630  13.464   7.613   2.190 -0.0699 -0.0840  0.1053
 5497W        W21631   9.515  13.691   2.501  0.1994 -0.1531 -0.2452
 5498W        W21632   3.767   5.967  14.245  0.1915 -0.0398  0.0001
 5499W        W21633  15.719  16.672  11.461  0.0261  0.1232 -0.0027
 5500W        W21634   7.738  11.828   5.590 -0.1737 -0.0328 -0.0591
 5501W        W21635   7.426  15.077   0.848  0.3106 -0.1551  0.1264
 5502W        W21636   1.218  13.749  12.309 -0.1312  0.3322  0.0157
 5503W        W21637   1.083   6.310   4.132 -0.1275  0.2658  0.1577
 5504W        W21638  11.574   4.888  14.191  0.2451 -0.0535 -0.0018
 5505W        W21639  17.799  10.363   1.273  0.0982  0.0336  0.3873
 5506W        W21640  12.815   4.999  10.532 -0.2746 -0.0389  0.1319
 5507W        W21641   4.342  13.873  12.426 -0.1167  0.0006  0.0450
 5508W        W21642   6.857  12.466  14.019 -0.1993 -0.1366  0.0555
 5509W        W21643  16.473   0.047  14.418  0.1411  0.0703 -0.0597
 5510W        W21644   2.676   8.993  10.053  0.1613 -0.1238  0.0075
 5511W        W21645   8.991   5.527   3.296 -0.2874 -0.2657  0.0070
 5512W        W21646   0.468   3.135   4.164 -0.0377  0.2206  0.1631
 5513W        W21647  16.450   4.883  12.883  0.0503  0.4217  0.3406
 5514W        W21648  15.414   5.552  14.659  0.0943 -0.3039 -0.1799
 5515W        W21649  16.644  19.334   1.987  0.0143  0.0006  0.0240
 5516W        W21650   2.819   5.932  12.219 -0.1066 -0.1607 -0.1419
 5517W        W21651   7.936   0.327  12.267 -0.0013 -0.1476 -0.0361
 5518W        W21652  17.691   5.647   2.163  0.0166  0.3865 -0.0047
 5519W        W21653   8.260   0.320  14.704  0.1167 -0.2001 -0.2103
 5520W        W21654  18.574   5.868   2.756 -0.0498  0.1461  0.1751
 5521W        W21655   9.263  17.927  11.128 -0.2689  0.1857  0.1035
 5522W        W21656  16.348   8.693   9.959  0.0559  0.2913 -0.0081
 5523W        W21657   4.571  16.456  14.224 -0.3529  0.1887 -0.4163
 5524W        W21658  12.785  15.260  14.373  0.0006  0.2045 -0.2247
 5525W        W21659   9.189  14.028  14.819  0.0266 -0.1643  0.0270
 5526W        W21660   9.124   5.003   4.517  0.1119  0.0213  0.1622
 5527W        W21661   2.757   5.867  13.854 -0.4859 -0.0646  0.3339
 5528W        W21662  18.526   7.588   1.354 -0.2108 -0.3042 -0.3896
 5529W        W21663  16.933   9.309   1.629 -0.1237 -0.2325 -0.2138
 5530W        W21664  13.516  10.307  11.342  0.3866 -0.1035 -0.0810
 5531W        W21665  10.419   7.136   3.359 -0.0103  0.1414 -0.0469
 5532W        W21666  11.785  10.375  12.154  0.3482 -0.0825  0.4006
 5533W        W21667  14.859  14.182   4.485 -0.0123  0.0932 -0.0089
 5534W        W21668  10.924  16.304   4.828  0.1997  0.1256  0.0255
 5535W        W21669  12.191   3.294   3.804 -0.2296 -0.1253 -0.1602
 5536W        W21670  15.955  14.500   3.332 -0.0379 -0.2220  0.1656
 5537W        W21671  16.131   9.589  11.939 -0.0141 -0.1940  0.0493
 5538W        W21672   6.362   9.009   9.812  0.2628 -0.0044  0.1603
 5539W        W21673   6.601  17.881  13.261  0.2476 -0.2883  0.0103
 5540W        W21674   7.138  13.355   3.863 -0.2459  0.0106  0.0425
 5541W        W21675   2.206  16.616  11.148  0.7189  0.1329  0.2741
 5542W        W21676   8.294   3.215   0.693 -0.0581 -0.3524 -0.1093
 5543W        W21677   7.471  13.089   4.451  0.4245 -0.0514 -0.0558
 5544W        W21678  13.689   0.412   1.006  0.1364 -0.0649  0.1330
 5545W        W21679   2.649  14.969   0.626  0.3276  0.0904 -0.4581
 5546W        W21680   6.365  18.834  11.247 -0.1445  0.1315 -0.0661
 5547W        W21681   4.229   4.728   9.767 -0.2270 -0.4670 -0.3939
 5548W        W21682   7.781   9.656   3.846 -0.0669  0.0138 -0.0381
 5549W        W21683  13.808  10.260  14.793  0.0344  0.2525  0.0915
 5550W        W21684   0.204  18.845   4.214 -0.0971 -0.0928  0.1787
 5551W        W21685  15.864   2.074   3.194  0.3177  0.3570 -0.5035
 5552W        W21686  11.435  19.148   0.299  0.1805  0.0320  0.4048
 5553W        W21687   5.521   2.591   0.848  0.0779  0.0558 -0.1704
 5554W        W21688   0.846  15.837  14.408  0.2053 -0.0346  0.0493
 5555W        W21689  17.267   5.905  11.356 -0.2786 -0.0764 -0.0776
 5556W        W21690  16.059   2.427  11.674 -0.1533  0.1747 -0.1558
 5557W        W21691  10.513   7.800  11.724 -0.0563 -0.0561  0.5527
 5558W        W21692  17.916   9.094   0.537  0.1079 -0.1587  0.0556
 5559W        W21693   5.570  12.645  12.073  0.0705  0.0073  0.0136
 5560W        W21694   3.315  12.081  11.321 -0.1386 -0.2183 -0.0842
 5561W        W21695  12.185  13.450   0.960 -0.0894  0.0294  0.2836
 5562W        W21696   7.187   9.379   4.211 -0.0874 -0.2078 -0.0061
 5563W        W21697   8.764   9.908   1.163 -0.3270 -0.1986  0.0159
 5564W        W21698  11.537  12.306   0.129 -0.1314  0.0524  0.4447
 5565W        W21699  18.390  10.397   3.615  0.1788  0.0207  0.0292
 5566W        W21700   7.498  10.919  11.887 -0.2418  0.1233 -0.1879
 5567W        W21701  18.316  16.222  12.025  0.3525 -0.1404 -0.1315
 5568W        W21702  17.144  15.206  13.508  0.1688  0.2234  0.0121
 5569W        W21703  15.392  11.425  13.791 -0.3353  0.1343 -0.0099
 5570W        W21704  16.383  18.107   3.227 -0.3398  0.1442  0.2233
 5571W        W21705   1.521   6.060   1.459  0.1895  0.0228  0.3343
 5572W        W21706  17.956   7.179  10.625  0.0328 -0.0015  0.1339
 5573W        W21707   2.420  11.768   2.962  0.0610  0.1133 -0.2024
 5574W        W21708  11.808   6.156   1.913 -0.3412  0.2951  0.0241
 5575W        W21709   0.440   5.430  13.257  0.1220  0.0752 -0.1897
 5576W        W21710  15.916   7.350   4.498  0.0037  0.1048 -0.0898
 5577W        W21711   9.891  15.767   3.273 -0.0282 -0.3149 -0.1335
 5578W        W21712   3.169   4.842  13.082 -0.1356 -0.0964  0.0559
 5579W        W21713  13.638  18.014   3.299 -0.2431 -0.1028 -0.4075
 5580W        W21714   1.956   6.994  12.484  0.0189 -0.2778 -0.1697
 5581W        W21715  12.743  10.498  10.223 -0.0555  0.0385 -0.1487
 5582W        W21716  18.728   8.485   4.501 -0.2063 -0.4168  0.4818
 5583W        W21717   2.798  11.295   4.118 -0.1884  0.0681  0.0595
 5584W        W21718  16.716   8.308   3.585  0.5088  0.0333 -0.0271
 5585W        W21719   4.125  17.018  14.827 -0.3402  0.0107 -0.0441
 5586W        W21720  13.527   1.304   2.495  0.1843 -0.1542 -0.0761
 5587W        W21721  18.027  17.822   0.267  0.2116  0.3833  0.2243
 5588W        W21722   7.857   9.706  14.421  0.1511  0.1327  0.3192
 5589W        W21723   1.791  19.113   4.727  0.2759  0.2551  0.0413
 5590W        W21724   8.859   9.069   0.691  0.0824 -0.1454  0.2089
 5591W        W21725  19.133   7.697  12.787  0.3060 -0.1306  0.2098
 5592W        W21726  14.986   7.530   5.358  0.0060 -0.3324  0.1669
 5593W        W21727  14.149  12.453  12.865  0.1403 -0.1019 -0.0458
 5594W        W21728   5.466   4.795  12.908  0.2208 -0.3162  0.3326
 5595W        W21729   9.897  14.372   0.503 -0.4204 -0.1977 -0.3896
 5596W        W21730   3.148  15.328   3.067 -0.3791  0.0968 -0.0650
 5597W        W21731  15.736  11.936   1.459 -0.2034 -0.1384 -0.0291
 5598W        W21732   6.208   5.020   3.716 -0.0916 -0.1201 -0.0242
 5599W        W21733  11.249  11.375   4.664 -0.0501 -0.4566 -0.0630
 5600W        W21734   3.044   6.881  11.068 -0.0474  0.5466  0.3194
 5601W        W21735  16.956   4.218   1.783 -0.0686 -0.0021  0.0145
 5602W        W21736   9.080   1.346   4.520 -0.2444 -0.1724  0.1567
 5603W        W21737  18.904  16.073   4.120 -0.1577 -0.0716 -0.0990
 5604W        W21738   0.243   6.035  11.046 -0.4588  0.1767  0.0488
 5605W        W21739   2.822  17.207   1.676  0.0931  0.1566 -0.3825
 5606W        W21740  16.758   7.731  14.915 -0.0964 -0.2080  0.6377
 5607W        W21741  11.191   1.232  12.134 -0.0586  0.0219 -0.0093
 5608W        W21742   0.722   6.753   3.086  0.0201 -0.0033  0.1049
 5609W        W21743  14.745   3.665   4.291  0.0975 -0.3710  0.0673
 5610W        W21744   0.978   1.732  10.514 -0.2540  0.0628  0.1330
 5611W        W21745   8.606  14.281  13.751 -0.2137 -0.2646 -0.0347
 5612W        W21746  16.055   4.628   3.663 -0.2233 -0.0329  0.2481
 5613W        W21747   8.069  17.807   1.084  0.1256  0.0404 -0.2706
 5614W        W21748   4.710  17.386  14.154 -0.2138  0.0517 -0.2389
 5615W        W21749  13.258  17.152   3.685 -0.1283  0.0602 -0.2877
 5616W        W21750  13.424   1.282  12.282 -0.4168  0.2918 -0.1133
 5617W        W21751   6.364   6.676  13.005 -0.1305 -0.2071  0.0212
 5618W        W21752   5.314  15.044   2.371  0.0712  0.0702  0.2640
 5619W        W21753   7.929  18.244  10.852  0.2032  0.2008  0.0565
 5620W        W21754   5.991   4.180  10.079  0.1358 -0.0301  0.0598
 5621W        W21755   3.318  16.522  11.224 -0.3533  0.1769  0.1102
 5622W        W21756  15.178   5.443   0.128  0.2164 -0.1663 -0.1951
 5623W        W21757   7.025  17.462   5.970  0.1229  0.0900 -0.0789
 5624W        W21758  11.413  17.618  14.655 -0.0067  0.3391 -0.1337
 5625W        W21759  11.375   5.302   1.128  0.3559 -0.0647  0.1392
 5626W        W21760  10.273   9.294   1.051 -0.0237  0.2658  0.0874
 5627W        W21761   2.162   8.968  13.923  0.1219 -0.0773 -0.4164
 5628W        W21762  13.271   0.390   5.175  0.2360  0.4613 -0.0789
 5629W        W21763   6.983   5.249  12.598  0.1421 -0.0825 -0.0834
 5630W        W21764   0.023  13.610  14.074 -0.3515  0.1192 -0.0347
 5631W        W21765   3.630  11.226  11.704  0.0698 -0.0747  0.0409
 5632W        W21766   7.463  10.268   2.592 -0.4130  0.0561 -0.1444
 5633W        W21767  11.882   0.030  14.518 -0.0917  0.0007 -0.0459
 5634W        W21768  12.309   4.882   0.503 -0.0597  0.0224  0.4613
 5635W        W21769  12.347  18.740  11.410  0.2829  0.1435 -0.2742
 5636W        W21770  15.631   1.424   0.951 -0.0717 -0.1119  0.0270
 5637W        W21771  15.305  10.872   1.613 -0.0062 -0.0415 -0.0153
 5638W        W21772  18.158  15.217  13.651  0.0740  0.0919 -0.2120
 5639W        W21773   2.418   6.216  12.140  0.2261  0.2512 -0.0790
 5640W        W21774   8.993   3.706   2.715 -0.0215  0.0389 -0.1789
 5641W        W21775   5.923   2.860  14.804  0.3007 -0.3125 -0.1486
 5642W        W21776  14.310   6.027  12.678  0.0172 -0.0589  0.0807
 5643W        W21777  10.526   4.109   0.715  0.1114 -0.0916 -0.2003
 5644W        W21778  18.698   7.863   2.084  0.0548  0.1670 -0.0878
 5645W        W21779  17.887  16.480   3.291  0.0583 -0.2561  0.1251
 5646W        W21780   0.988   4.791  12.903  0.0343 -0.0976  0.1442
 5647W        W21781   4.315   9.556   0.999 -0.1583 -0.2524  0.1739
 5648W        W21782   0.167  14.896  14.411  0.1274  0.2141  0.1302
 5649W        W21783  12.935  14.041   1.336  0.3603 -0.4338 -0.1933
 5650W        W21784  14.879   7.581   2.129 -0.1760  0.0208 -0.3575
 5651W        W21785   6.389  14.544  10.013  0.1526 -0.0546  0.5188
 5652W        W21786   9.192   2.474   4.913 -0.1410  0.1728 -0.0587
 5653W        W21787   2.075  12.435   1.297  0.2386  0.3574 -0.5433
 5654W        W21788  15.860  13.683  13.467  0.4320 -0.2810  0.1957
 5655W        W21789  12.955   0.271  13.302 -0.2531  0.3887  0.0415
 5656W        W21790  13.969   4.729   1.075 -0.1141 -0.1061  0.0188
 5657W        W21791  12.184   7.046  10.784 -0.0615 -0.3278  0.0487
 5658W        W21792  10.747   6.748   1.986  0.2068 -0.1928 -0.2698
 5659W        W21793   3.519  12.200  13.446 -0.5430  0.3221  0.0165
 5660W        W21794   3.096  12.789   1.378 -0.1737 -0.2077 -0.0393
 5661W        W21795   2.214  17.312   4.505 -0.1129 -0.1092 -0.1063
 5662W        W21796   4.380  13.515  10.495 -0.0156 -0.1298  0.1013
 5663W        W21797   4.676  11.056   3.131 -0.1456 -0.1328  0.0371
 5664W        W21798  18.713  18.131   0.817 -0.1489 -0.2795 -0.0008
 5665W        W21799  15.203  12.786   5.195  0.3411 -0.0019 -0.0959
 5666W        W21800   9.724  15.072  14.579  0.5014 -0.0569  0.3245
 5667W        W21801  18.070  15.478   2.910 -0.1596  0.0705 -0.0291
 5668W        W21802   6.957   1.304  14.875 -0.1415  0.1182  0.0793
 5669W        W21803   3.640   8.747   9.930 -0.2441  0.1669 -0.0621
 5670W        W21804  18.292   2.221   3.469 -0.4967  0.1814 -0.0630
 5671W        W21805   2.564   8.780   0.096 -0.1205  0.2511 -0.1341
 5672W        W21806  15.590   1.676  14.661 -0.1887  0.0550  0.1505
 5673W        W21807  10.996  10.141  12.637  0.0003 -0.0204 -0.0244
 5674W        W21808   8.434   5.645  12.138 -0.2383 -0.1040  0.1476
 5675W        W21809  17.511  15.580   4.511  0.2546  0.1738  0.1710
 5676W        W21810  10.539  17.356   2.246  0.3847 -0.0760 -0.2423
 5677W        W21811   4.368   2.131  10.754  0.2243  0.0328  0.3782
 5678W        W21812  16.924   2.018  11.486 -0.0903 -0.0052  0.4016
 5679W        W21813   5.189  19.316   4.040 -0.0557 -0.1266 -0.1344
 5680W        W21814   9.090  14.903  12.918 -0.1145  0.0422 -0.1524
 5681W        W21815  11.476   2.089  13.041  0.0010  0.0209 -0.1200
 5682W        W21816   4.740   4.354  14.049  0.0341 -0.0569 -0.0738
 5683W        W21817   5.276  10.511  10.834 -0.0719  0.2084 -0.0852
 5684W        W21818  17.026  18.831  12.439  0.2021  0.0441 -0.1255
 5685W        W21819  15.382  13.703   3.769  0.2353 -0.0190  0.4273
 5686W        W21820   9.542   5.693   5.644  0.1682 -0.1527 -0.1467
 5687W        W21821   3.204   7.234   1.709  0.2231 -0.4331  0.2285
 5688W        W21822   0.994   7.017   1.641 -0.1855  0.0044 -0.0146
 5689W        W21823   3.051  11.670  14.560  0.0649 -0.0244  0.0494
 5690W        W21824  19.132   6.826   2.113  0.0856 -0.2998 -0.0141
 5691W        W21825  15.279   0.648  14.526  0.1748 -0.4189  0.0581
 5692W        W21826   8.009  14.503   3.892  0.2177  0.1589 -0.0602
 5693W        W21827  11.051  13.914  11.691  0.1120  0.1480 -0.0318
 5694W        W21828  15.379  15.049   2.377  0.1259 -0.0493  0.0689
 5695W        W21829  15.910   1.150   3.507  0.1845  0.0259  0.2549
 5696W        W21830   6.329  19.308   4.477 -0.1313  0.1510  0.2300
 5697W        W21831   6.870   6.556  14.868  0.0063 -0.1034  0.2548
 5698W        W21832   1.916   4.881  11.439 -0.4497  0.0097  0.3960
 5699W        W21833  17.442   8.670   3.846  0.1634 -0.0884  0.2156
 5700W        W21834   1.691  16.607  10.403 -0.0395 -0.0318  0.0265
 5701W        W21835  14.801  10.493   1.825 -0.1889 -0.1566  0.2416
 5702W        W21836  12.408   0.175  14.501 -0.5678 -0.3991  0.1955
 5703W        W21837   0.692  11.613   3.656  0.3573  0.0338  0.2511
 5704W        W21838   3.743   5.815   1.199  0.2331 -0.2201  0.1967
 5705W        W21839   0.214  11.370   3.939 -0.1623 -0.5403 -0.0136
 5706W        W21840   7.464   2.497  12.783 -0.3531  0.0519 -0.0290
 5707W        W21841  11.897  11.702  14.360  0.0726  0.2121  0.4369
 5708W        W21842  15.143   1.509   2.833 -0.2386 -0.0580  0.2294
 5709W        W21843  14.908  12.566  11.021 -0.1059  0.3214 -0.0037
 5710W        W21844  14.697   4.461  10.605  0.0199  0.0231  0.3573
 5711W        W21845   5.283   5.323  12.152  0.1139 -0.0410 -0.2759
 5712W        W21846   9.990   1.936   5.552  0.0620 -0.0973 -0.2064
 5713W        W21847  18.400  18.425  13.090 -0.2498 -0.0247 -0.0033
 5714W        W21848   1.787   3.300   1.680 -0.0937 -0.2013 -0.0143
 5715W        W21849   0.282   3.292  10.474 -0.1989 -0.2188 -0.0690
 5716W        W21850   6.284  15.910   4.778  0.2478  0.3499  0.2672
 5717W        W21851   4.439  12.651  12.409 -0.3524  0.1234  0.2803
 5718W        W21852   0.688  16.120   5.150 -0.0211  0.1090 -0.1096
 5719W        W21853   2.846   9.512   4.018  0.1552 -0.0251 -0.2131
 5720W        W21854  13.436   2.800   1.300  0.2184 -0.1464  0.0896
 5721W        W21855  16.872  19.256  12.281 -0.1889 -0.0321 -0.3573
 5722W        W21856  16.401  14.330  10.778 -0.2227  0.0462 -0.0888
 5723W        W21857  13.106   9.387  12.345  0.4245  0.0599 -0.0684
 5724W        W21858  14.287  12.303  10.264 -0.1441 -0.1474 -0.1058
 5725W        W21859  13.165   0.676   4.368  0.2931  0.0396 -0.2097
 5726W        W21860   3.789  11.531   0.122  0.4458 -0.2246  0.0405
 5727W        W21861   3.139   7.241  10.226  0.1761 -0.0216 -0.1159
 5728W        W21862  13.265   3.604   0.391  0.1003 -0.0322  0.1364
 5729W        W21863  14.514   6.168  13.331 -0.0404 -0.0137  0.2818
 5730W        W21864   0.472   7.119   3.710 -0.0455 -0.1292 -0.1810
 5731W        W21865  11.660  15.358  11.387 -0.0798  0.3051 -0.0414
 5732W        W21866   2.659   4.291  12.479  0.0627 -0.1650  0.0858
 5733W        W21867   1.376  16.982   3.344 -0.3933 -0.2028 -0.2185
 5734W        W21868  18.786   7.921   1.589  0.1658 -0.3292 -0.0553
 5735W        W21869   6.632   5.919   2.647  0.0027 -0.0601  0.2266
 5736W        W21870   0.481   5.781   4.382  0.2257  0.2687  0.0420
 5737W        W21871   3.619   5.055  13.216 -0.0458 -0.1830 -0.2702
 5738W        W21872   3.321   8.294   4.420  0.1724  0.2798  0.0435
 5739W        W21873  16.188   7.069   1.941 -0.1398  0.2223  0.1810
 5740W        W21874   5.663   6.914  13.792  0.3108  0.0852 -0.0368
 5741W        W21875   1.773  11.755  13.011  0.0215  0.2335 -0.4253
 5742W        W21876  19.245   6.105  12.231 -0.2424 -0.0731 -0.0217
 5743W        W21877   7.090  18.357   0.181 -0.0002  0.1301  0.2029
 5744W        W21878   5.861  16.392   5.437 -0.1253 -0.1868  0.5854
 5745W        W21879   6.388  16.550   0.025  0.0005  0.2175  0.0135
 5746W        W21880   0.559   3.964   0.463 -0.0349  0.1407 -0.0478
 5747W        W21881   2.021  10.974   3.391 -0.0147 -0.0332  0.1886
 5748W        W21882   0.831   6.508  14.035 -0.3693  0.0098  0.2353
 5749W        W21883  11.889  15.586   5.838 -0.1792  0.1227  0.0723
 5750W        W21884  13.204   1.530  14.166 -0.1532 -0.3782 -0.0769
 5751W        W21885   3.101  17.935  14.840  0.0533  0.2815  0.2695
 5752W        W21886   1.437   0.153  10.985 -0.2116  0.1679  0.2125
 5753W        W21887   9.099   6.006   2.630 -0.0199 -0.1803 -0.2441
 5754W        W21888   5.142   5.240   1.022 -0.0780 -0.1972 -0.3022
 5755W        W21889   8.036  15.723  13.541 -0.2288 -0.0464 -0.1402
 5756W        W21890  13.522   0.075   3.422  0.0003 -0.1304  0.0442
 5757W        W21891   7.598  18.194  11.822  0.1201  0.1874 -0.0090
 5758W        W21892   9.249  18.410   3.745 -0.0663  0.0942 -0.0163
 5759W        W21893   3.969  10.020   3.644  0.3223 -0.0406 -0.0784
 5760W        W21894   2.124  15.990  10.802 -0.1335 -0.0274 -0.0359
 5761W        W21895   4.823   6.194   1.130 -0.1428  0.0293 -0.0307
 5762W        W21896   3.211   6.652   0.798  0.1392 -0.0572 -0.1059
 5763W        W21897  11.185   3.267  13.641  0.2292 -0.0066 -0.0407
 5764W        W21898   0.297   0.226   0.253 -0.1606 -0.2494 -0.0740
 5765W        W21899   6.068   6.460  13.836  0.3351 -0.0248  0.3174
 5766W        W21900   7.378  16.250   4.696  0.0931  0.0493  0.1563
 5767W        W21901   5.513  18.802  12.126 -0.0663  0.2734 -0.3515
 5768W        W21902   3.129  15.406  13.530 -0.0234  0.1480  0.0980
 5769W        W21903  16.289  18.371   4.144  0.0560 -0.1356  0.0243
 5770W        W21904   2.994  14.915   4.429 -0.2390  0.2023 -0.2097
 5771W        W21905   8.526  14.885   2.300  0.1934  0.1490  0.0942
 5772W        W21906  14.372   6.976   1.155 -0.0260  0.2263  0.0450
 5773W        W21907   6.908  12.923   0.470 -0.0089  0.0718  0.0699
 5774W        W21908   6.588   5.532  14.788  0.2588 -0.1537  0.1573
 5775W        W21909   3.158   5.211  11.224 -0.5240  0.1774  0.0674
 5776W        W21910   2.465  12.874  14.145  0.1131  0.1039  0.0447
 5777W        W21911   1.861   9.126   1.919  0.0119 -0.3425  0.0394
 5778W        W21912  10.332   9.819  11.395 -0.2097  0.2280  0.3393
 5779W        W21913   2.180  16.275  11.609  0.2135 -0.0204 -0.1955
 5780W        W21914   2.716  15.046   3.099  0.0420 -0.0255  0.0958
 5781W        W21915   7.317   1.817   2.743 -0.1369 -0.3303 -0.2639
 5782W        W21916   2.797  10.526  10.746  0.0877 -0.3560 -0.0520
 5783W        W21917   0.315  13.094  10.096  0.0742  0.2694 -0.2498
 5784W        W21918  18.289  15.940  14.897  0.0860  0.1557 -0.0550
 5785W        W21919   5.431   7.926   0.312  0.0775 -0.0945 -0.4026
 5786W        W21920  17.989  18.281   4.228  0.2704  0.0982  0.2198
 5787W        W21921   1.976  15.463  11.494  0.0041 -0.0055  0.1277
 5788W        W21922  17.315   9.153   3.760  0.3186 -0.3105 -0.3189
 5789W        W21923   8.090   4.800  13.674 -0.1300  0.2991 -0.0758
 5790W        W21924   0.699  12.597  10.217 -0.1731 -0.1173  0.1493
 5791W        W21925   3.606   4.531  13.352 -0.4572  0.1722 -0.0074
 5792W        W21926  11.784  16.422   3.854  0.0236  0.0253 -0.1865
 5793W        W21927   1.258   7.405  10.547 -0.0380  0.1018  0.0273
 5794W        W21928   5.277   0.336  11.233  0.1107  0.0326  0.2003
 5795W        W21929   9.032  18.739   4.571  0.1102 -0.0420  0.0500
 5796W        W21930  11.724  18.574  13.980  0.1272  0.3782 -0.2996
 5797W        W21931   2.258   3.314  11.714 -0.3032  0.2431 -0.0853
 5798W        W21932  12.210   4.464   2.263  0.0584 -0.2760 -0.1375
 5799W        W21933  16.092  19.340   5.189 -0.2660 -0.0516  0.1573
 5800W        W21934  15.683  18.432  12.012 -0.2120 -0.4060  0.3928
 5801W        W21935  13.926   2.065  11.938  0.0596  0.2085  0.0200
 5802W        W21936   5.997   0.063  14.008  0.0864  0.1342 -0.4075
 5803W        W21937   9.087  17.186   2.256  0.0256 -0.3211 -0.0973
 5804W        W21938  15.992   1.560  13.466  0.0576  0.2107 -0.0368
 5805W        W21939  13.505   1.978   3.022  0.1450 -0.0561  0.1486
 5806W        W21940   0.842  11.757  11.611 -0.2706  0.2465  0.0508
 5807W        W21941   1.412   9.188  13.047  0.1597  0.3177  0.1928
 5808W        W21942   8.355   5.773   3.377  0.2006  0.1683 -0.1251
 5809W        W21943   6.387  15.910   1.462 -0.0878 -0.0017 -0.1240
 5810W        W21944  15.349  12.005   0.606 -0.0195  0.1188 -0.2377
 5811W        W21945   8.583   1.804  13.867 -0.0352 -0.0884 -0.2094
 5812W        W21946   8.672  10.264   2.308  0.1517  0.1251  0.0759
 5813W        W21947   6.800  19.139   1.227 -0.1557 -0.1990 -0.1276
 5814W        W21948  10.460  10.566   4.664  0.0281  0.2329 -0.4962
 5815W        W21949   4.270  15.577   0.536  0.0296  0.1897  0.0396
 5816W        W21950  16.712   3.688   1.612 -0.0425  0.0508  0.1102
 5817W        W21951   2.721  10.744   2.189  0.0049  0.0580  0.2102
 5818W        W21952  10.707   0.154  12.344  0.2204  0.0723  0.1921
 5819W        W21953   3.241   3.617   0.589 -0.0216  0.1191  0.0901
 5820W        W21954  12.701  15.186   2.566 -0.1529 -0.2920 -0.1716
 5821W        W21955   0.228   5.619   3.580 -0.1205 -0.0990 -0.3027
 5822W        W21956  15.587   6.546  14.579 -0.1517 -0.1331  0.0654
 5823W        W21957   9.230   4.939  12.538 -0.4304  0.2710  0.1532
 5824W        W21958   7.469  12.261   0.013 -0.0313  0.3765 -0.4459
 5825W        W21959   2.043   3.281  11.280  0.3018  0.0959  0.0271
 5826W        W21960   7.859  16.408  12.850 -0.1352 -0.1862 -0.2150
 5827W        W21961   0.445  14.630   1.491 -0.1573 -0.1402 -0.0854
 5828W        W21962   0.941   4.635   0.163  0.2524  0.0151  0.1846
 5829W        W21963  19.127  10.895  13.453 -0.1197 -0.0228  0.0483
 5830W        W21964   9.827   4.521   1.586  0.0330 -0.4788 -0.0245
 5831W        W21965   8.391   2.560   1.891 -0.2752  0.3137 -0.1737
 5832W        W21966   2.825   0.728   4.833 -0.1573 -0.2231 -0.1380
 5833W        W21967   9.885  12.546  11.533  0.4781  0.0894 -0.2713
 5834W        W21968  17.029  10.965  13.727  0.1559 -0.0095  0.0517
 5835W        W21969  17.912   0.412  13.784 -0.2637  0.4605  0.0733
 5836W        W21970   3.489  11.987  14.274  0.3056 -0.3106  0.1616
 5837W        W21971  17.636   4.934  14.601 -0.3358 -0.3222  0.2366
 5838W        W21972  15.894  14.810  14.834 -0.1846 -0.1843 -0.2410
 5839W        W21973   8.996   3.915   1.575  0.1637  0.0520 -0.1781
 5840W        W21974  14.234   8.911  10.255  0.0762 -0.3340  0.0121
 5841W        W21975   1.019   8.693   1.693 -0.2337 -0.1120  0.1788
 5842W        W21976   9.008  13.347   0.493 -0.2403  0.0663  0.2190
 5843W        W21977   1.042   4.972  14.745 -0.1229  0.2417  0.1385
 5844W        W21978  14.160   7.234   0.493 -0.2546 -0.1375 -0.0225
 5845W        W21979  12.323   9.651  14.925  0.0594  0.0794  0.0934
 5846W        W21980  18.203  13.028  10.340  0.2318  0.1390  0.1980
 5847W        W21981  19.336  18.323   5.468 -0.0545 -0.0784  0.2859
 5848W        W21982  13.419   5.056   3.158  0.1435 -0.2008  0.0469
 5849W        W21983   2.710   0.838  13.320  0.4385  0.1069 -0.2546
 5850W        W21984  18.126   7.936  11.279  0.2750 -0.7123  0.3298
 5851W        W21985  11.679   1.083   1.959  0.0022  0.1981  0.0036
 5852W        W21986   1.955  11.326   4.236 -0.3276  0.0457 -0.3928
 5853W        W21987  18.053  11.146  14.728  0.0294 -0.2464  0.0825
 5854W        W21988   8.057   0.239   2.732 -0.0970 -0.0881 -0.0152
 5855W        W21989   6.318   1.207  11.910 -0.1542 -0.1721  0.0310
 5856W        W21990   7.664   4.687   1.308  0.0515  0.0607  0.1415
 5857W        W21991   7.871   3.180   0.350 -0.0741  0.0276 -0.0181
 5858W        W21992   0.799   8.935   3.903 -0.1511 -0.2251  0.0133
 5859W        W21993  14.695  18.762  11.362 -0.1125  0.1903  0.2294
 5860W        W21994   4.036  19.134   4.769  0.1077  0.0111  0.0646
 5861W        W21995  15.133   8.423   5.025  0.1713 -0.2507  0.1588
 5862W        W21996   2.201  17.598   2.441  0.2157  0.3042 -0.1457
 5863W        W21997   8.509  15.508  14.345 -0.2161  0.3723  0.1663
 5864W        W21998  11.799   5.945  12.075 -0.3688  0.1728  0.1030
 5865W        W21999   1.947  16.740   0.971 -0.0055 -0.1690  0.0385
 5866W        W22000  12.965   0.750  13.443  0.0707 -0.0538 -0.1293
 5867W        W22001  12.524  11.762   2.723  0.0275 -0.4980  0.2516
 5868W        W22002   7.183  16.784  11.678  0.0070  0.0028  0.1769
 5869W        W22003  15.818  14.074   0.025 -0.1792 -0.0657 -0.4379
 5870W        W22004  14.211   5.157  11.990 -0.0116  0.0329  0.1017
 5871W        W22005   0.072  18.669  12.762  0.0574 -0.2124 -0.1965
 5872W        W22006   7.426  11.628   2.352 -0.0931  0.0685  0.0959
 5873W        W22007  10.056   5.239  14.411 -0.5788 -0.1430 -0.0368
 5874W        W22008  17.659   5.978  13.044 -0.0254  0.2826 -0.0075
 5875W        W22009  17.281   1.701  10.541 -0.1709  0.0809  0.0862
 5876W        W22010   1.829  10.942   3.946  0.1145 -0.0237 -0.1193
 5877W        W22011  17.347   2.212  12.153 -0.1593 -0.0449  0.1539
 5878W        W22012  18.174  14.746   2.201 -0.3479  0.0799  0.2047
 5879W        W22013   3.993   7.543   2.330  0.3612 -0.1565 -0.1451
 5880W        W22014  19.292  16.923   9.616  0.0953  0.0049 -0.0925
 5881W        W22015   9.223  14.685   4.449  0.1332 -0.3497  0.0549
 5882W        W22016   9.367   8.824   1.169 -0.2962 -0.0768  0.3614
 5883W        W22017  18.244  17.518  12.255  0.1131  0.0820  0.0816
 5884W        W22018   5.346   6.253  11.823 -0.0338  0.1936  0.0844
 5885W        W22019  13.237   9.968   4.322  0.2379  0.0152  0.0864
 5886W        W22020   7.756   6.074   0.941  0.0045  0.2294  0.0117
 5887W        W22021   9.249   5.989  14.840  0.1689 -0.0536 -0.1327
 5888W        W22022   7.648  16.864  12.386 -0.0058 -0.0061  0.0826
 5889W        W22023   4.972  10.673   5.106  0.1255 -0.3489  0.4095
 5890W        W22024   1.648  16.360  14.376 -0.1748 -0.1429 -0.1030
 5891W        W22025  11.299  13.596   3.905 -0.5080  0.2395 -0.0174
 5892W        W22026   7.860  10.666   3.520 -0.2044  0.0526 -0.0468
 5893W        W22027  14.099   9.118  13.265  0.1076 -0.1970  0.0385
 5894W        W22028  16.723   1.760   3.952  0.2466  0.1332  0.3220
 5895W        W22029   6.701   9.804  13.567 -0.2105 -0.1797  0.0583
 5896W        W22030  14.902  17.770   4.029 -0.0266  0.1769  0.0093
 5897W        W22031   1.019  18.633  14.707  0.1465  0.1967 -0.3085
 5898W        W22032   9.597  16.880  13.936 -0.0170  0.2851  0.3495
 5899W        W22033   8.811  17.259   1.654 -0.0855  0.0719 -0.2283
 5900W        W22034   4.357  18.934   4.296  0.0143 -0.1194 -0.0168
 5901W        W22035  10.440  18.440  13.832 -0.2919 -0.4152 -0.0796
 5902W        W22036   0.815  13.097  12.763  0.0129  0.0733  0.0307
 5903W        W22037  17.673   7.403   4.447 -0.1690  0.2191 -0.3187
 5904W        W22038  11.520  17.315   5.620  0.1332  0.1474  0.1342
 5905W        W22039  16.172  11.971  13.782 -0.2729  0.2096 -0.0484
 5906W        W22040  17.780  14.433   2.390  0.1432  0.0987 -0.0408
 5907W        W22041   6.741   4.545  13.359  0.0497 -0.0671 -0.1584
 5908W        W22042   0.302  11.826  12.007  0.1332 -0.1581  0.3784
 5909W        W22043   4.637  18.573   4.239 -0.0971 -0.0145 -0.0630
 5910W        W22044   6.631   8.700   4.016 -0.0872 -0.2633  0.1753
 5911W        W22045   9.164   7.943   0.711  0.1979 -0.2494 -0.3518
 5912W        W22046  14.142   8.663   1.961  0.2809  0.1455 -0.0563
 5913W        W22047   2.593   1.129  10.526 -0.1891  0.1907  0.1403
 5914W        W22048   2.193  12.805  11.436  0.1742 -0.2546 -0.0991
 5915W        W22049   9.301   2.660  12.545  0.1484 -0.0487  0.2609
 5916W        W22050  19.012   9.982  12.388  0.2076  0.0847  0.3253
 5917W        W22051  13.338   8.092   3.902  0.0231 -0.3887 -0.2680
 5918W        W22052  19.040   3.228   9.088  0.3727 -0.4088 -0.2263
 5919W        W22053  14.619   5.270  11.005  0.2053  0.0934 -0.0355
 5920W        W22054  12.809  10.123   2.118  0.0208 -0.1988 -0.2243
 5921W        W22055   2.803   6.723   1.692 -0.0019  0.4428 -0.0112
 5922W        W22056  18.528  14.541  11.983 -0.2449 -0.0867 -0.3022
 5923W        W22057   2.377  13.404   3.959  0.1244 -0.1552  0.3309
 5924W        W22058   8.462   9.394   2.538  0.3906  0.2110  0.1382
 5925W        W22059   2.496  18.397   0.310 -0.3070 -0.3066 -0.1778
 5926W        W22060   3.275   1.209   3.080 -0.2315  0.1442  0.1270
 5927W        W22061  18.838  10.840  12.081  0.1735 -0.1746  0.1309
 5928W        W22062   5.500  10.478   0.433  0.2660 -0.1308 -0.2387
 5929W        W22063  18.814  12.695  12.202 -0.0297 -0.1637  0.1313
 5930W        W22064   4.233  12.993  13.664  0.1341 -0.4808 -0.2971
 5931W        W22065   6.053  16.786   1.870  0.1463  0.0266  0.0516
 5932W        W22066   2.956   6.485  11.608  0.2477 -0.1726  0.2625
 5933W        W22067  18.565  15.028   0.747 -0.0684 -0.0087  0.1765
 5934W        W22068   8.474  19.191   0.074 -0.0350 -0.3680 -0.2342
 5935W        W22069  11.875  15.151  14.644 -0.1632 -0.0560 -0.4468
 5936W        W22070  14.687   1.905  10.490 -0.0567 -0.0234 -0.2296
 5937W        W22071   2.479   1.556   2.974  0.1183 -0.2572  0.1887
 5938W        W22072   4.204  15.367  14.765 -0.1080 -0.1473  0.0157
 5939W        W22073   7.850   9.160   1.151  0.0376 -0.1529 -0.3108
 5940W        W22074   8.021   8.793  12.025 -0.3304  0.2838 -0.0144
 5941W        W22075   0.204  11.713  13.862  0.1046  0.0699 -0.2567
 5942W        W22076  17.998   8.322  12.119  0.0871 -0.0969  0.0232
 5943W        W22077  10.365   5.323   0.376  0.0364  0.1348 -0.1384
 5944W        W22078   4.026   2.958  12.718  0.1777 -0.1778 -0.0461
 5945W        W22079  19.326   4.310  14.319  0.1093 -0.0613 -0.0003
 5946W        W22080   7.198  19.137  11.864  0.2750  0.2541  0.0894
 5947W        W22081   0.385  11.968   3.898  0.1250 -0.1218  0.2236
 5948W        W22082  11.068   1.424  13.368  0.0436 -0.6167 -0.4626
 5949W        W22083  18.657   0.591  12.185  0.0297  0.1487  0.0136
 5950W        W22084   9.516  10.022  12.022 -0.0014  0.3260 -0.2418
 5951W        W22085  12.690   7.464  12.808 -0.0718 -0.2865 -0.1770
 5952W        W22086   8.202   9.398   4.684  0.3490  0.2929  0.0704
 5953W        W22087  11.428  17.681  13.187  0.0304  0.2483  0.1359
 5954W        W22088  17.867   0.855   1.239 -0.1074 -0.0186  0.0256
 5955W        W22089   5.524  12.327   4.230  0.5094 -0.0992 -0.3621
 5956W        W22090  13.981  14.004   2.118  0.0483  0.0860 -0.2178
 5957W        W22091  12.144   8.278   2.983 -0.1310  0.1663 -0.0782
 5958W        W22092   8.050   0.178  11.701 -0.0935 -0.1236 -0.2389
 5959W        W22093   1.220  10.027   1.908 -0.2021  0.0998 -0.0285
 5960W        W22094   6.830  12.189   3.860 -0.3048  0.0524  0.4714
 5961W        W22095   1.269  16.833  12.200 -0.2844  0.1730 -0.0541
 5962W        W22096  11.797   2.533  10.585  0.0023 -0.3105 -0.2204
 5963W        W22097   9.557  15.240   4.027 -0.0480 -0.0568  0.1227
 5964W        W22098   7.503  13.585  12.947  0.0810  0.1506 -0.2274
 5965W        W22099  18.572   0.553  11.313 -0.0038 -0.2954  0.1272
 5966W        W22100  15.451   7.509  14.852 -0.0809 -0.1033  0.3393
 5967W        W22101   5.274  16.705   4.090  0.0046 -0.2855  0.1832
 5968W        W22102   9.752  13.504   1.604 -0.1324 -0.0114 -0.1386
 5969W        W22103  13.954  10.804  12.733  0.1616 -0.1469 -0.1329
 5970W        W22104  17.408  16.685   1.867  0.2454  0.0704  0.0032
 5971W        W22105  16.784  13.418  14.105 -0.0273 -0.2828  0.0229
 5972W        W22106  16.078   9.413   2.165  0.1260 -0.3574 -0.0695
 5973W        W22107  12.582   0.626  13.131  0.1845  0.5473 -0.1483
 5974W        W22108   4.787   7.066   2.251  0.3347 -0.1610  0.2353
 5975W        W22109   6.484  14.669  10.694 -0.0227 -0.1292  0.0280
 5976W        W22110  16.043  11.162  11.281 -0.0327 -0.1648 -0.0034
 5977W        W22111   0.083   2.621   1.529 -0.0414  0.1998  0.2492
 5978W        W22112   5.076   5.466   9.807  0.1883 -0.2379  0.2658
 5979W        W22113   4.142   4.613   3.203 -0.2266  0.0206 -0.0225
 5980W        W22114  17.326   0.648  14.295  0.1803 -0.0478  0.2755
 5981W        W22115  14.894   1.747  14.366 -0.1411  0.1495  0.1755
 5982W        W22116   1.402  14.194  13.740 -0.0027 -0.0887 -0.1917
 5983W        W22117  14.857  11.102  12.864 -0.0793 -0.0941  0.3211
 5984W        W22118  17.600   2.156  12.663  0.0552  0.6050 -0.2192
 5985W        W22119  19.063   0.236  12.964  0.4071  0.1317  0.1657
 5986W        W22120  14.133   6.818   0.102 -0.0955 -0.0773  0.0825
 5987W        W22121   5.585   1.840   0.014  0.1179 -0.2777 -0.1855
 5988W        W22122   5.202  11.973   4.262 -0.1861  0.1680 -0.0339
 5989W        W22123  11.405  14.914   2.274 -0.2065  0.2847  0.1949
 5990W        W22124  14.431  14.127  12.923  0.0259  0.1192  0.0085
 5991W        W22125  11.624   9.798   4.345  0.2009 -0.1541 -0.1099
 5992W        W22126  15.231  17.982   2.810 -0.0138  0.0051  0.0737
 5993W        W22127   7.091   5.353   1.218 -0.1104 -0.0687  0.1212
 5994W        W22128  10.559   7.367  12.166 -0.0563 -0.0609  0.2384
 5995W        W22129  16.198   2.566   4.261 -0.0711 -0.1480 -0.2808
 5996W        W22130  17.321  13.525   1.665 -0.2447  0.0755  0.1813
 5997W        W22131   7.019   5.825   8.974 -0.0489 -0.3056 -0.1234
 5998W        W22132   7.023  10.131   3.387 -0.1951  0.2912  0.3389
 5999W        W22133   9.562   4.708  13.890  0.1760 -0.0424 -0.0793
 6000W        W22134  13.119  18.029   3.387  0.0372 -0.0583 -0.1024
 6001W        W22135   7.929   4.879  14.917 -0.4524 -0.3176 -0.0698
 6002W        W22136  14.502   6.788  13.726 -0.0117 -0.0123  0.1457
 6003W        W22137  12.102  15.108   4.871 -0.1449 -0.2497 -0.4161
 6004W        W22138   6.648   7.748   3.134 -0.0224 -0.3989  0.1909
 6005W        W22139  13.148   4.225  10.813 -0.0954  0.0613  0.0459
 6006W        W22140  10.704   9.858  14.129  0.1653  0.0655  0.1859
 6007W        W22141   2.235  13.552  11.901 -0.4495 -0.1836 -0.0328
 6008W        W22142   8.810   1.446   2.657  0.0324 -0.2353 -0.0665
 6009W        W22143   9.342  10.911   1.789 -0.1074 -0.0921 -0.3116
 6010W        W22144   1.844  18.096  10.181  0.1043 -0.2629 -0.1846
 6011W        W22145  11.952   5.298  12.631  0.0460  0.0025  0.0064
 6012W        W22146   7.453  19.319   2.076  0.2189 -0.1432 -0.2051
 6013W        W22147   9.933  14.709   2.638  0.1859  0.1751 -0.1793
 6014W        W22148  16.397  10.853   3.293  0.0557 -0.3142  0.0722
 6015W        W22149   6.709   6.189   1.656 -0.1503 -0.0516  0.0949
 6016W        W22150   9.420  11.353  11.477 -0.0565  0.2553 -0.2628
 6017W        W22151  13.893  14.923  13.911  0.1334  0.0679  0.0453
 6018W        W22152   1.894   0.972   0.533  0.1985  0.2815  0.0986
 6019W        W22153   8.324  17.016   3.172  0.1937  0.0207  0.0886
 6020W        W22154  17.007  11.367   3.372 -0.2302  0.2226  0.1426
 6021W        W22155   3.230   2.705   3.967 -0.4241  0.1648  0.1033
 6022W        W22156  16.501  12.076  10.435  0.0092 -0.0564 -0.0617
 6023W        W22157   8.574   9.208  11.209  0.1525  0.1295  0.0261
 6024W        W22158  15.484   8.458  13.028 -0.1916  0.0553  0.0569
 6025W        W22159  17.084  14.978   5.206  0.1777 -0.0599 -0.3145
 6026W        W22160  11.726  17.540   4.180 -0.0530  0.2249  0.1192
 6027W        W22161  14.929   3.822   0.853  0.0669  0.1336  0.0861
 6028W        W22162   8.030   9.164  12.464 -0.1158  0.4449 -0.2193
 6029W        W22163   9.227  11.181   3.439  0.0763  0.0721 -0.0095
 6030W        W22164  16.867   2.983  11.812 -0.1270 -0.1347 -0.3952
 6031W        W22165  17.967   9.144  14.430  0.0864 -0.1430  0.1619
 6032W        W22166   8.593  17.131   2.080  0.0104 -0.1124 -0.0206
 6033W        W22167  16.124   8.313  12.158  0.2200 -0.2219  0.1608
 6034W        W22168   4.382   2.613  12.424 -0.0301  0.0763 -0.2339
 6035W        W22169   0.729  18.013   3.578 -0.0296  0.0728  0.0720
 6036W        W22170  15.557  16.831   3.109  0.2277  0.2555  0.4387
 6037W        W22171   3.293  18.986  12.551  0.1266  0.2814  0.2656
 6038W        W22172  15.161   4.948   3.267  0.5699 -0.0566 -0.0937
 6039W        W22173  16.530  16.680   3.945 -0.1102  0.4363 -0.1013
 6040W        W22174   3.255  16.817   2.072 -0.0884  0.2353  0.1996
 6041W        W22175   9.539  16.291   5.481  0.0263  0.0823  0.1184
 6042W        W22176  13.068   8.450  11.837 -0.2745 -0.0867  0.2460
 6043W        W22177  14.148  18.819   4.038  0.0599  0.1480  0.0588
 6044W        W22178   3.937   1.068  12.846  0.1088  0.0565 -0.2081
 6045W        W22179   2.891  14.303  14.203  0.2675 -0.0665  0.0028
 6046W        W22180   1.268   1.516   4.841  0.0282  0.1694  0.0048
 6047W        W22181  14.730  14.982   4.344 -0.1016 -0.3653  0.1506
 6048W        W22182   0.282   5.216   2.740  0.1152 -0.2160  0.1769
 6049W        W22183  16.854   8.804  13.526  0.1240 -0.1152  0.1636
 6050W        W22184  19.195  12.190   3.857  0.2039 -0.2640  0.1153
 6051W        W22185   4.355  17.628   1.203 -0.3616  0.0990 -0.2285
 6052W        W22186   7.107   0.590   5.209  0.1502 -0.1007 -0.0524
 6053W        W22187  18.618   0.971  14.223 -0.2034  0.3116  0.1976
 6054W        W22188   5.522  17.405   1.694  0.1175  0.1012  0.0605
 6055W        W22189  18.047  14.711  11.996  0.1672 -0.1445 -0.0845
 6056W        W22190  11.138   8.865  11.877  0.2340 -0.1707  0.0448
 6057W        W22191   0.697   8.747  13.621 -0.3895  0.3110  0.1438
 6058W        W22192   3.795   6.744   1.192  0.1421 -0.4264  0.1111
 6059W        W22193  12.302   1.236   2.183  0.0292  0.0602 -0.2984
 6060W        W22194   7.775  16.101   0.169 -0.0898 -0.2185 -0.1290
 6061W        W22195   9.961  15.491   2.156  0.2470  0.5396  0.1502
 6062W        W22196  16.688  12.185   3.201  0.0676  0.2922  0.2353
 6063W        W22197   8.524  13.607   0.290 -0.3005 -0.0667 -0.3468
 6064W        W22198   6.982  12.365   2.981 -0.0636 -0.2529  0.4757
 6065W        W22199  17.831  17.615   1.474  0.0333  0.0226 -0.0461
 6066W        W22200   0.420   3.158   1.052  0.0743  0.1506  0.2200
 6067W        W22201   3.790   0.896  13.241  0.0842  0.3765 -0.3418
 6068W        W22202   1.664  11.698   4.088 -0.1010 -0.1048 -0.0490
 6069W        W22203   1.651   1.754  13.792  0.1446 -0.2038 -0.1448
 6070W        W22204  12.228   4.640  14.558  0.0062 -0.0985  0.0458
 6071W        W22205   4.853  15.207  10.827  0.1996  0.1394  0.1516
 6072W        W22206  15.751  16.679   1.046 -0.0883 -0.0455 -0.1097
 6073W        W22207   5.948   6.858  10.919  0.1977  0.0454 -0.1223
 6074W        W22208   3.686   4.161  10.961  0.0889  0.2304 -0.0747
 6075W        W22209   9.319  18.971  13.072 -0.0421 -0.2246 -0.4021
 6076W        W22210  16.920  16.772  13.740 -0.0173 -0.0371  0.0219
 6077W        W22211   4.025   8.592   2.758  0.2973  0.1904 -0.0650
 6078W        W22212   0.714   7.821   4.189 -0.1731 -0.0710  0.4366
 6079W        W22213   0.540   3.459  13.285  0.4634  0.0903  0.1514
 6080W        W22214  18.337   9.096   4.221 -0.2811 -0.2286 -0.0028
 6081W        W22215   7.744   6.962   2.889  0.1008  0.0657 -0.0108
 6082W        W22216   9.385  10.839   3.844 -0.0294 -0.1705  0.3640
 6083W        W22217   5.179  13.446   1.172 -0.0352 -0.0271 -0.0819
 6084W        W22218   2.500  16.146   3.613  0.0239  0.2700  0.1863
 6085W        W22219  11.091  18.692   5.231  0.3336 -0.0237 -0.0265
 6086W        W22220  14.403   8.369  11.304 -0.0045 -0.0149 -0.0941
 6087W        W22221  11.170  13.231   5.339 -0.2684  0.2909  0.0742
 6088W        W22222  17.813  15.027   0.843 -0.0307  0.0132  0.2393
 6089W        W22223  18.544   1.619  13.799  0.0290  0.2186  0.1048
 6090W        W22224  14.323  14.163   0.746 -0.1426 -0.1286 -0.0895
 6091W        W22225  10.170   4.870   0.404 -0.0320 -0.1418 -0.0740
 6092W        W22226  12.348   3.406  12.987 -0.4300  0.2763  0.0895
 6093W        W22227  13.661  18.009   0.467 -0.0731 -0.0374  0.1016
 6094W        W22228  10.092  17.355  12.244 -0.0188  0.1075  0.1496
 6095W        W22229  17.281  16.241   2.165 -0.2338  0.0039  0.1488
 6096W        W22230   1.232  17.789  12.844  0.0080  0.0221  0.2162
 6097W        W22231   2.998  15.936  13.568 -0.1158  0.1426  0.1013
 6098W        W22232   2.489   7.431   0.650 -0.2077  0.0736 -0.0604
 6099W        W22233  12.484   6.676   0.426 -0.2899 -0.1796 -0.0694
 6100W        W22234  16.526  17.043   0.593 -0.1575 -0.0473  0.0988
 6101W        W22235  19.230   4.637   3.536 -0.2110  0.1013  0.1552
 6102W        W22236  13.803   0.102  11.532  0.0824 -0.1963 -0.0808
 6103W        W22237   5.951   1.718  11.710  0.2814 -0.0558  0.0481
 6104W        W22238   3.569   1.805   4.571 -0.2006  0.2865 -0.0626
 6105W        W22239  12.589   4.942  12.177  0.2469  0.1444  0.2832
 6106W        W22240   5.523   0.802  13.888  0.2025 -0.1576 -0.1024
 6107W        W22241   4.336  11.708  10.892 -0.0751 -0.1335 -0.0681
 6108W        W22242   5.607  15.758   0.123 -0.2579 -0.0508 -0.2646
 6109W        W22243  12.330  13.336   0.012 -0.1412 -0.0502 -0.0208
 6110W        W22244  12.172  16.080   4.483  0.0958  0.1011  0.0531
 6111W        W22245  14.237   5.645   2.264 -0.2064 -0.1999  0.1110
 6112W        W22246   1.844  15.832   1.855 -0.0985 -0.3543  0.4445
 6113W        W22247   6.108   6.538   2.861 -0.0406 -0.3437  0.2370
 6114W        W22248   8.763  15.722  12.414 -0.0031  0.0097 -0.1682
 6115W        W22249   5.685  18.400   1.343 -0.2091  0.1940  0.1499
 6116W        W22250   1.819   6.282   2.028  0.4196  0.0958 -0.1781
 6117W        W22251   8.772   6.848  14.810 -0.3001  0.2047 -0.2261
 6118W        W22252   4.488  11.598   0.957 -0.1256  0.2748 -0.1404
 6119W        W22253  18.562   9.016  11.147  0.0028  0.0489 -0.1096
 6120W        W22254  16.385   6.918   0.906 -0.0821  0.0474  0.0461
 6121W        W22255  17.828   7.396   3.437  0.1191 -0.2664 -0.0084
 6122W        W22256   9.292  14.296  11.365  0.0295  0.1864  0.2090
 6123W        W22257   1.311   7.895   1.022  0.0311 -0.2970 -0.1021
 6124W        W22258  14.628   1.321   4.195  0.1225  0.3624 -0.0512
 6125W        W22259   4.250  11.515  12.740 -0.1768  0.1321 -0.1015
 6126W        W22260   0.148  13.711  10.197  0.1447 -0.1614 -0.0243
 6127W        W22261   5.732   4.650  12.278  0.0446  0.3881 -0.3680
 6128W        W22262   8.299   5.144  14.555 -0.0980 -0.1056 -0.0929
 6129W        W22263   7.777  15.595   2.729 -0.1072 -0.2012 -0.0744
 6130W        W22264  14.817   4.888   4.126  0.1573 -0.1676  0.0288
 6131W        W22265  18.679   1.860   2.450  0.4999  0.2761  0.4316
 6132W        W22266  17.078  10.445   3.767  0.2004 -0.1906 -0.0531
 6133W        W22267   7.876   8.761  13.229  0.1341 -0.2242  0.0968
 6134W        W22268  14.321   0.070  13.172  0.0488 -0.1850  0.0917
 6135W        W22269   8.321   3.761  14.887 -0.0558  0.1586  0.1368
 6136W        W22270   3.659   4.312   1.338 -0.0392  0.1055 -0.0204
 6137W        W22271   0.623  12.315   2.468 -0.2696  0.2925 -0.1718
 6138W        W22272  11.336   1.668   1.102  0.2485  0.0189 -0.1999
 6139W        W22273   6.812  17.154   2.156 -0.2214  0.1279 -0.2302
 6140W        W22274  13.267   4.304  10.087 -0.0431  0.2055  0.2881
 6141W        W22275  18.336  14.485  14.571 -0.2443 -0.0903 -0.1994
 6142W        W22276   7.269   8.624   1.840  0.0022  0.0515 -0.2721
 6143W        W22277   2.525  15.867  11.713  0.2067 -0.0374  0.1084
 6144W        W22278   9.397  13.975  14.339  0.1900 -0.1960  0.3394
 6145W        W22279   6.352  15.638   2.498  0.0112 -0.0323  0.1930
 6146W        W22280  10.276  10.583  14.933 -0.2123  0.2292 -0.0082
 6147W        W22281   0.105   4.264  13.186 -0.0868  0.0873  0.3467
 6148W        W22282  10.891   8.351  13.990  0.1566 -0.0513 -0.0335
 6149W        W22283   6.520  12.331   4.727 -0.1042  0.0079 -0.1244
 6150W        W22284  13.788  12.341   9.983  0.0773 -0.0949  0.2083
 6151W        W22285  13.299   6.260  10.778 -0.3066 -0.0891 -0.0688
 6152W        W22286  14.684  19.261   2.831 -0.1436 -0.0692 -0.0928
 6153W        W22287  12.758  18.194  14.409 -0.2383  0.0737 -0.1377
 6154W        W22288   2.860   0.245   1.046  0.1702 -0.4114 -0.2783
 6155W        W22289  12.373  13.072  12.195 -0.0222  0.4367 -0.2048
 6156W        W22290   0.414   5.313   4.515  0.0472  0.0437 -0.3777
 6157W        W22291  10.837  18.157   3.462 -0.2578  0.1319  0.0976
 6158W        W22292   7.263   8.979  13.759 -0.1876 -0.0140 -0.1871
 6159W        W22293  15.304   6.261   1.712  0.2062  0.1627  0.0314
 6160W        W22294   9.777  14.837  13.924 -0.0352  0.0747  0.0503
 6161W        W22295   7.971  11.956  13.705 -0.2356  0.1593 -0.2379
 6162W        W22296  18.921   9.218   0.406 -0.1554 -0.1629 -0.2675
 6163W        W22297   1.178  15.146  14.020 -0.0103 -0.0943  0.1204
 6164W        W22298   8.214   7.803   1.788 -0.0009 -0.0369 -0.0752
 6165W        W22299  11.749   9.356   3.025 -0.0654 -0.1252  0.1891
 6166W        W22300  11.530   2.022   5.067  0.3264  0.0876  0.1710
 6167W        W22301   6.610   2.696   5.219 -0.2681 -0.1425 -0.0842
 6168W        W22302  14.636  14.363  14.394 -0.2465 -0.1205 -0.0724
 6169W        W22303   0.310  18.026  11.075 -0.0925  0.0503  0.0030
 6170W        W22304   2.410  17.397  10.108 -0.0571  0.1301  0.1535
 6171W        W22305  16.867  10.801   3.059  0.1046  0.0435 -0.0461
 6172W        W22306   1.906  15.953  11.262 -0.2470  0.1170 -0.0964
 6173W        W22307  15.038  12.020  10.726 -0.0090 -0.0574  0.2989
 6174W        W22308   2.994  18.005  13.458 -0.1522  0.4358 -0.0102
 6175W        W22309   7.995  17.434  12.820  0.1628  0.0275  0.2824
 6176W        W22310  12.708   5.505  14.307 -0.4140 -0.0703  0.0240
 6177W        W22311   1.089   4.736  10.083  0.1610  0.1818  0.5617
 6178W        W22312   9.919   5.727   0.391 -0.0718  0.2118 -0.0563
 6179W        W22313  12.760   6.881   5.685 -0.0070 -0.0879 -0.0340
 6180W        W22314  12.585  19.000  14.247 -0.0565 -0.2126  0.1442
 6181W        W22315  13.348  10.465  13.542  0.0607 -0.1831  0.1245
 6182W        W22316   1.790  15.121  11.161  0.0377 -0.1663 -0.3520
 6183W        W22317   0.513  18.863  13.547 -0.0057 -0.0425 -0.0380
 6184W        W22318   5.472   4.441   3.278 -0.1372 -0.1027 -0.1128
 6185W        W22319  15.319  15.119   3.603  0.2940 -0.2107 -0.2345
 6186W        W22320  16.557  15.674   4.889  0.0824 -0.0734  0.0061
 6187W        W22321   5.973  18.808   4.411 -0.2851  0.0588 -0.1645
 6188W        W22322  14.206   6.755   0.661 -0.0771  0.0740  0.0476
 6189W        W22323   4.885   4.236   2.735 -0.1799  0.2941 -0.4414
 6190W        W22324   8.971   0.667   0.849 -0.2970 -0.4251  0.0126
 6191W        W22325  11.431   4.562  13.708 -0.0277  0.4345 -0.0532
 6192W        W22326   9.137  11.369   1.723 -0.0439 -0.0198  0.2494
 6193W        W22327  16.335   5.322   0.773  0.0296  0.0914  0.0973
 6194W        W22328  16.421   8.043   0.131  0.0497  0.2457 -0.0573
 6195W        W22329   5.632  16.860  14.952 -0.1535 -0.2171  0.0909
 6196W        W22330   7.885   4.884  10.099  0.1733 -0.0929  0.0394
 6197W        W22331   2.248   5.707  14.680  0.6583  0.0199 -0.2608
 6198W        W22332  15.946   8.653   0.591 -0.0313 -0.1012 -0.1783
 6199W        W22333  17.843  17.228  13.396 -0.0371  0.0520 -0.0334
 6200W        W22334   0.006  14.483  13.605  0.2783  0.0905  0.0653
 6201W        W22335  17.554  17.554  13.937 -0.0623  0.0067 -0.0421
 6202W        W22336  19.107   5.636  12.065 -0.0836  0.1309 -0.0082
 6203W        W22337  10.267   8.307   1.887 -0.0288 -0.1771  0.2446
 6204W        W22338  10.598   6.430   3.880  0.2284 -0.0072 -0.0153
 6205W        W22339  14.342  17.180   4.151  0.1125  0.2108  0.4215
 6206W        W22340  13.280   3.887  14.303  0.0606 -0.1318 -0.0515
 6207W        W22341   5.328  14.675   3.799 -0.0708  0.2943 -0.1205
 6208W        W22342  12.982  13.074  11.156 -0.1599 -0.0154 -0.2295
 6209W        W22343  16.815  13.786   3.424  0.3450  0.0375  0.1645
 6210W        W22344  14.302  16.820   1.303 -0.1368  0.1261 -0.2343
 6211W        W22345   3.582   3.153   9.686  0.2111 -0.0916  0.1660
 6212W        W22346  13.475  10.258   0.647  0.0238  0.0275 -0.2495
 6213W        W22347  12.548   0.484   4.460 -0.0100 -0.3350 -0.0293
 6214W        W22348  10.792   4.636  12.274 -0.1658 -0.1396 -0.1474
 6215W        W22349   5.961  18.564  11.313 -0.2101  0.0678 -0.0370
 6216W        W22350  18.307   6.272  11.919 -0.1514  0.3350  0.2687
 6217W        W22351  14.127  11.334   3.248  0.1769 -0.3562  0.0446
 6218W        W22352   6.782   7.932   1.764 -0.6379 -0.0598 -0.1103
 6219W        W22353  19.148  19.061  12.526  0.3731  0.0263 -0.0534
 6220W        W22354   8.605  18.026  12.761  0.0377 -0.1115  0.0897
 6221W        W22355  18.593  15.003  14.674  0.1094  0.0711  0.0895
 6222W        W22356  12.296  10.334  13.715  0.0771  0.0986 -0.2923
 6223W        W22357   8.347  14.520   4.507  0.2228 -0.0978 -0.2402
 6224W        W22358  14.439   2.064   3.035  0.0741 -0.0005  0.3144
 6225W        W22359   8.539   0.637   2.294 -0.0899 -0.1402  0.2289
 6226W        W22360  15.512   5.853  13.886  0.1581 -0.2367  0.1636
 6227W        W22361   9.175  12.190   2.391 -0.0622  0.1695 -0.1130
 6228W        W22362   4.898  14.137   3.155 -0.1467  0.1511  0.0169
 6229W        W22363   8.660  12.969   3.765  0.0994  0.0948 -0.1388
 6230W        W22364   0.917   1.041  10.325  0.1684  0.1900  0.3364
 6231W        W22365  17.409  12.505  12.658  0.1400 -0.2692  0.1426
 6232W        W22366   8.934  13.194  10.846 -0.2733 -0.0125  0.1519
 6233W        W22367  17.446  11.721  13.136 -0.1809  0.1896 -0.1765
 6234W        W22368   1.924  19.245  10.915 -0.3122  0.0648 -0.3869
 6235W        W22369  15.293  18.450   0.314  0.2408  0.3216  0.0289
 6236W        W22370  10.641   8.367   4.627 -0.0071 -0.2707 -0.1212
 6237W        W22371   9.319   7.018   1.936  0.0924  0.0531 -0.0670
 6238W        W22372   6.573   2.732  11.817  0.3066 -0.1850 -0.2043
 6239W        W22373  15.360  17.330   3.869 -0.1503 -0.0168 -0.1283
 6240W        W22374  17.182   5.688   4.615  0.1718 -0.1032  0.1312
 6241W        W22375   3.580   5.443   1.692 -0.0044  0.0260  0.0150
 6242W        W22376  10.804  11.404   3.881 -0.3411  0.1070 -0.1816
 6243W        W22377  12.745   8.820  14.166  0.0459  0.2495  0.0982
 6244W        W22378  17.807  18.469  14.090  0.0016  0.2219  0.1838
 6245W        W22379  10.070   6.842  11.833 -0.0772 -0.1792 -0.1073
 6246W        W22380  11.728   1.621   9.957  0.3435 -0.2690  0.1233
 6247W        W22381  13.378   7.377  14.892 -0.0017 -0.0855 -0.0111
 6248W        W22382   0.253   2.653  11.787  0.0521 -0.1436 -0.1620
 6249W        W22383  10.253  15.707   1.750  0.1947 -0.2499 -0.0817
 6250W        W22384   8.237   4.793  11.844 -0.3452  0.1420  0.0182
 6251W        W22385  10.378  11.188  11.633  0.0489  0.2220 -0.0627
 6252W        W22386  10.798   9.068  13.020 -0.0703  0.1152 -0.2844
 6253W        W22387   5.331  13.579  13.268 -0.1369 -0.1100  0.0037
 6254W        W22388  17.323   9.940   1.980 -0.0245 -0.1952 -0.0033
 6255W        W22389  14.782   2.772  14.287  0.0409  0.1619  0.1650
 6256W        W22390   6.821   1.798  12.569 -0.0497  0.2108 -0.0101
 6257W        W22391   1.463  10.634  12.054  0.1572 -0.3607  0.2255
 6258W        W22392   8.024   1.065  11.617  0.0067 -0.0068 -0.1493
 6259W        W22393   2.080   1.845  12.527 -0.0581  0.1087  0.3069
 6260W        W22394  11.853  18.425   0.684  0.3208  0.0614 -0.0151
 6261W        W22395   4.443  10.958   2.093 -0.1395  0.0762  0.0979
 6262W        W22396   6.737   7.545   4.443  0.1278 -0.0544 -0.2786
 6263W        W22397  15.306   8.777   9.878  0.1400 -0.0644 -0.1763
 6264W        W22398   7.932  10.564  11.048  0.0884 -0.3603 -0.1063
 6265W        W22399   7.015   8.510  14.568 -0.1886  0.0898 -0.0650
 6266W        W22400  17.999  10.298  10.966  0.2345 -0.3493 -0.1470
 6267W        W22401   1.180  14.267  13.305  0.1264 -0.0808 -0.1448
 6268W        W22402  12.820   1.630  11.379  0.0417  0.0427 -0.3000
 6269W        W22403  18.450   8.008  13.548  0.0941 -0.1355 -0.0898
 6270W        W22404  17.491   3.246   2.164 -0.0580  0.3456  0.1266
 6271W        W22405   3.806   0.344  10.510  0.1184 -0.0416 -0.0116
 6272W        W22406  11.318   3.983   3.785 -0.3912 -0.3530 -0.1727
 6273W        W22407   0.621   8.981   0.243  0.1837  0.2279  0.0875
 6274W        W22408   7.775  10.162   2.249  0.1131 -0.0300 -0.1012
 6275W        W22409   6.572  14.232   5.743 -0.0843  0.4308  0.2914
 6276W        W22410   1.313  10.197  13.277 -0.3397 -0.1236 -0.0588
 6277W        W22411   2.467  12.768  12.081 -0.1636  0.2378 -0.0527
 6278W        W22412   0.205  14.554  10.939  0.1417 -0.3450 -0.0076
 6279W        W22413   9.981   2.341   0.106 -0.0174  0.0666  0.0579
 6280W        W22414  15.429   3.787  11.685  0.0020  0.1813 -0.0382
 6281W        W22415   6.828  12.193  12.965  0.0188 -0.3638 -0.2861
 6282W        W22416   1.439   8.648  10.412  0.0990 -0.0077 -0.0988
 6283W        W22417  10.806  17.783  12.309  0.0106  0.0297  0.0675
 6284W        W22418  17.439   0.271  14.611 -0.2594  0.2117  0.2694
 6285W        W22419  15.651   9.327  12.062  0.0689 -0.0455 -0.1145
 6286W        W22420  18.578  17.868  12.109  0.2096  0.1433 -0.0341
 6287W        W22421  12.730  10.147  11.621  0.2042 -0.0663  0.0458
 6288W        W22422   7.315   5.067   2.605  0.1086  0.1620 -0.1353
 6289W        W22423   8.422  14.669   2.726 -0.0029  0.0253 -0.0312
 6290W        W22424   6.250   9.674   0.963  0.1220 -0.1571 -0.2053
 6291W        W22425   0.420  15.698   4.924  0.2058 -0.0428  0.1811
 6292W        W22426  17.886  13.364  12.302  0.0519  0.0744  0.2004
 6293W        W22427   5.379  16.069  10.783  0.0737  0.0317  0.3855
 6294W        W22428   8.709  18.482  12.741 -0.0432 -0.3408  0.0525
 6295W        W22429   7.401   6.782   0.608 -0.0049 -0.0491  0.0310
 6296W        W22430  17.102   2.536   3.107 -0.1282 -0.0678 -0.2735
 6297W        W22431  13.841   5.781   2.973  0.0625  0.0359 -0.1697
 6298W        W22432   5.619  17.316   2.679  0.0259 -0.1157 -0.1128
 6299W        W22433  13.768  13.725  14.397  0.2049  0.0034 -0.0310
 6300W        W22434   3.682  14.745  13.202 -0.0858  0.0912  0.0318
 6301W        W22435   3.587  15.930   3.792  0.0053  0.1607  0.0068
 6302W        W22436   6.590   1.036   2.799 -0.0006 -0.4234  0.0199
 6303W        W22437   9.276   3.661  12.883  0.0331 -0.3171 -0.0055
 6304W        W22438  18.302  15.609   4.010  0.0550  0.0285  0.1581
 6305W        W22439  12.256   0.067  11.639 -0.0267 -0.0909 -0.2258
 6306W        W22440  13.741   9.773   5.630  0.1831 -0.1743 -0.1750
 6307W        W22441   4.446   3.152  12.956  0.0013  0.0406  0.2290
 6308W        W22442   5.865   2.858   3.928 -0.1043 -0.1921  0.0362
 6309W        W22443   3.411   3.155   3.103 -0.2460 -0.3384 -0.2650
 6310W        W22444   2.021   9.786   0.070  0.0202 -0.0230  0.3440
 6311W        W22445  10.869   9.139  14.952 -0.2612 -0.0286  0.1955
 6312W        W22446  15.467   5.670   1.849 -0.1935  0.1580 -0.0070
 6313W        W22447   5.411   2.054   1.884  0.0782  0.0678  0.0959
 6314W        W22448  15.273   1.649   3.533  0.1045  0.2955 -0.1915
 6315W        W22449   4.408   3.938   2.526 -0.0246 -0.1659  0.0004
 6316W        W22450   8.437   1.337  13.421  0.2244 -0.0317  0.0775
 6317W        W22451   7.729  18.684  11.084 -0.0916  0.1289 -0.0861
 6318W        W22452  16.812  10.795   3.571  0.0939 -0.0413  0.0660
 6319W        W22453   1.892  16.110  12.346 -0.3353 -0.2673 -0.0939
 6320W        W22454  14.720   2.647   3.656  0.1711  0.1523  0.0805
 6321W        W22455   1.156   9.919   2.654 -0.1558  0.0277  0.1393
 6322W        W22456   6.494  17.609   4.120 -0.2036 -0.0600  0.1568
 6323W        W22457   1.689  10.359  12.961  0.1741  0.0768 -0.1715
 6324W        W22458   2.404  16.187  13.647  0.1216  0.0229 -0.2340
 6325W        W22459   0.020  16.864   1.813 -0.3376  0.0201  0.2230
 6326W        W22460   2.968   2.984   1.771 -0.0359  0.0925  0.0486
 6327W        W22461  16.542   0.925  10.332 -0.0439  0.0179  0.0558
 6328W        W22462  16.088  18.739  14.258  0.3214  0.0886  0.3567
 6329W        W22463   9.944  15.201   1.277 -0.3133  0.0549  0.1890
 6330W        W22464   5.104  13.152   4.228  0.2180 -0.0732 -0.0813
 6331W        W22465  14.614   6.592  11.414 -0.2955  0.0661  0.0457
 6332W        W22466   8.032   7.317  10.547  0.0599  0.0371 -0.0387
 6333W        W22467   6.373   5.802  14.349  0.2812  0.3529 -0.0382
 6334W        W22468   4.973  14.721  12.675  0.2588  0.1802  0.7211
 6335W        W22469   4.062  13.718  12.936 -0.0883  0.1412 -0.1373
 6336W        W22470   6.611  15.917   5.230 -0.0115 -0.1106 -0.0343
 6337W        W22471  18.560   4.390  11.538 -0.1612  0.1450  0.3337
 6338W        W22472   4.879  18.589  12.920  0.1596  0.3991 -0.0643
 6339W        W22473   9.111   5.632   0.570  0.0406  0.0252  0.0042
 6340W        W22474  17.315   9.050   0.535  0.1709  0.1727 -0.0677
 6341W        W22475  15.301   3.641  10.826  0.0597 -0.1554  0.3000
 6342W        W22476   5.987   9.268  13.942  0.0486  0.1664 -0.1134
 6343W        W22477   2.383   7.294  12.637  0.0593 -0.3745 -0.0861
 6344W        W22478   5.961   2.242   3.166 -0.3139  0.1096 -0.0754
 6345W        W22479   0.456  18.404  13.381  0.1498  0.2652 -0.0057
 6346W        W22480  16.789  18.679  11.073  0.0209 -0.0226  0.0491
 6347W        W22481  10.337  15.799   4.024  0.2137 -0.1992  0.0806
 6348W        W22482  16.291   7.017  14.429  0.0472 -0.1183 -0.3060
 6349W        W22483  14.258  17.806   0.373  0.0669  0.0103 -0.1084
 6350W        W22484   3.197   9.766   2.601  0.3869 -0.2265 -0.3917
 6351W        W22485  13.924   2.170  13.545 -0.1900 -0.1451  0.0320
 6352W        W22486  19.347  13.201  14.870 -0.0604 -0.0622  0.1758
 6353W        W22487   3.809  14.828   4.336 -0.1554  0.3180  0.0400
 6354W        W22488   9.474   6.904  11.901  0.0143  0.0916  0.2246
 6355W        W22489  16.786   5.027  10.577  0.2635  0.1998 -0.0703
 6356W        W22490   3.111   6.925   8.987  0.0767 -0.0520 -0.0394
 6357W        W22491  17.496  17.697   5.612  0.1670 -0.1157 -0.0879
 6358W        W22492   3.135   3.215   3.923  0.3919  0.2604  0.2388
 6359W        W22493  18.258   1.702   4.401 -0.0869 -0.0158 -0.1027
 6360W        W22494   7.104  12.599   0.095 -0.0489  0.1862  0.2602
 6361W        W22495  13.648   1.173  11.453  0.3498  0.2749  0.1679
 6362W        W22496  17.566   6.585   5.240 -0.0675 -0.1177  0.1397
 6363W        W22497   2.162  12.810  10.518 -0.2095  0.0044 -0.0743
 6364W        W22498  14.680   8.737  14.525 -0.0429  0.0021 -0.0087
 6365W        W22499   6.370  14.285  14.231 -0.1192  0.2384 -0.1437
 6366W        W22500  18.528  10.926  14.751 -0.0489 -0.0962 -0.0176
 6367W        W22501   5.633   6.806   1.408 -0.4708  0.0233 -0.2209
 6368W        W22502  17.961  11.188   2.042  0.2907  0.2113 -0.5569
 6369W        W22503  15.473  19.078  11.290  0.0693  0.4422 -0.1068
 6370W        W22504  11.396  17.465   0.586 -0.1726  0.1664  0.3525
 6371W        W22505   2.215   9.066   0.274  0.0514 -0.0832  0.2081
 6372W        W22506   8.563  11.277   2.618  0.1618  0.1573 -0.1868
 6373W        W22507   5.216  13.951   1.326 -0.3365 -0.2503  0.0419
 6374W        W22508  13.477   9.228   0.368  0.0218 -0.1925 -0.0981
 6375W        W22509   7.461   4.997  14.802  0.1254 -0.4063 -0.2183
 6376W        W22510   1.387   4.867   1.779 -0.0291 -0.1409  0.2704
 6377W        W22511   3.392   7.118   0.615 -0.0055 -0.1388 -0.0858
 6378W        W22512  11.227   4.033   5.195  0.0676 -0.1028 -0.2482
 6379W        W22513   2.092  11.413  13.938  0.0753  0.1666 -0.0173
 6380W        W22514   0.993   1.485   3.952  0.0071  0.0736 -0.3041
 6381W        W22515  12.652   2.674   4.267 -0.0123 -0.0512 -0.2759
 6382W        W22516   8.260   9.981  12.537 -0.0002 -0.1070  0.1802
 6383W        W22517  18.819  16.071  14.331 -0.3249 -0.2821 -0.2293
 6384W        W22518   3.226   7.975   0.642 -0.0072  0.1639 -0.2334
 6385W        W22519  14.491   6.927  12.771  0.0216 -0.4360  0.0168
 6386W        W22520  11.888  12.615   0.195  0.0101 -0.1295  0.0076
 6387W        W22521  16.356   6.658  12.641 -0.2834 -0.2848  0.0413
 6388W        W22522  11.203   0.308   1.802  0.0121 -0.1654  0.3863
 6389W        W22523   9.763  11.069   4.341 -0.0005 -0.2594 -0.2377
 6390W        W22524  19.161   3.777  13.023 -0.3442 -0.1453 -0.2743
 6391W        W22525   8.899  19.155   5.397  0.1683 -0.1797 -0.0457
 6392W        W22526   4.749   3.930  14.459 -0.2111 -0.2342  0.1781
 6393W        W22527   7.368  12.444  12.948  0.1850 -0.3010  0.0542
 6394W        W22528  10.275  14.000   1.765  0.2172 -0.4463  0.1098
 6395W        W22529  13.357  18.725   0.915 -0.2868  0.0360  0.2257
 6396W        W22530  12.906   7.981  14.620  0.2169  0.1006  0.4367
 6397W        W22531   2.785  14.563   3.250  0.0703 -0.1966  0.1981
 6398W        W22532   8.862  14.832   5.061 -0.0871 -0.2054 -0.1199
 6399W        W22533   3.157  10.755   1.497 -0.0718  0.0118 -0.0487
 6400W        W22534   9.106   8.041  10.862 -0.2958  0.2210 -0.0032
 6401W        W22535  14.854  19.229   5.148 -0.0547 -0.0071 -0.0701
 6402W        W22536  15.796   5.266   1.999 -0.0790  0.1846  0.1445
 6403W        W22537   2.564  13.400  14.324 -0.2523 -0.3500 -0.0800
 6404W        W22538  16.782   3.151  10.762  0.1609 -0.0388 -0.0623
 6405W        W22539  12.189  17.338  12.179 -0.1894  0.0894 -0.0456
 6406W        W22540   6.399  10.547  11.054  0.2374  0.0451  0.1417
 6407W        W22541  10.433  10.685  10.545  0.2707  0.3884 -0.2273
 6408W        W22542   1.988  14.823  10.759 -0.1661  0.0102  0.0292
 6409W        W22543   5.737  12.342  11.606 -0.1356  0.0033  0.0971
 6410W        W22544   0.594   2.795   0.192  0.0320  0.1397 -0.0780
 6411W        W22545   6.494   3.426  12.004 -0.2813  0.0883 -0.6406
 6412W        W22546  18.140   1.026   1.748  0.4508  0.0367 -0.0050
 6413W        W22547   9.983  18.811  14.753  0.1535  0.3788  0.2291
 6414W        W22548  13.070  12.815  11.618 -0.1064 -0.1096  0.1851
 6415W        W22549  13.877   2.284  12.465  0.2567 -0.3510  0.1134
 6416W        W22550  15.700  19.248  13.465 -0.2492  0.0523  0.2880
 6417W        W22551  13.698  11.781  14.656  0.0854 -0.0190  0.0948
 6418W        W22552  15.698  18.097  12.766 -0.2100 -0.2657 -0.0067
 6419W        W22553   9.318   8.694   9.969 -0.2727 -0.2096  0.2278
 6420W        W22554   0.031   3.482  13.351  0.2100  0.4897 -0.1388
 6421W        W22555  11.841   8.297  10.823  0.0892  0.1227  0.2652
 6422W        W22556  18.659   1.396  11.612  0.0877 -0.1987  0.0217
 6423W        W22557  14.373   1.716   4.037 -0.0244 -0.0451  0.0130
 6424W        W22558   0.295  17.006  13.586 -0.2686  0.3791  0.3085
 6425W        W22559   5.386   0.983  14.333 -0.3284  0.0725 -0.2389
 6426W        W22560   2.935  19.176  11.172 -0.2368  0.1839  0.0848
 6427W        W22561   0.311   4.198  11.081 -0.0715  0.0391  0.1149
 6428W        W22562   3.839   6.234  10.882  0.0680 -0.1406 -0.1131
 6429W        W22563  10.531  14.200   3.601 -0.1627 -0.1050 -0.0095
 6430W        W22564  14.747   9.611   1.893  0.1979  0.1864 -0.2496
 6431W        W22565   6.695  16.161   1.020  0.0639  0.0562  0.0289
 6432W        W22566   4.199  10.402   3.458  0.1130 -0.5522  0.0491
 6433W        W22567  15.391  15.523  13.635 -0.1708  0.2509  0.0970
 6434W        W22568  18.031   2.165   2.665  0.3311  0.3880 -0.1197
 6435W        W22569   2.494   7.823  10.466  0.3458 -0.1883 -0.1747
 6436W        W22570  17.326  16.045   4.156 -0.4147  0.3003  0.2285
 6437W        W22571  10.879  16.230  10.130 -0.1791 -0.0587 -0.2409
 6438W        W22572  12.685  11.417  12.337 -0.2590  0.0440  0.1569
 6439W        W22573  13.709   0.986   1.455 -0.0589  0.1042  0.1628
 6440W        W22574   1.798   4.008  14.256 -0.3669 -0.1659  0.1105
 6441W        W22575   2.475  18.042   1.539  0.0875 -0.1232  0.1297
 6442W        W22576  17.440  16.974   4.139  0.2806 -0.0315 -0.1845
 6443W        W22577  15.091  17.645  10.759  0.0663 -0.1291  0.0109
 6444W        W22578   0.298   2.415   2.192 -0.4346  0.4196  0.4127
 6445W        W22579  16.984   7.192   3.637  0.0666 -0.1572 -0.1238
 6446W        W22580   7.464   0.933  11.431 -0.0154  0.0133 -0.1301
 6447W        W22581   1.424  16.823   4.898  0.1370  0.2139  0.1481
 6448W        W22582   2.466  10.782  14.507 -0.3248  0.5333  0.1278
 6449W        W22583  12.699   8.729   3.332  0.3266  0.0126  0.0120
 6450W        W22584  18.699   5.461   1.277  0.0987 -0.2729  0.1730
 6451W        W22585  19.052   0.610   0.553  0.1396 -0.4213  0.4221
 6452W        W22586  10.326   4.504   1.125  0.1827 -0.0053  0.2578
 6453W        W22587  11.102   0.859  11.345  0.4709  0.0303 -0.3443
 6454W        W22588   9.647  15.157   2.601 -0.1985 -0.0865  0.0794
 6455W        W22589   8.741   0.001  11.534  0.1579 -0.3289  0.1291
 6456W        W22590   9.135   2.996   1.189  0.0373 -0.0600 -0.1558
 6457W        W22591  15.244   5.469  11.036 -0.1805 -0.2061  0.0410
 6458W        W22592  14.791   9.555  12.520 -0.1401  0.1827  0.2886
 6459W        W22593  10.930  18.951   3.421 -0.0556  0.0513 -0.2709
 6460W        W22594  14.987  13.353  14.171  0.0439  0.2974  0.0705
 6461W        W22595  10.268   3.368  12.167  0.2974  0.0201  0.0987
 6462W        W22596  10.311   6.680  10.783  0.0521  0.2319 -0.1046
 6463W        W22597   7.171  11.124   5.645 -0.2111 -0.0586  0.0681
 6464W        W22598  10.431  11.692   1.883 -0.3528 -0.1978 -0.1643
 6465W        W22599   8.139   3.997  14.154 -0.0026  0.3540 -0.1963
 6466W        W22600   4.778   2.803   9.975  0.1436  0.1490  0.0204
 6467W        W22601  18.126  11.569  11.416 -0.1036  0.0959  0.0932
 6468W        W22602   4.395  13.959   0.470 -0.3784  0.0905  0.2298
 6469W        W22603  15.500   2.763   1.134 -0.1118  0.0812  0.0354
 6470W        W22604  17.021   7.690   1.587 -0.0684  0.1906  0.0385
 6471W        W22605   0.114   8.413   2.549 -0.1697  0.3483  0.0130
 6472W        W22606   2.140  13.907  10.327 -0.0206  0.3039  0.3421
 6473W        W22607   0.917  10.051  13.058  0.2315  0.2253  0.1981
 6474W        W22608  15.008   8.248  11.045  0.1285  0.1767 -0.0132
 6475W        W22609  11.105  18.017   5.262 -0.2451 -0.1296 -0.1932
 6476W        W22610   1.402  17.846  13.965  0.0486 -0.0534  0.1168
 6477W        W22611   4.490  15.264   4.266  0.0340 -0.1103  0.0627
 6478W        W22612  14.934  15.033   5.014  0.1322  0.1012  0.0306
 6479W        W22613   0.399  14.151  11.628  0.2912  0.2319 -0.3164
 6480W        W22614   8.495  12.132  11.567  0.0009  0.1512 -0.2969
 6481W        W22615   3.362  19.153   2.636 -0.0075 -0.0962 -0.1480
 6482W        W22616  15.083   7.923   0.108  0.2131 -0.1546 -0.1144
 6483W        W22617  17.474  12.726  10.957 -0.0348  0.2175 -0.2996
 6484W        W22618  12.189   6.462  11.464  0.0643 -0.1741  0.1941
 6485W        W22619   5.678   6.311  10.209  0.1754  0.1418 -0.2928
 6486W        W22620   8.855  11.441   4.429 -0.2030  0.1044  0.1675
 6487W        W22621   4.307  18.300  14.337  0.1582  0.1993  0.0356
 6488W        W22622   1.322  13.001  11.118 -0.1412  0.0996  0.3338
 6489W        W22623  16.600  10.918  12.248  0.2534  0.1990  0.2648
 6490W        W22624  11.656   9.563  12.293  0.3276  0.1070  0.0103
 6491W        W22625   5.291  12.866   0.268 -0.3009  0.0680  0.2563
 6492W        W22626  14.544  14.474   2.777 -0.3964  0.1394  0.1670
 6493W        W22627  14.532   8.861   2.241  0.0377  0.1458  0.0870
 6494W        W22628   7.397  12.141   2.563 -0.3103 -0.0006  0.2100
 6495W        W22629  18.527  15.869   4.903 -0.1672  0.3622 -0.1398
 6496W        W22630   6.966   6.224   9.956  0.2480  0.0176  0.0665
 6497W        W22631  17.569  12.680  14.818 -0.1576  0.0090  0.2846
 6498W        W22632  15.048  11.525   2.005 -0.2528  0.5477 -0.0213
 6499W        W22633   6.432   7.206   2.153  0.1600  0.0071 -0.2379
 6500W        W22634   2.194   8.567   4.671  0.0955  0.1292 -0.1668
 6501W        W22635   1.609   0.129  11.837  0.1336  0.1354  0.2399
 6502W        W22636  15.588  11.984  12.130 -0.2890 -0.0387  0.0635
 6503W        W22637   6.565   4.560  12.860  0.1604 -0.0341  0.0757
 6504W        W22638   7.420  14.004   1.753  0.3255  0.0717  0.1815
 6505W        W22639  15.860   6.666  13.375  0.0391 -0.2551  0.0855
 6506W        W22640  15.152   8.520   1.069 -0.0597 -0.1998  0.0103
 6507W        W22641   6.955   5.091   0.825 -0.0190  0.1156  0.1547
 6508W        W22642   5.447  17.615  11.675  0.0357  0.1238  0.0162
 6509W        W22643  12.619   4.738  10.095 -0.0923  0.2095 -0.1457
 6510W        W22644   9.399   0.454  12.861  0.5226  0.1138  0.1729
 6511W        W22645   2.442  13.121  11.738  0.1484  0.0484  0.2571
 6512W        W22646   2.352   2.433  11.938  0.2317 -0.1067 -0.0076
 6513W        W22647   0.547   8.330   2.861 -0.0817 -0.0417  0.1080
 6514W        W22648  18.299  12.005  13.309  0.1210  0.0701  0.2376
 6515W        W22649  10.069   8.975  11.329 -0.0114 -0.1093  0.0261
 6516W        W22650  13.036  16.465   2.705 -0.1780 -0.1118  0.1898
 6517W        W22651   6.435  12.572  14.836  0.0781  0.2212 -0.0204
 6518W        W22652  10.767  14.438   3.993  0.2206 -0.1042  0.0566
 6519W        W22653  13.337   4.375   5.256 -0.0408  0.2183 -0.0204
 6520W        W22654  16.959  17.725   4.896  0.1414  0.0299  0.1537
 6521W        W22655   1.825  11.609  10.448  0.1275  0.2609 -0.2133
 6522W        W22656   1.819  16.744   3.320  0.0152  0.5289  0.3216
 6523W        W22657  11.695  13.238  11.057 -0.1444 -0.3574  0.0790
 6524W        W22658  12.779   9.305  10.875  0.1963 -0.0310 -0.0625
 6525W        W22659   4.962   6.286   0.424 -0.4365 -0.1115 -0.3776
 6526W        W22660   7.193  18.404   3.852 -0.1938  0.1878  0.0688
 6527W        W22661  11.312   5.294  13.914  0.0446  0.1933 -0.1056
 6528W        W22662   2.609  14.505  14.627  0.1638 -0.1319 -0.0581
 6529W        W22663  13.497   7.372   1.575  0.2142 -0.1121  0.2851
 6530W        W22664   1.786   5.728   2.137  0.1868  0.2388  0.1586
 6531W        W22665  11.571   0.471   0.325 -0.3577 -0.0124 -0.1986
 6532W        W22666  12.826  11.858   5.324  0.3536 -0.0293  0.0076
 6533W        W22667   7.665  11.184   0.023  0.2520 -0.0662  0.0855
 6534W        W22668   1.360   5.912  12.134  0.0118  0.0300  0.1340
 6535W        W22669  10.265  14.936  14.413 -0.2930  0.1530 -0.1928
 6536W        W22670  16.976   6.192  10.466  0.1576 -0.2735 -0.3011
 6537W        W22671  12.269   0.683  14.720 -0.0138  0.3695  0.0216
 6538W        W22672   1.910   4.766   4.103 -0.0208  0.0325  0.1500
 6539W        W22673  18.723   2.254   9.494  0.0747  0.2728 -0.1572
 6540W        W22674  12.962   4.852  12.534 -0.0306  0.3859  0.0858
 6541W        W22675  12.490   0.797   1.472 -0.1236 -0.0445  0.3500
 6542W        W22676   0.361  11.528  11.614  0.1300 -0.1335 -0.1705
 6543W        W22677   7.805   8.053   5.068 -0.1365 -0.2205  0.0190
 6544W        W22678   5.294  13.790   2.935 -0.0162  0.1109 -0.0289
 6545W        W22679   5.451   9.479   2.768 -0.1167  0.1920  0.0529
 6546W        W22680  11.973  12.862   1.211 -0.1146 -0.0945  0.0974
 6547W        W22681  18.132   4.135  12.336  0.0720  0.0440 -0.1940
 6548W        W22682  12.866   4.069   0.178  0.1825 -0.3284 -0.3588
 6549W        W22683   8.466   0.551  12.504  0.0305 -0.0914  0.0407
 6550W        W22684  17.855  11.665  12.567  0.1206 -0.1533  0.0092
 6551W        W22685  12.294   4.038   1.394  0.0172  0.0155 -0.1195
 6552W        W22686   4.102  17.425   2.140 -0.0532 -0.3376  0.1165
 6553W        W22687  16.418  18.430   1.280 -0.3069 -0.1079 -0.0781
 6554W        W22688   4.361  14.262   2.293 -0.1359  0.1008  0.0778
 6555W        W22689   2.884   8.334   4.181  0.0036 -0.0179  0.1058
 6556W        W22690  18.676   5.928   1.125  0.2580 -0.2433  0.0639
 6557W        W22691   2.666   0.243  10.561  0.0095 -0.1292  0.1414
 6558W        W22692  18.602  17.199   0.121 -0.0365 -0.1511 -0.5603
 6559W        W22693   5.933  17.764   4.868  0.1484  0.1143 -0.1420
 6560W        W22694  11.624  19.094  14.249 -0.0529  0.3553  0.1844
 6561W        W22695  13.631  11.224   4.933  0.0348  0.1969  0.1284
 6562W        W22696  11.018   8.287  10.441 -0.1575  0.3555  0.3691
 6563W        W22697   5.246  15.160  12.845 -0.0936 -0.2580  0.2562
 6564W        W22698   7.754  14.435   5.654  0.2854 -0.0253 -0.2133
 6565W        W22699  16.683  10.006  14.695  0.0403  0.2679 -0.2706
 6566W        W22700   6.497   3.248  10.382  0.0990  0.0524 -0.0783
 6567W        W22701   1.225  17.275   3.775  0.0265  0.0977 -0.1116
 6568W        W22702   6.738   5.066  13.601  0.0767 -0.2424  0.0476
 6569W        W22703   8.966  16.139   5.271  0.1841  0.0945 -0.0144
 6570W        W22704  10.822   4.056   4.752 -0.0575  0.1398 -0.1471
 6571W        W22705  13.562  18.321  14.358 -0.3401  0.1895 -0.4897
 6572W        W22706  17.371  17.310   0.661  0.1078  0.0753 -0.2873
 6573W        W22707   2.133  18.306  13.156  0.1658 -0.1352  0.2858
 6574W        W22708   1.157  18.429   0.882  0.4036  0.1632  0.1556
 6575W        W22709   2.330   5.212  12.832 -0.0202  0.2374 -0.1662
 6576W        W22710   4.292  17.477   0.098  0.0680 -0.4957  0.0101
 6577W        W22711   5.052   6.966  13.004  0.0089 -0.3075 -0.0068
 6578W        W22712   0.458  10.895   2.051 -0.1676 -0.1451 -0.0308
 6579W        W22713  15.269  12.393  14.314 -0.2272  0.0825 -0.0996
 6580W        W22714  14.024  17.631  14.851 -0.2307 -0.3289  0.4315
 6581W        W22715  18.599  19.329  13.092 -0.0203  0.1237  0.2334
 6582W        W22716   6.478  14.089   5.077  0.0322 -0.0553  0.1573
 6583W        W22717  11.265  18.666  13.805 -0.0258  0.0154 -0.1928
 6584W        W22718   5.841   8.239  12.756 -0.3827  0.0639  0.0480
 6585W        W22719   6.610  11.510   0.620 -0.0554  0.2649 -0.1255
 6586W        W22720  15.721  14.973   0.358 -0.1131 -0.0976 -0.2509
 6587W        W22721  10.836  17.699  12.841 -0.1260 -0.3643  0.2188
 6588W        W22722   6.966   4.805   4.472  0.0379  0.0287  0.0942
 6589W        W22723  16.851  14.404   3.355  0.1685  0.0243 -0.0895
 6590W        W22724   9.980   4.031  14.574 -0.0077  0.0280  0.4130
 6591W        W22725  17.437   5.250  13.714  0.0652 -0.0226 -0.1215
 6592W        W22726  16.336  13.873   3.663 -0.1047  0.1682 -0.1099
 6593W        W22727   6.841  12.000  12.081  0.1557  0.1536  0.0869
 6594W        W22728  15.703  17.734  11.360  0.1512 -0.0141 -0.0404
 6595W        W22729  14.852   7.939  14.203  0.0378  0.2678  0.0039
 6596W        W22730   6.107   0.794   1.472 -0.2671  0.0591 -0.1680
 6597W        W22731   3.646   1.993  11.735 -0.2668 -0.0545  0.0814
 6598W        W22732   4.734  11.969  13.027 -0.2046 -0.1665 -0.1236
 6599W        W22733  16.045   7.161   2.420 -0.0672  0.1373  0.2054
 6600W        W22734   8.193  11.874  12.191 -0.4557  0.2467  0.1083
 6601W        W22735  15.521   4.538  13.831 -0.0995  0.0464 -0.3572
 6602W        W22736  10.736  14.991   3.130 -0.0169 -0.0168 -0.1625
 6603W        W22737  19.131  14.161   4.570  0.0888  0.2802  0.0007
 6604W        W22738   9.031   2.010   0.247  0.4106 -0.0370  0.0222
 6605W        W22739   0.050  14.970   2.498 -0.0392 -0.0171  0.0856
 6606W        W22740  12.335   8.792   1.506  0.0002  0.3796  0.4624
 6607W        W22741   4.286  17.332   1.627  0.0339  0.1066  0.0633
 6608W        W22742  16.997   0.102   1.671  0.0776  0.0295  0.2398
 6609W        W22743  18.247  11.879  14.303 -0.1599 -0.3212  0.3686
 6610W        W22744  11.017   5.703  12.616  0.0548 -0.0311  0.3012
 6611W        W22745  18.204   7.122  10.106 -0.2244 -0.1410 -0.1722
 6612W        W22746   3.092  16.334   3.341 -0.1860  0.0907 -0.0785
 6613W        W22747   5.101   9.201  13.908 -0.0912  0.1166 -0.2441
 6614W        W22748   0.417  12.984   4.634  0.0200  0.2802 -0.1696
 6615W        W22749   5.075   8.308  12.250  0.1103 -0.1379 -0.3480
 6616W        W22750   1.794  12.191   4.105 -0.1500  0.1995 -0.1061
 6617W        W22751  13.091   6.672   4.843 -0.4608 -0.1743 -0.2024
 6618W        W22752   4.785   8.131   9.963  0.0534  0.0137 -0.1081
 6619W        W22753  11.086   4.851  10.580  0.3637  0.0486 -0.0181
 6620W        W22754   7.380  17.909  11.440 -0.0230 -0.2566 -0.2044
 6621W        W22755   6.258   7.915   2.871 -0.3855  0.0017  0.0113
 6622W        W22756  11.837  18.629  11.223 -0.1016  0.0111  0.0225
 6623W        W22757  15.671  18.147   3.191  0.1646  0.0397  0.0278
 6624W        W22758   1.891  17.933  13.440  0.3372 -0.0696 -0.2307
 6625W        W22759  13.251   4.056   2.377  0.1481 -0.2264  0.0278
 6626W        W22760   3.443   4.234  12.643  0.2126 -0.0759  0.1007
 6627W        W22761  18.670  14.225  10.621  0.1230  0.1198 -0.0930
 6628W        W22762  16.811  16.306   0.924  0.2041  0.2788  0.1533
 6629W        W22763  13.626  13.371   1.626 -0.0028  0.3589 -0.0764
 6630W        W22764   8.573   4.007  13.953 -0.0120  0.0270  0.3149
 6631W        W22765  12.398   0.705   4.942  0.0159  0.0723 -0.3226
 6632W        W22766  16.111  17.851   1.003 -0.2895 -0.0156 -0.0945
 6633W        W22767   2.863  16.668   5.385 -0.2626  0.3930 -0.1303
 6634W        W22768   9.076   4.740   2.097  0.2979  0.1358 -0.0176
 6635W        W22769  13.326  11.147   0.132  0.3221 -0.0782  0.0108
 6636W        W22770   1.224   2.170   4.449  0.0643 -0.1223  0.2365
 6637W        W22771   9.665   3.554  10.969 -0.2264 -0.2198 -0.2458
 6638W        W22772   9.247  12.736  13.040 -0.1309 -0.0390 -0.1515
 6639W        W22773   5.135  13.813  11.289  0.2721  0.1358  0.2509
 6640W        W22774  15.373   5.505   4.337  0.1028  0.1200 -0.2159
 6641W        W22775   2.133  12.056   9.207  0.0927 -0.0302  0.4509
 6642W        W22776  16.049  11.532  10.157 -0.1498 -0.1202  0.1619
 6643W        W22777   0.381  13.847   5.273  0.0888 -0.1650  0.2966
 6644W        W22778  18.960   3.604   5.337 -0.5154 -0.0021 -0.0276
 6645W        W22779   6.310   1.256   1.233 -0.1765  0.0503 -0.1632
 6646W        W22780   4.180  10.554   0.267 -0.1903  0.1668 -0.1694
 6647W        W22781  16.700  16.194   0.050  0.1544  0.1893 -0.0502
 6648W        W22782  10.216   7.276  14.149 -0.1656  0.1767 -0.1308
 6649W        W22783   0.831   3.325   9.691 -0.2445 -0.1915  0.1387
 6650W        W22784   1.609   3.712   0.892  0.1446  0.1364  0.0119
 6651W        W22785   9.794  12.507  13.922 -0.0479 -0.1481  0.2327
 6652W        W22786  15.008  11.174   0.754  0.3370  0.3183  0.1101
 6653W        W22787  14.833  17.283   4.012  0.0553  0.2058  0.0879
 6654W        W22788   3.314   8.399  13.069 -0.1924  0.0119 -0.1669
 6655W        W22789   0.866   3.591   2.433 -0.0507 -0.0566  0.1895
 6656W        W22790   1.082  13.952   1.092  0.3683  0.1213 -0.1265
 6657W        W22791   4.959   1.084   2.848 -0.2151  0.1757  0.0000
 6658W        W22792  14.233  13.705   0.538 -0.1134  0.1453  0.0062
 6659W        W22793   0.193   4.504  13.619 -0.1605 -0.0742 -0.2532
 6660W        W22794   6.897  19.242   1.752 -0.1322 -0.2636 -0.3101
 6661W        W22795  19.236   5.630   2.069 -0.1510  0.1216 -0.0507
 6662W        W22796  14.048   1.341  12.130 -0.0324 -0.1495 -0.0348
 6663W        W22797  15.292  14.295  14.184  0.1266 -0.1974  0.0201
 6664W        W22798  16.186   2.793   0.989  0.0558  0.0037 -0.1650
 6665W        W22799   6.684   7.257   0.345  0.2039  0.2746  0.4295
 6666W        W22800   3.295  15.057   1.235  0.0138  0.4359 -0.2647
 6667W        W22801   0.219   4.811  12.387 -0.2822 -0.0382 -0.1875
 6668W        W22802  13.457  18.680   1.787  0.2077 -0.0559 -0.2444
 6669W        W22803  18.580  16.747   1.101 -0.3747  0.0003  0.0289
 6670W        W22804   9.815  13.264   2.109  0.1466  0.0543 -0.0158
 6671W        W22805   0.901  10.675   2.257  0.0544  0.0821  0.0180
 6672W        W22806  11.940   6.670   2.006  0.2613 -0.1262  0.0756
 6673W        W22807  11.730   1.514   4.330  0.4321  0.0684 -0.0209
 6674W        W22808   1.859  17.652  11.135  0.1267  0.0149 -0.2258
 6675W        W22809  15.313  11.941  11.695 -0.1045 -0.0207  0.0907
 6676W        W22810   6.476  17.169   4.921  0.0650 -0.2979  0.3984
 6677W        W22811  10.602   4.849  11.055  0.0064 -0.0270  0.0767
 6678W        W22812   3.759  19.092   2.365  0.1503 -0.0520 -0.0310
 6679W        W22813   0.010  16.906  12.393 -0.0305 -0.1740 -0.0267
 6680W        W22814   4.403   6.873  10.434 -0.0155  0.0751 -0.2127
 6681W        W22815   6.727   2.526  13.790 -0.1139  0.4726  0.0906
 6682W        W22816   4.309   3.605   2.836  0.2236 -0.2003 -0.0123
 6683W        W22817  11.999   2.146  10.263  0.1854 -0.3197 -0.1099
 6684W        W22818  16.192   3.645   5.095 -0.2532  0.1352 -0.1696
 6685W        W22819   8.412  10.984  12.158  0.2615  0.0414  0.1257
 6686W        W22820   9.706  14.545   4.570 -0.1580 -0.0606 -0.1398
 6687W        W22821   7.171  10.488   9.950 -0.1951 -0.0274 -0.0946
 6688W        W22822   8.392   4.445  14.129 -0.0142 -0.1285 -0.0404
 6689W        W22823  16.846   6.378  14.018 -0.1534 -0.2281  0.2012
 6690W        W22824   8.517  15.694   0.785 -0.0635  0.0250  0.1036
 6691W        W22825  12.528   3.988  13.977  0.1851 -0.0111 -0.0777
 6692W        W22826  14.025   3.965   3.701  0.2182 -0.1786 -0.2211
 6693W        W22827  14.881   4.044   3.394  0.1074  0.3977 -0.1645
 6694W        W22828  13.529  12.533  12.271 -0.0427 -0.3789  0.2660
 6695W        W22829  16.917   2.975   2.842  0.1718  0.2680  0.0004
 6696W        W22830   8.268   8.831   1.912 -0.1858  0.3667 -0.0677
 6697W        W22831  12.568   4.249  10.811 -0.2834  0.2568  0.0976
 6698W        W22832  12.542  15.896   1.701 -0.0055 -0.1916 -0.2661
 6699W        W22833  13.842   3.706  11.324  0.1744  0.0865 -0.0067
 6700W        W22834  14.176  16.640  14.364  0.2246 -0.0645 -0.3765
 6701W        W22835   6.615   4.925  11.051 -0.1279  0.2873  0.1090
 6702W        W22836   5.430   6.714  11.808 -0.3458 -0.3253 -0.0078
 6703W        W22837  16.046   5.189  12.700  0.2947  0.1320 -0.1967
 6704W        W22838  10.153   4.198   1.890  0.0019  0.0564  0.2138
 6705W        W22839  12.388   8.079  10.189  0.1111  0.3181  0.0257
 6706W        W22840  12.210   3.240   2.100 -0.1588  0.3202 -0.0637
 6707W        W22841  12.509  10.115  12.650 -0.0247 -0.0331 -0.0499
 6708W        W22842   1.198   0.274   5.423  0.1740 -0.0106 -0.1695
 6709W        W22843   5.945   5.463  14.586 -0.2348 -0.1951 -0.1061
 6710W        W22844   5.300   8.545   1.567  0.2756  0.2090  0.0584
 6711W        W22845  14.642  14.964   0.286  0.3235 -0.0539 -0.0548
 6712W        W22846  13.968   8.938   2.323 -0.1827  0.0041  0.2050
 6713W        W22847  13.974   7.249   1.095  0.1290  0.2224  0.2581
 6714W        W22848   5.080  15.096   0.411  0.2492 -0.0212 -0.0348
 6715W        W22849  14.500  15.223   2.492  0.0292 -0.0482 -0.1834
 6716W        W22850   4.077  12.792  11.399  0.1242  0.3389  0.1934
 6717W        W22851   0.321  14.258  10.419  0.1526  0.1284 -0.1248
 6718W        W22852   8.685   6.361   3.574  0.1912  0.0780  0.2027
 6719W        W22853   1.851  17.175  12.314  0.1996 -0.1359  0.4693
 6720W        W22854   5.422  13.794  11.668  0.0780 -0.1297 -0.1760
 6721W        W22855  13.985   2.570   2.306 -0.3475 -0.0044  0.1422
 6722W        W22856  12.185  10.791   1.632  0.1405  0.1852 -0.2543
 6723W        W22857   0.783  15.257   0.377 -0.2476 -0.0444 -0.1587
 6724W        W22858  10.552  18.386  10.680  0.1840 -0.0265  0.0078
 6725W        W22859  13.366   3.313   3.341  0.2108 -0.0573  0.1929
 6726W        W22860  10.851   1.860  12.996 -0.2089 -0.0845  0.0544
 6727W        W22861  10.686   1.876   0.260  0.1861  0.0804 -0.0702
 6728W        W22862   0.792   6.582   2.469  0.1884  0.0327 -0.0450
 6729W        W22863  17.250  12.230   3.053 -0.0351  0.2752 -0.0205
 6730W        W22864  10.480   4.758   4.387 -0.1173  0.1882 -0.1471
 6731W        W22865   2.468  17.330  10.959  0.3322 -0.2026  0.2804
 6732W        W22866   3.376  17.888   0.827  0.1377 -0.1129  0.2023
 6733W        W22867   5.055   0.297   5.427  0.1571 -0.1358 -0.1911
 6734W        W22868   9.929   5.894   2.166 -0.1745  0.0730 -0.1755
 6735W        W22869   4.789  16.252   2.175  0.3948 -0.1071 -0.0109
 6736W        W22870  19.100  12.161   1.911  0.0575  0.0454  0.1093
 6737W        W22871   2.321  11.044  12.730  0.3062 -0.1052 -0.3247
 6738W        W22872   6.394   1.571  11.495  0.1597  0.2424 -0.0805
 6739W        W22873   7.799  14.999  14.331 -0.0555  0.0832 -0.2285
 6740W        W22874   5.149  17.193   2.565 -0.0563  0.0384 -0.0990
 6741W        W22875   6.593  14.557   5.316 -0.0078 -0.1124  0.0923
 6742W        W22876   5.334  11.028   4.213  0.2961  0.0611  0.4213
 6743W        W22877   4.997   2.246  11.517  0.0407 -0.3306 -0.0156
 6744W        W22878  19.103  16.929   1.440 -0.2219 -0.0397  0.1166
 6745W        W22879  13.547  11.167  12.906  0.0157  0.2670  0.1434
 6746W        W22880   9.964  18.380   1.903 -0.2213  0.2806 -0.0774
 6747W        W22881   0.403  17.280   2.497  0.2119 -0.1405  0.2475
 6748W        W22882   1.071  14.522  12.041  0.0386  0.0150 -0.0956
 6749W        W22883  13.279   8.879  12.270 -0.1452 -0.1729 -0.1882
 6750W        W22884  16.688   9.458  11.045  0.2597 -0.0282 -0.0403
 6751W        W22885  12.370  10.152   2.256  0.0649  0.0104  0.2365
 6752W        W22886   3.150  13.069   0.879 -0.0116  0.0197  0.1395
 6753W        W22887   9.462  11.170   1.338  0.1868 -0.3505 -0.1951
 6754W        W22888   7.365   7.281  12.633  0.4537 -0.1372  0.1817
 6755W        W22889  10.475  12.258   0.373  0.0244  0.1043  0.1198
 6756W        W22890  13.108  14.925  10.653 -0.1038  0.0045 -0.1545
 6757W        W22891  13.340   5.610   1.862 -0.0535 -0.0546  0.0658
 6758W        W22892   3.853   7.582   0.070  0.0547  0.1071 -0.2197
 6759W        W22893   4.278   0.743   3.261 -0.1386  0.3510  0.1236
 6760W        W22894  14.568   3.709   3.049  0.3321 -0.1845  0.3483
 6761W        W22895  13.669  18.676  10.434  0.1558 -0.0493 -0.1293
 6762W        W22896   9.866  17.379   2.794  0.0111 -0.1097  0.0279
 6763W        W22897  15.972   2.737   4.666  0.1799 -0.1681  0.2317
 6764W        W22898   6.565  17.708  14.031 -0.1137  0.0579  0.4507
 6765W        W22899   9.699   1.540  14.530 -0.2864  0.1461 -0.2379
 6766W        W22900   2.529  10.123  12.775  0.2465 -0.0855  0.1587
 6767W        W22901   7.198   7.360  14.466 -0.0567 -0.2347  0.1547
 6768W        W22902   1.770  16.634   4.079 -0.1073  0.6058 -0.0282
 6769W        W22903  11.444   8.557  13.913 -0.0764 -0.3255  0.0780
 6770W        W22904  11.565  12.431   2.536 -0.0009 -0.2780  0.0510
 6771W        W22905  12.158  13.645  11.059  0.1100  0.0817 -0.4228
 6772W        W22906   6.243  13.655  14.849 -0.0794 -0.0412  0.1796
 6773W        W22907   3.771   2.332   3.383 -0.0687 -0.0453  0.1465
 6774W        W22908   7.415   6.240   0.568 -0.0582 -0.2406  0.0152
 6775W        W22909  18.335   7.357  11.756 -0.1313  0.1910  0.0788
 6776W        W22910   0.240  18.698   1.297 -0.0383 -0.0478  0.5750
 6777W        W22911   2.141  11.767  12.141  0.1661 -0.1913  0.0934
 6778W        W22912   1.891   8.257   4.407 -0.3394  0.0967 -0.2200
 6779W        W22913   2.191   4.396   9.946  0.2663  0.2230 -0.0731
 6780W        W22914  14.697  18.250  13.580 -0.3382 -0.0527  0.2720
 6781W        W22915  10.053   3.312  11.178 -0.1707  0.0708 -0.1597
 6782W        W22916   1.731  12.247  13.306 -0.0091 -0.0281  0.2412
 6783W        W22917   4.724  14.213   0.992 -0.1579  0.0043  0.1511
 6784W        W22918  16.922  15.568  13.769  0.0429 -0.0204 -0.1455
 6785W        W22919  11.658   7.037   1.603 -0.0929 -0.1448  0.3525
 6786W        W22920  17.584   8.640  13.738  0.0043  0.3281  0.1577
 6787W        W22921  12.966   6.120  11.411  0.0667 -0.1678  0.1892
 6788W        W22922  15.631  10.577   1.242 -0.1433 -0.5608  0.2023
 6789W        W22923   3.158   1.798   1.792  0.0051 -0.0539  0.0575
 6790W        W22924  13.894  14.481   0.709  0.2791  0.1717 -0.0587
 6791W        W22925   7.801   4.980  14.422  0.1939 -0.2560 -0.0572
 6792W        W22926  10.568   2.989   2.585  0.0339  0.1906 -0.4493
 6793W        W22927  10.666   2.496   4.361  0.2571 -0.0106 -0.1922
 6794W        W22928  10.992  19.105  11.235 -0.1294 -0.0891 -0.1973
 6795W        W22929   0.853  10.728   3.594 -0.2481  0.1401  0.0768
 6796W        W22930  13.176   9.549   4.708 -0.0554 -0.1052  0.2049
 6797W        W22931  16.597  16.763  10.911  0.0935 -0.1075 -0.1268
 6798W        W22932  16.672   6.961   3.315 -0.1711 -0.1918  0.0703
 6799W        W22933   6.189  15.718   4.253  0.0433  0.1373  0.2820
 6800W        W22934  14.843  16.419   2.503  0.1609 -0.0383 -0.3080
 6801W        W22935   3.248   2.799   9.795 -0.1033 -0.0402 -0.2805
 6802W        W22936  16.441   9.101   4.648 -0.0029  0.0039 -0.0435
 6803W        W22937   4.391  15.406   4.778 -0.1359 -0.0999  0.2701
 6804W        W22938   0.988   5.828   3.074 -0.0240  0.0753  0.0452
 6805W        W22939   9.025   8.445  13.905 -0.1864  0.3740 -0.1882
 6806W        W22940  14.979  15.286   2.578  0.0226 -0.1086 -0.2500
 6807W        W22941   9.610   8.641   5.357  0.1784  0.4144 -0.0891
 6808W        W22942  12.263  18.362  11.796  0.2326  0.0528 -0.2624
 6809W        W22943  10.948  13.627   4.253  0.1075  0.3189  0.2068
 6810W        W22944   9.853   3.814   1.718 -0.0401 -0.0631 -0.0102
 6811W        W22945   2.850   6.420   3.603 -0.1346 -0.2054  0.1653
 6812W        W22946   4.385   3.509  11.225 -0.2498 -0.1011  0.0808
 6813W        W22947   0.804  10.164   1.707 -0.0601  0.3077 -0.0854
 6814W        W22948   0.481   3.295   2.619  0.2412 -0.2064 -0.0625
 6815W        W22949  18.634  10.526   1.816 -0.2898 -0.1533 -0.1066
 6816W        W22950  17.280   2.550  14.655  0.1524 -0.2377 -0.1276
 6817W        W22951  13.735  17.068   4.204  0.0689 -0.1889 -0.0271
 6818W        W22952   7.855  10.672  14.080  0.3993 -0.1150  0.2753
 6819W        W22953   6.944  14.329   2.978 -0.1792 -0.0342  0.0778
 6820W        W22954   8.152   2.654   3.014 -0.0157  0.0975  0.0049
 6821W        W22955  12.310  10.893   1.098  0.0545  0.0729 -0.0200
 6822W        W22956  17.529  17.301  10.641  0.1179  0.1631 -0.0040
 6823W        W22957   7.925   5.244  10.968  0.0162  0.0459  0.1950
 6824W        W22958   4.647  15.346  14.643 -0.0759  0.0749 -0.2248
 6825W        W22959   8.040  17.074   4.704  0.0100  0.1822 -0.2004
 6826W        W22960  19.165   6.143  13.916 -0.2319  0.2856  0.2045
 6827W        W22961   2.059   0.888   1.000  0.1383 -0.1528 -0.2195
 6828W        W22962   0.125   1.972  11.130  0.0615  0.0118 -0.2165
 6829W        W22963   2.078  19.165   1.977 -0.0900 -0.1631  0.2015
 6830W        W22964   8.274  19.260  12.177  0.1065 -0.0436  0.0780
 6831W        W22965  16.134   0.835   2.720  0.2588  0.0320 -0.2064
 6832W        W22966  18.185   0.801   4.604  0.2162  0.2502 -0.1536
 6833W        W22967  11.519   1.934  11.980  0.1941  0.0940  0.0673
 6834W        W22968  13.471  19.110  14.085  0.2959  0.0562  0.0756
 6835W        W22969   3.362  10.800  14.550 -0.0238  0.0548  0.0341
 6836W        W22970   8.311   5.288   0.930 -0.4444  0.3484 -0.1049
 6837W        W22971   5.587  17.777  11.097 -0.0809  0.2432 -0.2411
 6838W        W22972   3.211   5.479  12.241  0.0220  0.0002 -0.0860
 6839W        W22973   4.047   5.586  10.881 -0.0419  0.2491 -0.0594
 6840W        W22974   3.065   4.215   0.192 -0.2065  0.0813  0.0103
 6841W        W22975  13.747   2.928   3.108 -0.0115 -0.0253 -0.1876
 6842W        W22976  13.055  18.881   5.536  0.1566  0.4265  0.3079
 6843W        W22977   0.669   2.024  11.364  0.0863 -0.2559  0.2516
 6844W        W22978   8.813  17.338  12.413  0.0048  0.1621  0.1538
 6845W        W22979  15.750   3.962  12.194 -0.4288 -0.0368 -0.1625
 6846W        W22980   7.556   2.860  11.448  0.0414  0.1008  0.0127
 6847W        W22981   9.173   8.578   0.445  0.1050 -0.3313  0.1358
 6848W        W22982  14.579  16.828  11.772 -0.2085  0.1234  0.2046
 6849W        W22983  13.333  14.653   1.679  0.3408  0.4347 -0.0282
 6850W        W22984  15.727  16.517   3.555  0.2455  0.0149 -0.0477
 6851W        W22985   4.824   1.968   3.887  0.3245  0.0425  0.1062
 6852W        W22986   7.375   9.546  11.622  0.0722 -0.1220 -0.1205
 6853W        W22987   9.452  14.889   1.092  0.1571  0.1641 -0.0628
 6854W        W22988   2.012   6.248   1.128 -0.0465  0.2852 -0.1302
 6855W        W22989  17.328   2.362   3.500 -0.1919 -0.6363 -0.1965
 6856W        W22990   8.887   4.539   2.513  0.1348  0.0005  0.2007
 6857W        W22991   6.587  10.264  10.678  0.0390 -0.1557  0.0476
 6858W        W22992   0.632   8.999  12.448  0.1718  0.0656  0.0547
 6859W        W22993   9.146   4.922  14.565 -0.2020 -0.1655  0.1005
 6860W        W22994   8.198  11.658   2.609 -0.0283  0.0220  0.0900
 6861W        W22995   7.604  12.959   1.222 -0.0505  0.1606  0.0958
 6862W        W22996  11.542   3.510   3.186 -0.0845 -0.0868 -0.1497
 6863W        W22997   5.884   2.422   4.302  0.2568 -0.3627 -0.1271
 6864W        W22998  13.993  11.300   1.193  0.1650  0.2773 -0.1520
 6865W        W22999   0.047   2.678   0.952 -0.1260  0.0897  0.2111
 6866W        W23000   6.676   3.110  14.354 -0.1260 -0.3629 -0.2938
 6867W        W23001   8.948   2.296   2.732 -0.1214 -0.0683  0.1011
 6868W        W23002  12.137   2.996  13.243  0.0293 -0.1869  0.1550
 6869W        W23003   7.901  18.001   3.071 -0.2400  0.2178  0.1266
 6870W        W23004   0.155  18.917   4.856 -0.0873  0.2047  0.1210
 6871W        W23005  12.701   3.205   9.686  0.0691  0.1478  0.1804
 6872W        W23006  11.314   6.511   3.640 -0.0730  0.2776  0.0234
 6873W        W23007  17.906   9.231  13.915  0.0538  0.2036 -0.3523
 6874W        W23008  18.519  14.888  13.693 -0.0991  0.1000 -0.1149
 6875W        W23009   4.178   0.543   2.704 -0.3146 -0.0411 -0.1833
 6876W        W23010   9.646   7.217  10.449  0.0601 -0.2581  0.0376
 6877W        W23011   5.969  15.037  14.975  0.2974  0.1106  0.0605
 6878W        W23012  11.893   4.233  13.237  0.1225  0.0493 -0.0160
 6879W        W23013  15.693  10.525   2.935 -0.0467  0.1097 -0.2619
 6880W        W23014  10.864   7.520  12.664 -0.0201  0.3721 -0.0144
 6881W        W23015  11.434   7.705   0.180 -0.3021 -0.0010  0.0512
 6882W        W23016  13.330  12.023   4.634 -0.1599  0.3988 -0.0255
 6883W        W23017  11.332  12.512  12.847 -0.0955 -0.0195 -0.0467
 6884W        W23018   9.413  15.530   2.091  0.0955  0.2808  0.3403
 6885W        W23019  16.795   5.567   3.026 -0.0009 -0.1422  0.2250
 6886W        W23020  17.732  18.732  11.884 -0.4091 -0.0142  0.3592
 6887W        W23021   4.767   6.766   0.438  0.0212 -0.2974  0.1598
 6888W        W23022  15.758   9.702   4.653 -0.1326  0.3614  0.0623
 6889W        W23023  14.082  18.037  11.041  0.1424 -0.2672 -0.0872
 6890W        W23024   3.306   7.439  13.212 -0.1955 -0.3692  0.0452
 6891W        W23025  12.937  12.355  12.338 -0.2608  0.2600  0.0089
 6892W        W23026  11.908   4.149  11.939 -0.0029  0.2808  0.2823
 6893W        W23027   1.895  16.605  13.161 -0.0423 -0.3087 -0.1275
 6894W        W23028   8.186   4.949  14.108  0.1467  0.0346 -0.0244
 6895W        W23029   5.678  14.209   2.571  0.0666  0.0742 -0.0923
 6896W        W23030  17.692  15.171   2.978  0.1464 -0.0764 -0.0809
 6897W        W23031  16.161  10.502   9.210  0.3370  0.0779  0.0533
 6898W        W23032   8.917   4.319  14.871 -0.1496  0.1736  0.0482
 6899W        W23033  15.797  13.188   0.473 -0.0360  0.1511 -0.0112
 6900W        W23034   1.759  15.839  14.145 -0.2132 -0.1721  0.1872
 6901W        W23035  16.894   2.996  14.157  0.0846  0.0856 -0.0649
 6902W        W23036   5.716  17.589  12.646  0.0525 -0.0147 -0.1408
 6903W        W23037   3.495   0.972   2.627  0.0466  0.3196  0.0170
 6904W        W23038   9.440   3.833   3.005  0.1075 -0.1062 -0.0356
 6905W        W23039   3.584   3.082   2.646  0.1604  0.3157 -0.0891
 6906W        W23040   9.372  16.022  11.978  0.1534  0.1562 -0.0691
 6907W        W23041   5.385   7.674   9.432  0.0641  0.3430 -0.2232
 6908W        W23042   8.715  14.695  10.621  0.3132  0.1609  0.1735
 6909W        W23043   1.299   2.334   1.756 -0.3299  0.1468 -0.3198
 6910W        W23044  15.389   7.652   3.308 -0.2551 -0.0531 -0.1129
 6911W        W23045   9.095  10.409  14.879 -0.0852  0.1840 -0.0403
 6912W        W23046  11.841   1.788   0.834  0.0759  0.1049 -0.2436
 6913W        W23047  18.535   4.861   2.434  0.1928 -0.0936  0.0509
 6914W        W23048  18.241   8.201   4.161 -0.2140 -0.1440  0.1321
 6915W        W23049  15.951   0.461  10.810 -0.0554 -0.0586  0.1004
 6916W        W23050   2.738   1.419   5.111  0.3310 -0.1635  0.2440
 6917W        W23051   1.725  18.351   2.610  0.2009 -0.0755  0.0670
 6918W        W23052   6.858   2.613   0.436  0.0794  0.2690 -0.4437
 6919W        W23053   1.387  17.704  14.918 -0.0621 -0.0677 -0.0979
 6920W        W23054  16.447   4.368   9.267 -0.1889  0.0453  0.0491
 6921W        W23055   0.902   0.899  14.685  0.0633  0.1344 -0.3563
 6922W        W23056   1.369  15.935  12.601 -0.1626  0.1222 -0.2420
 6923W        W23057   0.976   6.511   3.666 -0.0262  0.0376  0.0693
 6924W        W23058  10.974  16.991  13.491  0.4757  0.0770 -0.1382
 6925W        W23059  14.998   3.679  13.594  0.2820  0.0958  0.0504
 6926W        W23060   7.391  19.191  11.336  0.2819  0.2380 -0.0743
 6927W        W23061   1.453   8.275   5.123 -0.0181  0.0184 -0.0429
 6928W        W23062   3.342  14.520  12.904 -0.0339 -0.2696 -0.1644
 6929W        W23063  14.988   1.732  11.019 -0.2153 -0.1343  0.1384
 6930W        W23064  10.514  14.978   4.594  0.0063 -0.1274 -0.5697
 6931W        W23065  15.171   3.674   0.437 -0.4077 -0.0736  0.0213
 6932W        W23066  19.156  10.355  13.383 -0.1584  0.1868 -0.1362
 6933W        W23067   6.289   5.443   3.437  0.5269 -0.1437 -0.1691
 6934W        W23068   0.170  13.310   9.614  0.0318 -0.1089 -0.0978
 6935W        W23069   5.886   1.004  12.016  0.0877  0.3547  0.0707
 6936W        W23070  18.974   5.333   1.659  0.0343  0.0196 -0.3276
 6937W        W23071   0.281   5.634   2.338  0.2016  0.3622  0.2071
 6938W        W23072  10.662  12.719  11.912  0.0995  0.4666  0.1271
 6939W        W23073  16.323   0.968   3.299 -0.0293 -0.1866  0.4714
 6940W        W23074  11.243   0.222  12.169 -0.2031 -0.1166 -0.0714
 6941W        W23075  18.376  15.552   5.496 -0.0705  0.1451  0.1061
 6942W        W23076   2.840   1.978  12.650 -0.0818  0.0675 -0.2613
 6943W        W23077   7.741  17.727  11.799 -0.1050 -0.5563 -0.1201
 6944W        W23078   3.206  19.278  14.322 -0.2790 -0.1668 -0.3403
 6945W        W23079   2.629  11.482  10.779 -0.4375  0.2894 -0.0064
 6946W        W23080   6.798   1.448   1.111  0.0780 -0.2595 -0.0268
 6947W        W23081   1.255   5.379  12.076 -0.0032 -0.0947 -0.1889
 6948W        W23082  15.083  18.598  13.425  0.0529 -0.1982 -0.2795
 6949W        W23083  17.691  15.725  13.063  0.2218  0.0302  0.0985
 6950W        W23084  10.189  16.007  10.699 -0.1651  0.1606 -0.1306
 6951W        W23085  11.463   7.703  14.290 -0.2172  0.2025 -0.1919
 6952W        W23086   2.396   3.601  11.134  0.0911 -0.0254 -0.0928
 6953W        W23087   8.577  19.193   1.099 -0.0383  0.2039 -0.1277
 6954W        W23088  19.194   6.204  10.549  0.3167  0.1371  0.1250
 6955W        W23089   3.284  16.045   2.790  0.3078 -0.0815 -0.0190
 6956W        W23090   9.680   2.578   1.433  0.0325  0.3935  0.2062
 6957W        W23091  12.484  10.956  11.448  0.0739 -0.1451  0.3423
 6958W        W23092  13.011   3.237  11.706  0.0610  0.2090  0.0041
 6959W        W23093  18.992  10.123   2.863 -0.1398 -0.2793 -0.1699
 6960W        W23094   1.763  12.715   3.697  0.1566  0.1984 -0.0308
 6961W        W23095  13.414   8.227  11.445 -0.2398  0.0760 -0.4553
 6962W        W23096  16.619  18.571  12.558  0.1714  0.0467 -0.1780
 6963W        W23097  15.655  14.933   4.531  0.2718  0.1298  0.1904
 6964W        W23098   0.239   2.535   3.217  0.2703 -0.4083  0.2286
 6965W        W23099  15.993   1.257   3.034  0.3454 -0.1302 -0.4686
 6966W        W23100  10.378  13.162  11.968  0.3311 -0.0442  0.1877
 6967W        W23101  13.543  17.378   4.611  0.0448  0.1366  0.0551
 6968W        W23102   8.316  10.233  11.263  0.1189 -0.4685  0.2595
 6969W        W23103   0.327   4.042   4.689  0.0892 -0.3040 -0.1199
 6970W        W23104  14.651  18.687   2.971  0.0354 -0.3466  0.0137
 6971W        W23105   4.853   3.700  10.539  0.0272  0.0028 -0.2598
 6972W        W23106  18.264   6.585   1.992  0.0629 -0.0187  0.0115
 6973W        W23107   6.536  16.854   3.308  0.1720 -0.3151 -0.0115
 6974W        W23108   2.723  17.828   9.567  0.0845 -0.1323  0.3133
 6975W        W23109  17.391   5.186  12.578 -0.0214 -0.1560  0.0638
 6976W        W23110   5.132   1.883  11.050 -0.1873  0.0292  0.2014
 6977W        W23111   0.740   1.290  11.364 -0.0272  0.1294 -0.2560
 6978W        W23112  15.464   2.294  13.419 -0.1163 -0.1074 -0.1043
 6979W        W23113  11.714  10.180  13.211 -0.1134 -0.3591  0.1186
 6980W        W23114  15.183   9.574   2.648  0.1011  0.0667  0.1068
 6981W        W23115  10.604  11.386  12.739 -0.1020 -0.1126  0.1596
 6982W        W23116  11.168  17.138   5.307  0.1564 -0.1095 -0.2791
 6983W        W23117   2.807  10.777   2.680 -0.0114 -0.2428  0.4337
 6984W        W23118  13.900   2.771  14.707 -0.0504 -0.0362 -0.2905
 6985W        W23119  18.570  17.728  13.542 -0.1851  0.1718  0.1098
 6986W        W23120   7.301   4.991  12.242  0.2995 -0.1099  0.1906
 6987W        W23121  13.502   0.802  12.788  0.1599 -0.0016 -0.0760
 6988W        W23122   8.032  12.361   2.883 -0.0570 -0.2093 -0.0104
 6989W        W23123   5.507  19.128  13.814  0.0996 -0.2788  0.0981
 6990W        W23124  15.029   8.848   0.351  0.0140  0.0226  0.0953
 6991W        W23125  12.204   0.962   0.989  0.1676  0.0544 -0.0938
 6992W        W23126   7.836  12.685  11.424 -0.2799  0.4064  0.3905
 6993W        W23127  18.111  17.888  14.714 -0.3049  0.0932 -0.3025
 6994W        W23128   0.888  13.571   4.321 -0.2523 -0.1459  0.1073
 6995W        W23129   8.945  15.531  14.659  0.1314  0.1612 -0.1498
 6996W        W23130   7.943   0.850   5.242 -0.3630 -0.3285 -0.1865
 6997W        W23131   1.289  10.619  10.253 -0.0266  0.1120  0.3361
 6998W        W23132   2.929  14.602   4.063  0.1104 -0.2013  0.1999
 6999W        W23133  12.158   4.010  13.603 -0.0733  0.0144 -0.2607
 7000W        W23134   9.690  13.481  11.899  0.5794 -0.0375  0.2084
 7001W        W23135  14.119  18.285   5.470  0.0327  0.2655 -0.1097
 7002W        W23136   6.158  12.551   1.036 -0.3297 -0.3428 -0.0932
 7003W        W23137  12.108  15.924   3.010 -0.0949  0.0537 -0.1265
 7004W        W23138   4.261   0.156   4.492  0.1762 -0.0327 -0.0002
 7005W        W23139  12.573   3.716   0.365  0.4052  0.1113 -0.2824
 7006W        W23140   5.890  10.735   4.632  0.3037 -0.0209 -0.0085
 7007W        W23141  11.193  16.585  14.624 -0.1509 -0.1445  0.0530
 7008W        W23142   1.693   1.461   2.627  0.1526 -0.2450 -0.0732
 7009W        W23143   1.400  13.399  12.623  0.1331 -0.2545  0.2206
 7010W        W23144   4.834   1.508   3.085 -0.2344  0.2898 -0.0015
 7011W        W23145  17.318   8.156   1.295 -0.3949 -0.0573  0.0066
 7012W        W23146   5.383  17.760   0.292 -0.1471  0.2023 -0.0939
 7013W        W23147  16.182  13.275   9.473  0.0056  0.1950 -0.3095
 7014W        W23148   2.878  12.464  12.274  0.3064  0.0776 -0.0390
 7015W        W23149   1.548   8.969  14.873 -0.0484 -0.0219 -0.1552
 7016W        W23150  11.753   0.329  10.702 -0.2613 -0.0981  0.0637
 7017W        W23151   7.208  17.504   3.334 -0.0140 -0.1078  0.0161
 7018W        W23152   2.108  18.620   2.421 -0.0742  0.0062  0.1258
 7019W        W23153   3.588  12.621  13.715 -0.0735 -0.0139  0.0335
 7020W        W23154   8.633   9.049  14.659  0.0242  0.0072 -0.5949
 7021W        W23155   3.548  17.784  10.773 -0.0167 -0.1306 -0.3642
 7022W        W23156  12.790   6.872  13.068  0.0837 -0.0601  0.0255
 7023W        W23157   8.093  14.411   0.926 -0.1408 -0.0076 -0.3811
 7024W        W23158   3.470   6.747  10.061  0.0211  0.0311  0.0733
 7025W        W23159  19.112  13.828   0.528 -0.1723  0.0021 -0.1386
 7026W        W23160   1.663  10.603   1.429 -0.1737 -0.0980 -0.0963
 7027W        W23161   7.789   6.651  13.602 -0.1564 -0.0337  0.1622
 7028W        W23162  16.299   9.777  10.808 -0.0608  0.0372  0.1230
 7029W        W23163  10.910  17.278  12.045 -0.2834 -0.0546 -0.0476
 7030W        W23164   0.471   8.183  14.553 -0.5162 -0.2424 -0.2686
 7031W        W23165  11.988  12.263   3.128 -0.0862 -0.0007  0.1092
 7032W        W23166  10.687   6.863   1.396  0.3372  0.1982  0.0872
 7033W        W23167   6.414   2.571   0.709 -0.2601  0.2755  0.0411
 7034W        W23168   6.949  17.504   5.471  0.2347 -0.1926  0.1790
 7035W        W23169   6.530  10.527  10.147 -0.0887  0.1814 -0.0323
 7036W        W23170   6.287   7.158  13.162 -0.3710 -0.1258  0.0817
 7037W        W23171  13.609   2.318   1.430 -0.1820 -0.0455  0.0252
 7038W        W23172   9.211   0.756  11.124  0.1190 -0.0495 -0.0283
 7039W        W23173  15.614  12.707  13.011  0.2175 -0.1095 -0.3395
 7040W        W23174   9.534   9.282   4.443 -0.0412  0.0033 -0.0055
 7041W        W23175  17.702   1.704   4.120 -0.0556 -0.2650 -0.1436
 7042W        W23176   9.587  10.266  12.481 -0.0261  0.1116  0.0566
 7043W        W23177  12.726   9.646  11.901  0.0851 -0.1143  0.0998
 7044W        W23178  16.767   1.294  14.722 -0.2771 -0.0161  0.0136
 7045W        W23179   3.834   8.259  10.042  0.0770 -0.0977  0.2132
 7046W        W23180  11.124  15.875  10.297 -0.0576  0.0511  0.0216
 7047W        W23181   9.555  13.871   4.454  0.0049 -0.0409 -0.0357
 7048W        W23182   9.012  10.194   3.135 -0.3060  0.0863  0.0246
 7049W        W23183   9.383   1.258   3.621  0.2619  0.1547  0.0824
 7050W        W23184   6.352  14.074   3.253 -0.1216  0.1420 -0.0102
 7051W        W23185   0.222  14.848   9.624  0.4951 -0.2409  0.0679
 7052W        W23186  16.950  18.660  14.661  0.2051  0.1725 -0.0466
 7053W        W23187  10.232  14.641  13.912 -0.2118 -0.1270  0.1940
 7054W        W23188  10.933  16.486   3.409  0.1835 -0.0689 -0.0494
 7055W        W23189   2.655   1.886   1.797 -0.0273 -0.6702  0.0450
 7056W        W23190  16.996   9.536   4.187 -0.4401  0.0178 -0.4650
 7057W        W23191  11.489  13.679   4.335  0.0316 -0.1109  0.0342
 7058W        W23192  16.848   3.738   3.609  0.1081 -0.1409 -0.0340
 7059W        W23193   6.671  14.124  11.342 -0.0552 -0.0090  0.0355
 7060W        W23194   6.174   8.125   9.824 -0.2030 -0.0461  0.2721
 7061W        W23195  17.674   3.575  11.029 -0.0788 -0.2576  0.2367
 7062W        W23196   0.992   1.170   9.782 -0.3581 -0.2998 -0.1539
 7063W        W23197   6.567  14.643   0.956 -0.1313 -0.0701  0.1299
 7064W        W23198  17.323   5.058   4.026 -0.0156  0.2486  0.0603
 7065W        W23199  17.280   5.313   5.795  0.0683  0.1368 -0.1948
 7066W        W23200   8.907   7.675  13.228 -0.1846 -0.2025  0.3534
 7067W        W23201  16.506   1.112   2.596 -0.3025  0.1798  0.2867
 7068W        W23202  17.149   5.630   1.301 -0.1045  0.1451 -0.0372
 7069W        W23203   2.685  15.581   2.439  0.0744  0.4582  0.1679
 7070W        W23204   9.356  14.756   4.967  0.0577 -0.2274  0.0353
 7071W        W23205  16.804   2.556  12.466 -0.0821  0.0294 -0.0075
 7072W        W23206   0.606   3.288  12.291  0.1071  0.0291  0.1318
 7073W        W23207   6.198   9.782   3.389 -0.1015  0.0232 -0.1570
 7074W        W23208  11.808  14.496  11.581 -0.3303 -0.2795  0.2472
 7075W        W23209  11.122  17.043  12.436  0.1524  0.3702 -0.1084
 7076W        W23210  17.493  10.462  14.636  0.0238 -0.1343  0.0121
 7077W        W23211   5.310   5.622   0.114  0.2017 -0.3639  0.2288
 7078W        W23212   7.221  11.730   1.855 -0.2810  0.1950  0.0181
 7079W        W23213   3.925  11.118  13.933  0.0596 -0.0848  0.2980
 7080W        W23214   2.517  12.256   2.809  0.0446  0.3925 -0.0066
 7081W        W23215   6.580   6.736   0.387  0.0167 -0.3503 -0.0463
 7082W        W23216   0.263   9.205  13.917 -0.0523  0.0875  0.2983
 7083W        W23217   2.104   7.942  11.940  0.2828  0.3598  0.1316
 7084W        W23218  19.255  10.045  11.119  0.1398  0.1389 -0.0761
 7085W        W23219   9.708   3.318   9.392  0.1803  0.2587  0.2112
 7086W        W23220   3.036  15.808   3.163  0.0659 -0.0358  0.1900
 7087W        W23221  19.258  14.564   0.223 -0.0575 -0.0549  0.0779
 7088W        W23222  11.292  12.237   1.161  0.1116 -0.0206 -0.2236
 7089W        W23223  18.569   8.291   1.835 -0.0567  0.0419 -0.1537
 7090W        W23224  12.023  17.182   3.285 -0.0657 -0.0215  0.0645
 7091W        W23225  12.395   1.071   6.032 -0.2239 -0.5455 -0.0991
 7092W        W23226  11.980   4.744   0.044  0.0658  0.0967  0.1283
 7093W        W23227   9.310   5.491   2.837  0.1986 -0.0267  0.0877
 7094W        W23228  13.965  17.315  12.922  0.2305  0.2172 -0.0076
 7095W        W23229  13.088   5.407   3.400 -0.0937 -0.2218 -0.0199
 7096W        W23230   3.369   2.458  11.992  0.0590 -0.2640  0.0258
 7097W        W23231   7.555  14.632  10.892 -0.1142 -0.1881 -0.1558
 7098W        W23232  19.201   8.713   0.251  0.0046 -0.0667 -0.0602
 7099W        W23233   8.017   2.012   0.634  0.0962 -0.0878  0.0399
 7100W        W23234   5.123   1.657   3.556  0.2557 -0.0826  0.0244
 7101W        W23235  11.957   7.806  10.960  0.1262 -0.3881 -0.0104
 7102W        W23236   9.550   7.795   2.681  0.0945  0.1374  0.1382
 7103W        W23237   3.752   1.825  14.818  0.0749  0.2155 -0.1992
 7104W        W23238  18.605  17.279  14.527  0.0396  0.4279 -0.0535
 7105W        W23239   1.351   0.240  12.231  0.4024 -0.0977 -0.2634
 7106W        W23240   1.709  16.395  12.705  0.0856  0.2259 -0.0092
 7107W        W23241  18.096  14.212  10.119  0.1051 -0.2362  0.1388
 7108W        W23242  18.520  16.254  10.134  0.1267  0.0962 -0.2489
 7109W        W23243   2.793   0.575   0.592  0.6379 -0.1926  0.1501
 7110W        W23244  11.973   1.798  12.299 -0.1550 -0.0642 -0.0034
 7111W        W23245  18.098   1.515  13.240  0.1215  0.1020 -0.0629
 7112W        W23246   7.679  17.998   3.961 -0.1888  0.2341  0.0103
 7113W        W23247   7.309  18.475  11.497 -0.0358  0.1162  0.0004
 7114W        W23248   4.145   7.186   2.004 -0.1210  0.1577  0.2643
 7115W        W23249   9.758  13.132   1.205  0.1712  0.0794  0.0087
 7116W        W23250  11.827  11.805   3.019 -0.0057  0.1118  0.1752
 7117W        W23251  17.801  18.793   2.581 -0.0841  0.3351  0.0521
 7118W        W23252  12.294   8.494  13.980 -0.0322 -0.2008  0.3417
 7119W        W23253   5.666   9.280   2.280  0.2386 -0.0300 -0.3236
 7120W        W23254   4.529   6.279   0.052  0.0246  0.0858  0.0907
 7121W        W23255  10.478   2.765   1.580  0.1062 -0.2669 -0.2910
 7122W        W23256   2.142   1.148   3.394 -0.0106 -0.3535  0.1561
 7123W        W23257   0.896   9.976   1.182  0.2272  0.0730  0.2708
 7124W        W23258   3.287   0.635   3.060 -0.0280 -0.1470 -0.0298
 7125W        W23259  13.146  12.123  14.405 -0.3795  0.2078  0.3322
 7126W        W23260   4.275   7.625  11.058  0.3733  0.1380  0.1857
 7127W        W23261   8.261   1.438  12.925 -0.2770  0.0575  0.0551
 7128W        W23262  15.580  15.750  11.449 -0.2674  0.0244  0.2980
 7129W        W23263  18.859   7.315   2.093  0.1036  0.0400  0.1278
 7130W        W23264   1.447   2.332   3.378  0.0576  0.1860  0.0979
 7131W        W23265  13.205  18.494   5.242 -0.0340  0.0318 -0.0391
 7132W        W23266   3.956   1.821  13.944  0.2849  0.0108  0.1597
 7133W        W23267   5.726   9.128  14.743  0.0476  0.1997  0.1328
 7134W        W23268  18.805  16.944   3.883 -0.1132 -0.0103  0.0274
 7135W        W23269   3.592  12.591   9.921 -0.1047 -0.2477 -0.0257
 7136W        W23270   7.758  13.868  11.115  0.2222 -0.0100  0.2198
 7137W        W23271   3.596  17.670   0.463  0.0397  0.5126  0.0068
 7138W        W23272   6.497  11.373  13.459 -0.1756 -0.1595  0.1497
 7139W        W23273  15.531  19.001   2.703 -0.0164  0.1438 -0.1823
 7140W        W23274  11.818  10.279  11.450  0.0792  0.0708 -0.0829
 7141W        W23275  12.698  10.337   9.236 -0.0149 -0.0421  0.0463
 7142W        W23276   4.368   5.977   3.009 -0.2475 -0.2595  0.3198
 7143W        W23277   3.860  10.226   1.153  0.0101  0.1458  0.0449
 7144W        W23278  15.479  13.727   2.183 -0.0607 -0.0442 -0.2807
 7145W        W23279  14.891   8.630   1.904 -0.2695  0.1508  0.1607
 7146W        W23280  17.881   2.801  11.764 -0.0078 -0.2938 -0.0075
 7147W        W23281   8.112   9.105   2.280  0.0533  0.0372 -0.2018
 7148W        W23282  14.272   6.864   3.623 -0.1149  0.2264  0.4113
 7149W        W23283   4.816   6.477  10.431  0.1132  0.1692  0.0624
 7150W        W23284   8.158  15.283   1.645 -0.2352  0.2129 -0.3087
 7151W        W23285   7.072   0.110   0.674  0.2190  0.2805 -0.2215
 7152W        W23286  14.293  16.166   2.590 -0.0379  0.0128  0.2171
 7153W        W23287  12.349  12.755  11.281  0.2938  0.3266 -0.0906
 7154W        W23288  17.668   4.921  10.366 -0.2509  0.1464 -0.3029
 7155W        W23289   7.905  13.214   0.249 -0.1298  0.0682  0.2127
 7156W        W23290   3.365   2.653   1.660 -0.1299  0.0703  0.0525
 7157W        W23291   1.933   9.668  14.511 -0.1764  0.0204  0.0444
 7158W        W23292  13.728   4.114   3.305  0.0968 -0.1389 -0.3094
 7159W        W23293   3.845   1.533  12.072  0.0601  0.3852  0.4050
 7160W        W23294   1.324  12.946   1.204  0.0742  0.2907 -0.0890
 7161W        W23295   8.613  18.842   2.228 -0.0638  0.0958  0.0234
 7162W        W23296  17.125   4.316  14.522  0.1998  0.0997  0.3371
 7163W        W23297   2.242   2.930   4.016 -0.1345 -0.0267 -0.1361
 7164W        W23298   2.049   7.890   4.047  0.0982 -0.3622  0.3154
 7165W        W23299  16.850   2.506   2.648 -0.1377  0.1212 -0.1356
 7166W        W23300  16.875  17.688   5.419  0.0707 -0.1310  0.3096
 7167W        W23301   6.702   6.649   1.319 -0.0799  0.0217  0.0509
 7168W        W23302   2.279   9.166  13.047  0.0052  0.0317  0.1145
 7169W        W23303  10.200   1.388  14.151 -0.2057 -0.0845  0.0261
 7170W        W23304   4.129  15.616   3.911  0.5270  0.0938 -0.3387
 7171W        W23305   0.558  18.936   3.448  0.1989 -0.2248  0.0068
 7172W        W23306  17.565   6.736   1.177 -0.3913 -0.1570 -0.1669
 7173W        W23307  14.767  18.765   5.375 -0.2940 -0.1154 -0.0901
 7174W        W23308   3.169   6.916  11.588 -0.2106 -0.0084 -0.0754
 7175W        W23309   6.445   5.077   3.123 -0.0838  0.0569  0.0360
 7176W        W23310  15.761  15.424   3.810 -0.1681 -0.0048  0.0751
 7177W        W23311  17.921   5.383   3.556 -0.0170 -0.1759  0.0496
 7178W        W23312   1.067  12.181   0.826 -0.0432 -0.0554  0.0216
 7179W        W23313  10.726   5.607   0.601 -0.0099  0.2707 -0.1884
 7180W        W23314   0.454   8.751   3.263 -0.0213 -0.0066  0.2574
 7181W        W23315  12.139   6.421  11.976 -0.0565  0.4333 -0.5809
 7182W        W23316   1.269   5.429   2.915  0.3281 -0.0396 -0.2865
 7183W        W23317  13.999  15.467  14.948 -0.0554  0.0148  0.1576
 7184W        W23318   9.688   9.345  14.154  0.3420 -0.4495 -0.2936
 7185W        W23319  13.978   6.309  11.094  0.1588  0.2832 -0.2279
 7186W        W23320  13.332   6.536   4.323 -0.2344 -0.1758  0.0457
 7187W        W23321  11.536   1.531  13.513  0.0096  0.2280 -0.1356
 7188W        W23322   1.078   3.358  11.044 -0.1202  0.0849  0.0276
 7189W        W23323   0.426   8.064   2.343 -0.0769 -0.2255 -0.0819
 7190W        W23324  18.489   9.575  10.886 -0.1443  0.2193 -0.2887
 7191W        W23325  12.450  11.367  10.777  0.1608  0.3467  0.0504
 7192W        W23326   7.541   1.302  11.110 -0.0369  0.1887 -0.2415
 7193W        W23327   0.279  10.891   0.202  0.0162 -0.1338 -0.0436
 7194W        W23328   6.854  18.757   0.616 -0.3508 -0.1689 -0.1975
 7195W        W23329   7.096   8.030   4.413 -0.2011  0.0592  0.1023
 7196W        W23330  16.597   9.080  10.249 -0.0195  0.0506  0.0002
 7197W        W23331  13.841  16.197   2.893  0.1770  0.0554  0.0748
 7198W        W23332   0.833   9.054  11.498  0.0573 -0.2400  0.0115
 7199W        W23333   1.941   7.242   0.765  0.0397 -0.1332 -0.1275
 7200W        W23334   9.203  16.281  13.437 -0.0544  0.0305 -0.1463
 7201W        W23335   3.667  17.188   2.381  0.1088  0.1853  0.0022
 7202W        W23336  13.843   6.246  11.635 -0.0384 -0.1894  0.2410
 7203W        W23337   6.336   9.832  10.495  0.0986 -0.4766  0.0302
 7204W        W23338  12.156  10.619   3.618 -0.2576  0.3533 -0.1554
 7205W        W23339   1.919   6.406   3.504  0.0540  0.0194  0.0450
 7206W        W23340   8.648  17.364  11.578 -0.1841 -0.0172 -0.0789
 7207W        W23341  12.052  15.351  13.829  0.1182 -0.0096  0.2076
 7208W        W23342   8.435   3.637   0.992 -0.0678  0.0788  0.0080
 7209W        W23343  18.767   8.068  10.392 -0.2521 -0.1065  0.1296
 7210W        W23344   0.359   5.546  13.798  0.1354 -0.1053 -0.0319
 7211W        W23345  12.426   2.866   9.900  0.3397  0.1784  0.1220
 7212W        W23346   1.237  12.745  10.134  0.1048  0.0776 -0.0374
 7213W        W23347  14.624  18.744  14.454  0.3338 -0.0866  0.3804
 7214W        W23348  17.989  18.368  11.702 -0.0346  0.0052 -0.0206
 7215W        W23349   7.988   2.300   1.587  0.0709  0.2025  0.1429
 7216W        W23350   8.948   3.773  10.428 -0.0287  0.3531 -0.1076
 7217W        W23351   7.559  13.439   0.502 -0.0978 -0.3532  0.1574
 7218W        W23352  14.048  17.885   2.204  0.3733  0.1851  0.1255
 7219W        W23353   5.496   7.023  14.614 -0.2060 -0.0978  0.0993
 7220W        W23354   4.420  18.839   0.458 -0.0379  0.0871  0.0740
 7221W        W23355   8.602  13.761   3.561 -0.2502  0.1862 -0.1549
 7222W        W23356  12.161   0.615   0.265  0.3113 -0.0562 -0.0464
 7223W        W23357  10.201  15.377   4.851 -0.1896 -0.1984  0.0721
 7224W        W23358  14.967  17.818   9.532 -0.1527  0.2862 -0.1349
 7225W        W23359  11.030  13.905  12.201 -0.4042 -0.2194 -0.1570
 7226W        W23360  16.526  16.722   1.012 -0.2400 -0.0199  0.0185
 7227W        W23361  10.982   1.222   3.142 -0.0388 -0.2000 -0.1588
 7228W        W23362  18.504  19.071  11.585 -0.2406  0.0710 -0.0078
 7229W        W23363   1.643  15.657   1.430 -0.1683 -0.2103 -0.1139
 7230W        W23364   4.053  10.717   3.811 -0.2170 -0.1502  0.2376
 7231W        W23365  18.707  12.581   4.092  0.2684 -0.0727 -0.1077
 7232W        W23366  13.783  15.341   6.188  0.3297 -0.0656  0.1769
 7233W        W23367  15.914   9.043   2.720 -0.0343  0.5174  0.1953
 7234W        W23368  11.079  12.343  10.672  0.1744  0.0164  0.2473
 7235W        W23369   2.421   0.014   3.556  0.0517  0.1376  0.2707
 7236W        W23370  10.778   0.585   1.910  0.0690  0.2698 -0.0347
 7237W        W23371  18.487  10.414  14.740  0.3946  0.0076 -0.0915
 7238W        W23372  13.791   2.450   0.144 -0.0037  0.2930  0.2121
 7239W        W23373   1.923  15.200   2.097  0.1025  0.0212  0.0453
 7240W        W23374  11.159   8.269   1.099 -0.0700  0.1191  0.1096
 7241W        W23375  17.907   3.035  13.792 -0.1332  0.2430  0.2411
 7242W        W23376   5.734   2.537   1.307  0.0018  0.0603  0.0312
 7243W        W23377   6.701  13.631   4.983  0.1139  0.2710  0.2922
 7244W        W23378  18.767  11.323  11.368  0.1687  0.0610 -0.4563
 7245W        W23379   2.706  11.717  13.887 -0.1875  0.2749 -0.2331
 7246W        W23380  15.588  10.766   2.106  0.1452 -0.1651  0.1336
 7247W        W23381   3.346  18.357  14.831 -0.1860  0.1585 -0.4134
 7248W        W23382   7.819   7.749  13.211 -0.0018 -0.0456  0.1203
 7249W        W23383   3.723  17.367  11.561  0.0947  0.2614  0.0516
 7250W        W23384  11.198   8.994  13.923  0.1311 -0.2655 -0.0700
 7251W        W23385   7.637  16.642  13.702 -0.0317  0.3596 -0.0937
 7252W        W23386  12.547  17.273   3.003 -0.3176 -0.0333  0.1095
 7253W        W23387   8.331   9.943  14.540  0.2061  0.0943  0.2139
 7254W        W23388  19.343  14.909  11.191  0.2010  0.1809  0.0731
 7255W        W23389  15.742   2.357  14.777 -0.0459 -0.1661 -0.0540
 7256W        W23390  18.427  14.454   9.768  0.0506 -0.1317  0.0433
 7257W        W23391   1.816  13.350   0.445 -0.2429 -0.0756  0.0460
 7258W        W23392   4.154   5.284  14.429  0.0017 -0.0598  0.0627
 7259W        W23393   2.014   1.548   0.523 -0.1000  0.2936  0.3411
 7260W        W23394   0.750   5.680   1.988  0.0750 -0.1664 -0.1074
 7261W        W23395  17.191  13.158   3.230  0.3244 -0.0839 -0.0944
 7262W        W23396   3.182  11.206  14.699 -0.0836  0.3109  0.0941
 7263W        W23397  16.199  18.253  14.257 -0.0622  0.1375 -0.0196
 7264W        W23398   1.188  16.136   1.356 -0.1587 -0.1135  0.2016
 7265W        W23399  16.115  17.266  14.777 -0.1869 -0.3236  0.0015
 7266W        W23400  18.594   9.847   3.155 -0.1125 -0.1105 -0.0472
 7267W        W23401  12.195   1.461   3.545  0.1951 -0.0250  0.1333
 7268W        W23402   5.522   5.924  11.446  0.4838 -0.0076  0.1361
 7269W        W23403   6.757   8.093   4.113  0.0673 -0.2042  0.1145
 7270W        W23404  11.585  14.343   2.248 -0.0331 -0.0786  0.0414
 7271W        W23405   9.306   8.226   4.457 -0.0252 -0.1747 -0.0048
 7272W        W23406  10.487  12.371   3.684  0.1435 -0.1759  0.0258
 7273W        W23407   6.262   5.467   1.593  0.4317  0.1883 -0.2541
 7274W        W23408   8.991   5.716  12.768  0.1948 -0.0443  0.0952
 7275W        W23409   5.023  15.830   9.555 -0.1354  0.0005 -0.0723
 7276W        W23410  13.467   5.986  14.131 -0.0087 -0.1394 -0.4191
 7277W        W23411   9.697  18.226   2.738  0.0359 -0.3995  0.0453
 7278W        W23412   9.322   3.450   4.200  0.2828 -0.0663  0.0860
 7279W        W23413   0.462  10.638   2.616 -0.1729  0.1822  0.0453
 7280W        W23414  14.884   0.594  14.819  0.4080  0.4165 -0.2409
 7281W        W23415  12.609  18.584   5.877 -0.2587  0.2339  0.1585
 7282W        W23416  17.411   4.410   3.078  0.0816  0.1594  0.1551
 7283W        W23417   1.998   4.480   1.280  0.0405  0.0976  0.1934
 7284W        W23418  10.625   3.586  14.135  0.1097  0.4067  0.1355
 7285W        W23419  17.369  18.570   3.834 -0.1283  0.1191 -0.0227
 7286W        W23420  18.483   7.199  10.524  0.0974  0.0199  0.1470
 7287W        W23421   5.594   4.980   1.002  0.1363  0.1521  0.1308
 7288W        W23422   7.107   8.051   5.364  0.3723 -0.0914 -0.0452
 7289W        W23423  17.437  18.630  14.455  0.0561 -0.0298 -0.1673
 7290W        W23424  17.359   6.894  13.402 -0.1590  0.0572 -0.0645
 7291W        W23425   4.719   9.589   2.051  0.0720  0.3687 -0.2221
 7292W        W23426  15.911  12.944   2.312 -0.1155 -0.0209  0.1169
 7293W        W23427  13.327  10.036   3.021  0.0790  0.0365 -0.0288
 7294W        W23428   6.969  13.658   4.377 -0.0710  0.2622 -0.1688
 7295W        W23429  12.312   9.702  13.944 -0.0578  0.0735 -0.0266
 7296W        W23430   9.596  16.361   4.823 -0.0087  0.1099 -0.1711
 7297W        W23431  12.319  14.489   1.861  0.0764  0.1300  0.0223
 7298W        W23432  13.023  16.059  14.198 -0.1612  0.0080  0.0515
 7299W        W23433   6.288   4.663   0.120  0.0840 -0.1573 -0.1127
 7300W        W23434   1.467   6.367   2.389  0.1014  0.0754  0.1742
 7301W        W23435   4.945   9.797  13.842  0.2061  0.0416 -0.2088
 7302W        W23436   9.208  18.569   2.864 -0.2823 -0.0107 -0.0006
 7303W        W23437  16.074  17.998   4.831 -0.0667 -0.0304  0.0024
 7304W        W23438   1.672  19.007   2.262 -0.1777  0.3011 -0.1003
 7305W        W23439  14.569   8.542   0.526 -0.0834  0.1097 -0.0184
 7306W        W23440   5.812   4.024  13.367 -0.2373 -0.2950  0.2446
 7307W        W23441  11.262   9.495   4.733  0.3789 -0.3322  0.3186
 7308W        W23442  13.535  17.745  12.292  0.0498  0.1135 -0.1452
 7309W        W23443   9.033  18.946  14.807 -0.1217 -0.1870  0.3808
 7310W        W23444   4.368   4.349   2.121 -0.0029 -0.0480 -0.1669
 7311W        W23445  10.343  18.291  14.841  0.1527 -0.2218 -0.1511
 7312W        W23446   0.625  11.138  11.816 -0.0795  0.1713 -0.1179
 7313W        W23447   9.103   5.885   5.547  0.4217  0.2602  0.1612
 7314W        W23448   4.733   3.316   2.405  0.2324  0.1026  0.0104
 7315W        W23449   9.376   5.645   2.325  0.3243 -0.4537  0.0339
 7316W        W23450  14.882  11.341   2.762 -0.1656  0.0685 -0.4744
 7317W        W23451  12.914   7.370   3.316  0.0226 -0.1578 -0.0941
 7318W        W23452  10.446   4.237   0.208  0.1928 -0.1070  0.2146
 7319W        W23453   8.458   5.663   4.040  0.0376 -0.4837  0.2373
 7320W        W23454  11.877   7.104  10.347  0.0089 -0.2599 -0.2140
 7321W        W23455   3.243  13.391   4.723 -0.0964  0.1322 -0.0389
 7322W        W23456   2.587  16.439  12.777 -0.2049 -0.0146 -0.0115
 7323W        W23457  17.209  11.516   0.671 -0.0189 -0.1804  0.1155
 7324W        W23458  19.024   7.489  11.944  0.1794  0.1389 -0.0166
 7325W        W23459  11.708   4.624  12.681  0.5750  0.1002  0.1053
 7326W        W23460   9.548   1.019   2.208  0.0166 -0.1257 -0.5961
 7327W        W23461  15.908   5.355   1.132 -0.1070 -0.2183 -0.1566
 7328W        W23462   8.108   6.114  10.084 -0.1128 -0.1010 -0.1000
 7329W        W23463   5.370   8.807   2.011 -0.2567 -0.0908 -0.2416
 7330W        W23464   1.211   3.888   2.160  0.0287  0.1632  0.2534
 7331W        W23465   1.456   9.134  10.655 -0.2392 -0.0176 -0.3499
 7332W        W23466  17.279  13.499  14.551  0.1552  0.0742  0.0052
 7333W        W23467   5.588  12.304   2.830 -0.0562 -0.1832 -0.0107
 7334W        W23468  15.488  17.350   5.261  0.0794 -0.0405  0.0662
 7335W        W23469  10.601   6.970   4.065 -0.1934 -0.2080 -0.2904
 7336W        W23470  16.952  18.718   2.919 -0.0422  0.0642 -0.0941
 7337W        W23471  16.758   3.232   3.802 -0.2841  0.0200 -0.0770
 7338W        W23472   2.526   9.248  12.545 -0.4690 -0.0312  0.0072
 7339W        W23473  12.739  17.440  13.168  0.0430 -0.0443  0.2525
 7340W        W23474  13.011  13.273  12.870 -0.1570 -0.2282  0.1590
 7341W        W23475   4.385  17.354  14.559  0.1376  0.1838  0.0189
 7342W        W23476  11.557   0.431   4.513 -0.0250 -0.0213  0.1007
 7343W        W23477  12.376  10.225   4.853 -0.0423  0.0482  0.0921
 7344W        W23478  11.700  11.271   4.524  0.0829 -0.3792 -0.1803
 7345W        W23479  12.052   1.294  13.775  0.1092 -0.2859 -0.0695
 7346W        W23480  15.127   5.637   3.578 -0.2164 -0.1334 -0.2894
 7347W        W23481  13.669  11.497   2.480 -0.1137  0.3157  0.0169
 7348W        W23482  16.930  12.219   3.634  0.0651  0.1111 -0.2754
 7349W        W23483  18.713  19.329  12.625  0.2161  0.0187  0.0120
 7350W        W23484  18.082  11.832  13.723  0.1414 -0.0203  0.0293
 7351W        W23485  17.982   2.298  14.352 -0.2824  0.0361  0.1802
 7352W        W23486   8.841  11.476  12.614  0.2440 -0.1785 -0.1514
 7353W        W23487   9.349  18.465   5.331 -0.1909 -0.4184  0.3418
 7354W        W23488  10.662   5.699   4.647 -0.2506 -0.0622 -0.1844
 7355W        W23489   3.955  13.095   4.114 -0.1183 -0.0985 -0.3424
 7356W        W23490  17.968   0.899  12.660  0.3198 -0.0720 -0.0980
 7357W        W23491   6.768   0.714   4.554 -0.3176 -0.3114  0.1996
 7358W        W23492  13.156   8.750   3.476 -0.1458  0.3403 -0.0274
 7359W        W23493   2.596  16.209  10.592 -0.1586  0.1796 -0.1084
 7360W        W23494   7.621   9.840   5.300 -0.2551 -0.3744  0.1791
 7361W        W23495  17.091  11.853   3.318 -0.0923  0.1456  0.1630
 7362W        W23496   0.265   6.829  11.906  0.2613 -0.0613  0.3778
 7363W        W23497  13.568   0.310   4.372 -0.3399 -0.0199 -0.0449
 7364W        W23498   6.024   9.333   3.531 -0.2536  0.0583  0.2178
 7365W        W23499  19.268  12.341  13.359 -0.0023  0.1942  0.2398
 7366W        W23500  15.459  12.678   9.441  0.1262 -0.0730 -0.3437
 7367W        W23501  17.104  16.078   5.870  0.4552  0.0378  0.0061
 7368W        W23502  13.945  13.611   4.241  0.0662  0.2343  0.3080
 7369W        W23503   9.955   7.162  13.138 -0.0003  0.1634 -0.0705
 7370W        W23504  14.807   4.028  14.714 -0.2453 -0.0745  0.1067
 7371W        W23505  18.195   1.725  14.169 -0.3793 -0.0569 -0.1846
 7372W        W23506  15.477   1.197   4.825  0.1528 -0.0934 -0.0524
 7373W        W23507  18.603   5.876  13.203 -0.2945  0.0250  0.2073
 7374W        W23508  11.019   9.565   0.241  0.0764 -0.1478 -0.1958
 7375W        W23509  14.008   0.316   3.379 -0.0178 -0.1914  0.0620
 7376W        W23510   6.567   5.985  10.242 -0.1764 -0.0046 -0.2869
 7377W        W23511   9.778  16.134  12.729  0.2743 -0.0704 -0.1819
 7378W        W23512  10.519   7.698   2.892  0.0901 -0.1657  0.0720
 7379W        W23513  11.997   7.135  14.881 -0.0674  0.1041 -0.1513
 7380W        W23514   1.250  17.324   9.693  0.1398  0.0902 -0.1416
 7381W        W23515   1.275  10.318   2.374  0.4009 -0.0229  0.0349
 7382W        W23516  14.782   1.452  13.310 -0.2289 -0.0253  0.0856
 7383W        W23517  18.827  16.663  13.318 -0.0145 -0.1451 -0.1336
 7384W        W23518   9.552  14.062  13.395  0.1077  0.3177 -0.1280
 7385W        W23519   0.800   1.860  13.354 -0.0602  0.0069  0.4588
 7386W        W23520  10.922   5.722   3.330 -0.0300  0.0929 -0.1134
 7387W        W23521  11.432   8.700   4.027 -0.3672 -0.0498 -0.2207
 7388W        W23522   5.081   1.431   4.513  0.2669  0.0220 -0.0483
 7389W        W23523   7.829   1.453  13.339 -0.0652  0.1317  0.1887
 7390W        W23524   8.011   9.382  13.989  0.0713 -0.1772  0.1797
 7391W        W23525  14.289  15.527  12.336 -0.1593 -0.1682  0.2031
 7392W        W23526   3.257   6.739   3.892 -0.0012 -0.1938 -0.1595
 7393W        W23527  16.029  18.755   5.570  0.0466 -0.0012 -0.2325
 7394W        W23528   6.116   3.545   0.925  0.0177  0.0245 -0.2029
 7395W        W23529  17.864   6.658  10.961  0.2820  0.2824  0.0540
 7396W        W23530   3.431  19.177  11.512 -0.0688 -0.4038  0.0608
 7397W        W23531   1.998   9.194  11.300  0.2883 -0.5049  0.0235
 7398W        W23532  13.288  17.332   2.193  0.0460 -0.2295 -0.4185
 7399W        W23533   8.603   4.535   2.077 -0.2439  0.0961  0.1478
 7400W        W23534   4.873   6.793   3.136 -0.0673  0.1350  0.0808
 7401W        W23535   6.921  11.578  11.630 -0.0176  0.3599  0.4213
 7402W        W23536   5.255  13.941  13.671 -0.1602 -0.0948 -0.2882
 7403W        W23537  15.712  12.733   1.737 -0.1212  0.2448  0.0083
 7404W        W23538   9.570  18.568  12.519 -0.1068 -0.1701 -0.1631
 7405W        W23539  10.810  10.724   2.169  0.0930  0.0383  0.0682
 7406W        W23540  16.963   2.468   3.964  0.0522 -0.2079 -0.2200
 7407W        W23541   8.792   3.861   0.156  0.1268 -0.2272  0.1470
 7408W        W23542   3.965   6.462   3.054 -0.2494 -0.1192 -0.1228
 7409W        W23543  13.692  17.041   2.092 -0.1504 -0.0968 -0.2196
 7410W        W23544  16.103   1.032   1.126  0.0354  0.1963 -0.0640
 7411W        W23545   5.076  10.461   1.769  0.0061  0.0042 -0.0361
 7412W        W23546   3.882   6.087   3.412  0.0141 -0.0001  0.0534
 7413W        W23547   5.514   8.740  12.153 -0.1512  0.0613  0.2453
 7414W        W23548  16.697  19.174   0.797  0.0732 -0.1711 -0.1560
 7415W        W23549  11.953  13.680   1.752  0.0561  0.0083  0.2435
 7416W        W23550  14.266   9.329   2.321 -0.0424 -0.0012 -0.0853
 7417W        W23551  18.418  14.035  14.332 -0.1480  0.0004  0.0749
 7418W        W23552  18.388  19.310   3.179 -0.2933  0.3537 -0.5195
 7419W        W23553   6.571  13.552  11.287  0.2566 -0.1342 -0.0505
 7420W        W23554   3.222   9.689  14.262  0.0291  0.1469  0.6063
 7421W        W23555  13.681   5.436  10.644 -0.2572  0.0515  0.1980
 7422W        W23556   4.088  16.474  13.083 -0.1993  0.2831 -0.1019
 7423W        W23557   0.596  11.255   3.324  0.1221 -0.2670  0.1350
 7424W        W23558  14.916  15.004   2.042 -0.1224 -0.0549  0.1640
 7425W        W23559   1.066  17.900   0.969 -0.2678  0.0646 -0.1046
 7426W        W23560  18.513  10.300   2.802 -0.0288  0.1438 -0.0914
 7427W        W23561  15.996   1.754   1.974 -0.0369  0.3222  0.1468
 7428W        W23562   6.279   0.991   5.679  0.0573  0.2062 -0.3177
 7429W        W23563  14.599   5.160  12.348  0.1452  0.2104  0.0353
 7430W        W23564   6.073   0.409   1.123  0.1426 -0.3001 -0.0562
 7431W        W23565  18.376  11.136   1.741 -0.0895 -0.2411  0.5376
 7432W        W23566  10.785   3.017   4.090 -0.0027  0.0468  0.2121
 7433W        W23567   5.882  13.067  14.525 -0.0494  0.0245 -0.0109
 7434W        W23568  16.009   6.435  12.362 -0.5034  0.0809 -0.1296
 7435W        W23569   6.952  12.645  11.730 -0.1602 -0.2537 -0.0962
 7436W        W23570  11.323   0.517  11.765 -0.2251 -0.0867  0.0644
 7437W        W23571  16.230   3.691  12.209 -0.0235  0.0808 -0.0328
 7438W        W23572  10.756  12.373   1.196 -0.3171 -0.3035  0.2186
 7439W        W23573  17.775  15.787  11.953 -0.0359  0.0009 -0.0757
 7440W        W23574  11.930   7.162  12.984  0.0946  0.1477 -0.0400
 7441W        W23575   3.301  19.099   5.259 -0.0694  0.0091  0.2055
 7442W        W23576  10.316  14.656  10.214  0.4075  0.0519 -0.1730
 7443W        W23577   2.928   1.549   3.195 -0.0943 -0.0293 -0.2086
 7444W        W23578  15.686   3.187  13.923  0.1344 -0.0651 -0.3262
 7445W        W23579  18.790  18.180   5.198 -0.0413  0.2562  0.0486
 7446W        W23580   1.967   6.419   1.565 -0.2951 -0.0257 -0.1806
 7447W        W23581   9.317  18.694   0.702  0.1004  0.0119 -0.2706
 7448W        W23582   5.929  10.229   0.189 -0.2222 -0.4720 -0.1721
 7449W        W23583   1.535  11.113  14.138 -0.2386 -0.2310  0.0453
 7450W        W23584   3.109  12.590  13.495 -0.1695 -0.0524  0.0536
 7451W        W23585   4.129   1.904  14.485 -0.3172  0.1360 -0.3416
 7452W        W23586   6.173  15.347   0.861  0.0217 -0.1489 -0.1621
 7453W        W23587   6.710  16.154   3.212 -0.1726 -0.1976  0.1988
 7454W        W23588   9.475  13.550   5.522  0.1811  0.4491  0.0603
 7455W        W23589   5.072   6.023  14.672 -0.0463 -0.0620  0.0031
 7456W        W23590   4.316  18.172  11.834 -0.5096 -0.0484 -0.0429
 7457W        W23591  10.652   1.143  11.247 -0.1199  0.1256 -0.2672
 7458W        W23592   5.849   7.551   5.023  0.4012 -0.1824 -0.1489
 7459W        W23593  11.023  12.605  13.198  0.0555  0.1097  0.0892
 7460W        W23594  11.504   8.462  10.379  0.1645 -0.0940 -0.0163
 7461W        W23595   4.852   2.110  14.801  0.3752 -0.2242 -0.0753
 7462W        W23596   1.243  15.316  12.111 -0.0477 -0.2003 -0.0668
 7463W        W23597   2.381  11.459   2.232 -0.1931  0.0899 -0.0755
 7464W        W23598   2.159   5.392   1.239 -0.0188  0.0109 -0.2715
 7465W        W23599  16.501   2.233   3.909  0.1948 -0.2576  0.1657
 7466W        W23600  12.759  14.507  10.668  0.0187  0.0142 -0.2244
 7467W        W23601   5.933   7.812  13.924 -0.0423 -0.1078  0.0533
 7468W        W23602  12.954  10.314   1.617  0.0952  0.1053 -0.0840
 7469W        W23603  17.048   1.242  14.327  0.1971 -0.0958 -0.1525
 7470W        W23604   0.268   9.168  11.492  0.2673 -0.1526  0.0532
 7471W        W23605  11.399   3.271   0.770  0.1330 -0.2476  0.1928
 7472W        W23606   2.784  12.206   1.107 -0.1522 -0.0604 -0.2426
 7473W        W23607   5.448  17.109  11.518 -0.1357  0.0090 -0.2386
 7474W        W23608  11.109  12.332  12.092  0.1294  0.0932 -0.2282
 7475W        W23609   6.343   4.803   2.227 -0.0972 -0.0335 -0.1261
 7476W        W23610   8.099   6.572  13.124 -0.2373 -0.1352 -0.1272
 7477W        W23611   0.406  18.119  11.632  0.4313  0.2190  0.2514
 7478W        W23612  16.274   6.453   0.687  0.2215 -0.2476  0.0370
 7479W        W23613   2.958  14.904  13.039  0.2216 -0.1470  0.3240
 7480W        W23614  14.046  13.303   1.388 -0.1503  0.1618  0.2129
 7481W        W23615  12.511  10.486   0.781  0.0761  0.0144 -0.0509
 7482W        W23616   6.166   7.840  11.944  0.0875 -0.1646 -0.0099
 7483W        W23617  12.428  17.894  11.717  0.1110 -0.0940 -0.1991
 7484W        W23618   2.538  18.315  10.691 -0.0049  0.1879 -0.2802
 7485W        W23619  14.667   8.563   0.064  0.2213  0.2323  0.3234
 7486W        W23620   9.781  14.635   1.457 -0.2185 -0.2264  0.1239
 7487W        W23621  14.375  11.587   4.590 -0.1700  0.1474  0.2777
 7488W        W23622   4.246  16.414   5.996 -0.1665 -0.1657  0.2168
 7489W        W23623  17.654  15.241  11.714  0.2741 -0.2130  0.2252
 7490W        W23624   2.643   1.475  11.452 -0.1314  0.0980  0.2968
 7491W        W23625   7.373  10.519   1.419 -0.1542  0.0075 -0.0210
 7492W        W23626   8.323  11.851   9.768 -0.1852 -0.0891 -0.1783
 7493W        W23627  15.288  11.466   4.332 -0.1298  0.1172  0.1270
 7494W        W23628   8.229   7.481  11.760  0.0053 -0.1240 -0.0433
 7495W        W23629   1.576   7.223   2.635  0.1540 -0.1661  0.1720
 7496W        W23630  12.969   5.749   3.044 -0.0516 -0.1975 -0.3149
 7497W        W23631  10.003  10.383  10.653 -0.0897 -0.1789 -0.1878
 7498W        W23632  18.359   6.353  10.888  0.0505 -0.2108  0.1923
 7499W        W23633   0.268  10.599  12.517  0.0507  0.1113  0.1506
 7500W        W23634  16.484   5.992   4.000 -0.0901 -0.0695 -0.2088
 7501W        W23635   6.408   8.295  13.693 -0.1385 -0.3838  0.1874
 7502W        W23636  17.143   0.633  11.086  0.1412  0.1264 -0.0285
 7503W        W23637   4.196   5.701  11.615 -0.4078 -0.2187 -0.0857
 7504W        W23638  14.624  10.610  11.952 -0.0048  0.0378 -0.1469
 7505W        W23639  13.397   4.109   3.804 -0.0164  0.0575  0.3421
 7506W        W23640  15.572  14.526   0.112 -0.1750  0.1635 -0.2822
 7507W        W23641   3.669   9.569  14.105  0.2561 -0.3971 -0.2843
 7508W        W23642  16.027  17.355  11.374 -0.1393  0.0690 -0.0397
 7509W        W23643   8.286  18.621  12.115  0.1180 -0.2720 -0.1228
 7510W        W23644   4.773  13.926  12.810 -0.2155  0.0453  0.2509
 7511W        W23645   3.919  10.706   0.866  0.0585 -0.1785  0.2545
 7512W        W23646   8.521   3.656   2.348 -0.1637 -0.1047  0.0525
 7513W        W23647   5.158   4.145  11.041  0.0898  0.1892 -0.1501
 7514W        W23648  10.742   8.615  12.696  0.2933  0.1984  0.0642
 7515W        W23649   3.205   6.623   9.598  0.1157  0.1140 -0.1297
 7516W        W23650  12.518   7.906   3.607  0.0593  0.2568  0.1087
 7517W        W23651   6.618  10.635   2.955 -0.2529  0.1774  0.0152
 7518W        W23652   7.348  12.604  10.784 -0.1452  0.1225 -0.3024
 7519W        W23653  17.226   4.136  10.306 -0.1316  0.0930  0.0970
 7520W        W23654   1.506   7.212  14.031 -0.1169 -0.1139  0.0561
 7521W        W23655   2.826   1.015  11.774  0.1613  0.1935 -0.0338
 7522W        W23656   4.606   7.344  11.200 -0.1933 -0.0100  0.0742
 7523W        W23657  13.784   9.876   0.768  0.0100 -0.2084  0.0871
 7524W        W23658   4.189  13.925   5.869  0.2910  0.0549  0.1541
 7525W        W23659  12.066   1.712  11.297 -0.0923  0.1119 -0.0460
 7526W        W23660   7.239  10.276   0.456  0.1546 -0.0763 -0.0736
 7527W        W23661  12.207   0.428   2.437  0.0015  0.2134 -0.0038
 7528W        W23662  17.266   6.098   4.335 -0.2071  0.1648 -0.2866
 7529W        W23663   4.153   4.203   1.486 -0.2192  0.0243 -0.0298
 7530W        W23664   6.338  10.487   4.094 -0.3325  0.0519 -0.0820
 7531W        W23665   7.511   9.472   1.630 -0.1931  0.0169 -0.1116
 7532W        W23666   7.486  18.317   2.756 -0.5339  0.2359 -0.0890
 7533W        W23667  19.138  18.748  10.629  0.1509 -0.0973 -0.2987
 7534W        W23668  12.144  16.252   1.485  0.1279 -0.0134 -0.1143
 7535W        W23669   3.008   3.531  10.549 -0.1102  0.0753  0.2758
 7536W        W23670   8.755  17.110  14.257  0.1045 -0.0312  0.0694
 7537W        W23671   6.889  18.297   4.411 -0.1726  0.0015  0.1781
 7538W        W23672   1.568   2.124  11.825  0.0495 -0.0038  0.0221
 7539W        W23673  18.246   8.841   0.930  0.0401  0.0016 -0.2401
 7540W        W23674   7.220   6.867  12.899 -0.1868  0.3972 -0.2832
 7541W        W23675  15.047   0.691   5.737  0.0485 -0.0497  0.0759
 7542W        W23676   0.437  17.920   2.827  0.0487  0.0607  0.1445
 7543W        W23677   9.784   4.427  14.779  0.4581 -0.3617 -0.0002
 7544W        W23678   8.111  16.780  12.013 -0.0880  0.1481 -0.2629
 7545W        W23679  16.897  18.239   4.961  0.2045  0.1785 -0.0490
 7546W        W23680  12.761  11.741   5.872  0.0022 -0.3119 -0.0675
 7547W        W23681  11.218  11.221  14.192  0.3768  0.0041 -0.2347
 7548W        W23682  10.196  14.190  12.375 -0.1930  0.0627 -0.0462
 7549W        W23683   3.851   8.009   2.165 -0.3944  0.1474 -0.1048
 7550W        W23684  14.009   3.516   5.446  0.3023  0.3617  0.1766
 7551W        W23685   0.984  16.395  13.570  0.0469  0.1316 -0.1370
 7552W        W23686  13.915  17.576   3.417  0.2142 -0.0587 -0.0346
 7553W        W23687  12.066   2.494   2.541  0.2586  0.0345 -0.0491
 7554W        W23688  17.720   3.567  14.533  0.1751 -0.2800  0.0147
 7555W        W23689   5.717   0.120  11.530 -0.0563  0.0553 -0.3484
 7556W        W23690   5.314   4.225  11.691 -0.0180 -0.2070  0.1788
 7557W        W23691  18.063   8.221   4.611 -0.0509  0.1366 -0.0507
 7558W        W23692  18.294  18.131  10.945  0.1854 -0.0679  0.1234
 7559W        W23693   7.154   8.262  11.381  0.0958 -0.0863 -0.0234
 7560W        W23694  11.412   4.039  14.947 -0.0295 -0.0408 -0.3138
 7561W        W23695   0.559  13.840   4.098 -0.1103 -0.2071  0.1533
 7562W        W23696   4.138  19.222   3.497 -0.1883 -0.1753 -0.0212
 7563W        W23697   6.535  15.438  11.441  0.1555 -0.0101 -0.2094
 7564W        W23698   5.571  17.771  13.599  0.1736 -0.1547 -0.1703
 7565W        W23699   8.826  16.581   4.431  0.1486  0.1306 -0.1256
 7566W        W23700  14.242  16.825  12.270  0.1016 -0.0775 -0.1966
 7567W        W23701   0.017   3.346  14.889  0.5400 -0.0847  0.1047
 7568W        W23702   8.812   0.971  11.263  0.0057 -0.1866  0.0552
 7569W        W23703   1.830   2.783   1.527 -0.0405 -0.3710  0.1578
 7570W        W23704  14.946  16.792  13.952  0.1954  0.1338 -0.2544
 7571W        W23705  17.626   7.593  12.473 -0.0809  0.2756  0.0319
 7572W        W23706   3.315  14.277  13.613 -0.1833 -0.2790 -0.0968
 7573W        W23707   8.548  15.526  13.360  0.2722  0.1718 -0.1419
 7574W        W23708   5.527   9.686  12.413  0.0382 -0.1771  0.3011
 7575W        W23709   1.483   1.386   1.472  0.2786 -0.1345  0.2155
 7576W        W23710  16.692   6.496   1.097  0.0864 -0.1637  0.1770
 7577W        W23711  14.501   7.670  11.836 -0.1993 -0.0710 -0.3100
 7578W        W23712  12.769  18.995  11.529 -0.0434 -0.0060  0.0782
 7579W        W23713   8.654   2.820   2.497 -0.3507 -0.1808  0.1759
 7580W        W23714   4.358   3.630   0.388  0.0352  0.2142 -0.3356
 7581W        W23715  10.576   3.992   1.231  0.1273  0.3130 -0.1349
 7582W        W23716  17.943   4.168   0.729  0.0591  0.0400  0.1002
 7583W        W23717  18.711  18.078   1.279 -0.0107  0.0217 -0.1386
 7584W        W23718   9.101   6.419  11.084  0.0352 -0.1502 -0.0180
 7585W        W23719   9.536  15.322  11.229 -0.1668 -0.1310  0.1236
 7586W        W23720  17.212   4.904   2.336  0.2817 -0.0650 -0.2009
 7587W        W23721   4.259   3.175   3.762 -0.0082  0.2733 -0.3932
 7588W        W23722   5.879  16.191   3.573  0.1262  0.2609  0.1191
 7589W        W23723   4.325  14.092  11.113 -0.0383  0.0411  0.1314
 7590W        W23724  18.245   5.069  10.130  0.0490 -0.1411  0.1839
 7591W        W23725  13.670  11.964  14.036  0.0514 -0.2573 -0.2689
 7592W        W23726  13.561   5.593  13.689 -0.2413 -0.1031  0.0574
 7593W        W23727   3.781   5.359  11.456 -0.2460 -0.2890  0.2283
 7594W        W23728   9.590  11.764   3.214  0.1801  0.2915  0.0357
 7595W        W23729  15.297  19.220   1.419 -0.2068  0.2212 -0.1655
 7596W        W23730  12.175  14.954   2.772  0.0191  0.1583 -0.0103
 7597W        W23731   7.994  12.174  11.265  0.0110  0.2227  0.0263
 7598W        W23732  16.214   2.722   5.233 -0.1698  0.1457 -0.0910
 7599W        W23733  10.261  13.711   5.476 -0.0356 -0.0392 -0.0166
 7600W        W23734  14.427   9.581   4.496 -0.1310  0.0167  0.3319
 7601W        W23735  10.788  14.153   4.475  0.0032 -0.1483  0.2754
 7602W        W23736   4.439   2.582  10.922  0.0894  0.2305  0.3628
 7603W        W23737   2.357   9.404   2.092  0.3070  0.1862 -0.1629
 7604W        W23738  15.961   0.917  11.564  0.2102 -0.1638 -0.1894
 7605W        W23739  19.255   8.588  13.427  0.0336  0.2666  0.3701
 7606W        W23740  15.103   3.273  13.198  0.1164  0.1911 -0.2494
 7607W        W23741   6.498  12.869  11.957  0.2743 -0.0128  0.2381
 7608W        W23742   4.424   4.518   0.078  0.0146  0.0519 -0.0951
 7609W        W23743   7.609   7.205   4.350  0.0014  0.0914 -0.0579
 7610W        W23744  18.718   6.322  10.461 -0.0505  0.0929 -0.0235
 7611W        W23745  10.284  10.967   3.359  0.2453  0.2848 -0.3341
 7612W        W23746   6.221  10.730   5.519  0.2791  0.1199 -0.1800
 7613W        W23747   1.956  11.056  11.828  0.0741  0.1240  0.0907
 7614W        W23748  11.082  14.237   5.315  0.0121  0.1621  0.1696
 7615W        W23749  16.332   0.476  10.444 -0.0169  0.1940 -0.0942
 7616W        W23750   4.172   3.604  12.974  0.2191  0.0204 -0.0683
 7617W        W23751  18.183   0.068  11.476 -0.0440  0.1935  0.2708
 7618W        W23752  10.662  11.221   2.015  0.0059  0.2787 -0.0167
 7619W        W23753   4.545   7.369   9.564  0.0057 -0.0887  0.5905
 7620W        W23754   7.258   4.708   0.650 -0.1748  0.3601 -0.0392
 7621W        W23755   8.157  13.462   0.619 -0.0581 -0.1703 -0.3069
 7622W        W23756   9.286   4.663  10.709 -0.1321 -0.0480 -0.0561
 7623W        W23757   9.565  15.998   2.050  0.3325  0.0205  0.1574
 7624W        W23758   0.704   8.238   3.919 -0.2642 -0.3005  0.1494
 7625W        W23759   5.588  15.959   2.580 -0.0338  0.1031  0.1882
 7626W        W23760   9.324  17.224  12.385 -0.0923  0.0800 -0.0969
 7627W        W23761   3.243   4.187   2.132  0.0765 -0.0746 -0.3985
 7628W        W23762   5.158  13.766   2.263  0.2135  0.2302 -0.2999
 7629W        W23763   7.805   0.514  11.369  0.0013 -0.0668  0.0033
 7630W        W23764   1.437  18.315   9.708  0.0815 -0.1842  0.1834
 7631W        W23765  11.308   7.043   3.296 -0.0806 -0.0044  0.1109
 7632W        W23766   4.083  13.097  10.778  0.0908 -0.0089 -0.1563
 7633W        W23767   6.239   0.536   4.672  0.1583  0.2503  0.0142
 7634W        W23768   5.762   2.556   2.208 -0.0217  0.0047 -0.1554
 7635W        W23769   7.456   2.259   3.160 -0.0331 -0.0910 -0.1492
 7636W        W23770  18.458  14.777  14.172 -0.1781 -0.2475 -0.1861
 7637W        W23771  14.830   1.857   3.359 -0.3649  0.0352 -0.1806
 7638W        W23772  11.266   4.239   3.363 -0.0772  0.2548 -0.2084
 7639W        W23773   4.146   2.265  14.145  0.0387 -0.0738 -0.0049
 7640W        W23774   3.689   0.039   1.354  0.1396 -0.0443 -0.2039
 7641W        W23775  17.623   1.773  12.353  0.0202  0.0009  0.1146
 7642W        W23776  18.181   6.538  10.072 -0.2908 -0.0629  0.0500
 7643W        W23777  13.562  14.648  12.891  0.1640 -0.1718  0.0493
 7644W        W23778  14.894  18.635   1.217  0.0667  0.0143  0.2292
 7645W        W23779  14.135  14.651  13.554  0.0521 -0.6252  0.4303
 7646W        W23780  14.495  16.947  14.137 -0.1196 -0.0376 -0.2243
 7647W        W23781  17.073  13.543   0.327  0.1903  0.1069  0.1204
 7648W        W23782   4.265  19.255  12.592  0.3043  0.3079  0.2233
 7649W        W23783   1.601  13.696   3.761  0.2665 -0.2779  0.1159
 7650W        W23784  18.748   6.792  13.634  0.0544 -0.0139 -0.0340
 7651W        W23785   0.629  17.196  10.866  0.1275  0.1164  0.0053
 7652W        W23786  17.368  11.197   0.372 -0.2937  0.0242 -0.0169
 7653W        W23787   7.690   1.801   2.157 -0.1625 -0.0695 -0.0114
 7654W        W23788  14.237  12.347   2.795 -0.1704  0.1741  0.2574
 7655W        W23789  13.400  15.227  13.445  0.0945  0.0856 -0.1980
 7656W        W23790   0.189   0.436  11.485 -0.1638 -0.0285  0.1909
 7657W        W23791  16.733  12.521   1.183 -0.1898  0.1078  0.1361
 7658W        W23792   2.803  16.417  11.053 -0.0503  0.0545  0.2877
 7659W        W23793  19.102   8.277   0.883  0.0424  0.2808  0.6223
 7660W        W23794   1.566  11.792  12.180 -0.0789  0.1881 -0.1526
 7661W        W23795   1.422  14.772   4.672 -0.0028  0.1683  0.0256
 7662W        W23796   3.679  12.096   0.736  0.1568  0.2288  0.4763
 7663W        W23797   9.642   2.643  13.017  0.0034 -0.1694  0.0996
 7664W        W23798  13.963  10.085  10.836 -0.3233  0.1657 -0.3720
 7665W        W23799  12.178  18.204   2.512 -0.0359 -0.1093 -0.2602
 7666W        W23800  18.518  17.074  11.951  0.1819 -0.0415  0.1904
 7667W        W23801   4.625  16.121  14.651  0.1840  0.0977 -0.1357
 7668W        W23802  17.965  12.551   4.437  0.1380  0.2678 -0.1481
 7669W        W23803  17.413   7.480  13.425  0.1157  0.0439  0.1150
 7670W        W23804   3.190  12.825   1.911 -0.6060  0.2134 -0.2322
 7671W        W23805   7.777  11.449   1.309  0.1271  0.3765  0.1346
 7672W        W23806  17.436   6.080   1.833  0.1707 -0.1423 -0.2072
 7673W        W23807  14.368  18.528   4.548 -0.0859 -0.0853  0.0478
 7674W        W23808   1.674   7.807   2.527 -0.3438  0.1138 -0.0763
 7675W        W23809   6.895   0.553   3.848  0.2575 -0.4131  0.1766
 7676W        W23810  15.175   0.695  12.243  0.0121  0.1663 -0.0688
 7677W        W23811   2.744   5.744   4.348 -0.3280 -0.0259  0.2097
 7678W        W23812   3.267   1.765   2.955  0.0262 -0.0330 -0.0950
 7679W        W23813   3.447   5.971  11.001  0.1904 -0.1890  0.1851
 7680W        W23814  15.120  14.381   2.875 -0.2389  0.1213  0.0635
 7681W        W23815  15.718   9.263  14.285  0.0310  0.0954 -0.2953
 7682W        W23816  13.153   1.997  13.980 -0.0593 -0.2739 -0.3237
 7683W        W23817  18.591   6.632  12.231  0.1202 -0.0022 -0.2667
 7684W        W23818  17.932  14.645  14.810 -0.1436 -0.0735 -0.0728
 7685W        W23819  14.871  13.996   3.577 -0.0959  0.1505  0.3123
 7686W        W23820  15.898  14.913  14.310  0.2095 -0.2604 -0.0178
 7687W        W23821   7.068   4.318   2.185 -0.2040  0.1477  0.2095
 7688W        W23822   6.891   0.802  12.500 -0.1023  0.0359  0.0085
 7689W        W23823  17.001  11.295   3.898  0.0842 -0.0457  0.0579
 7690W        W23824  11.868   7.520   2.588  0.1593  0.0051  0.0061
 7691W        W23825  10.591   0.450  14.804  0.0913 -0.1182 -0.0272
 7692W        W23826   8.681  12.141   2.192 -0.5089  0.2104  0.0471
 7693W        W23827   7.321  10.746  13.345 -0.2133  0.1173 -0.0996
 7694W        W23828  17.344   6.458   2.216 -0.2013 -0.1552  0.3344
 7695W        W23829   6.880   0.836  14.511  0.0223 -0.1002  0.2376
 7696W        W23830   3.307  14.141   4.058 -0.0990 -0.0562  0.0446
 7697W        W23831  11.660  18.791   3.404 -0.0560 -0.1137 -0.0000
 7698W        W23832  18.713   2.753  11.314  0.1745  0.1583 -0.1159
 7699W        W23833  19.090  12.114   0.881 -0.4844 -0.1320  0.3932
 7700W        W23834   9.640  16.895  14.735 -0.4391 -0.0707  0.3010
 7701W        W23835  11.258   3.545   5.281  0.3415  0.0964  0.1693
 7702W        W23836   0.136  10.874  14.331  0.0543  0.0008  0.2207
 7703W        W23837   8.882   0.902   4.806 -0.4129  0.0197 -0.5368
 7704W        W23838   4.213  15.859   1.541  0.3944  0.1641  0.1474
 7705W        W23839  18.059  13.040  12.763 -0.1651  0.2861  0.2517
 7706W        W23840   7.761  11.642  12.460 -0.2918 -0.2698  0.1695
 7707W        W23841   5.689   9.521  10.448  0.1185 -0.0152 -0.0257
 7708W        W23842   2.281   0.430   2.862 -0.2092  0.0483  0.1349
 7709W        W23843   0.180   2.552   2.631 -0.0893  0.0288  0.0402
 7710W        W23844  17.957   1.970  11.106  0.0550  0.0940 -0.2768
 7711W        W23845  13.683  15.776  12.965  0.4702 -0.0458  0.0065
 7712W        W23846   2.156   0.470  12.884  0.2514 -0.1149  0.0535
 7713W        W23847  14.881   6.840   3.840 -0.1518 -0.0082 -0.2365
 7714W        W23848   7.243   2.367   3.733  0.1580 -0.1524 -0.0465
 7715W        W23849  11.108  10.931   3.926 -0.1549  0.2733  0.1114
 7716W        W23850  10.735  13.049  13.616  0.1771  0.1057  0.0848
 7717W        W23851   3.267  19.053  13.902  0.0113  0.1806  0.1379
 7718W        W23852   7.759   1.407   5.172 -0.2570  0.1845  0.0325
 7719W        W23853   3.527   0.387  13.199  0.1672  0.0627 -0.0435
 7720W        W23854   2.357   6.920   0.687  0.2498  0.0996 -0.0890
 7721W        W23855  11.508  12.776  14.924  0.2203  0.0343  0.0217
 7722W        W23856   1.183  11.477  11.888  0.5704 -0.0405 -0.0325
 7723W        W23857  18.825  13.449   4.674 -0.3215  0.3528  0.1137
 7724W        W23858  12.863   1.606  14.580 -0.0711 -0.0291  0.1796
 7725W        W23859  11.746  17.215  10.945 -0.1951 -0.1753 -0.2300
 7726W        W23860  19.317  15.435  10.711 -0.2718 -0.0639  0.0603
 7727W        W23861  12.168  14.111  12.478 -0.3459 -0.0865 -0.1856
 7728W        W23862   7.128  12.814   9.970  0.2093 -0.2050  0.2688
 7729W        W23863   5.206  11.350  14.120  0.2116  0.3924  0.0381
 7730W        W23864  11.749   6.170  14.459  0.0577 -0.0356  0.1774
 7731W        W23865  12.815  12.647  13.815  0.0315 -0.0392 -0.2349
 7732W        W23866   5.013   4.501  14.484 -0.2028 -0.3056  0.1733
 7733W        W23867   9.609   0.981  10.884 -0.0173 -0.0905 -0.1575
 7734W        W23868   2.793   8.148  11.797 -0.2048 -0.1851 -0.2471
 7735W        W23869   1.386   2.290   0.228 -0.2528 -0.1075 -0.0260
 7736W        W23870   8.981   6.651   0.281 -0.0821 -0.1101  0.1378
 7737W        W23871  16.439   2.774   2.536 -0.1465  0.1504  0.0565
 7738W        W23872   3.062  15.127   5.548  0.1437  0.1432 -0.0097
 7739W        W23873   2.244   9.979  11.748 -0.3228 -0.0818 -0.1842
 7740W        W23874  14.979   5.445   2.304  0.1557  0.2672  0.1227
 7741W        W23875  17.709   1.515  14.268  0.2103  0.1381  0.2687
 7742W        W23876   9.807   5.563  11.699 -0.3805  0.0228 -0.4111
 7743W        W23877   4.183   7.870   1.657  0.0046  0.0006  0.1566
 7744W        W23878   0.157  18.485   2.891 -0.2692 -0.0987 -0.2144
 7745W        W23879   7.691  14.090  14.425 -0.0357  0.0082  0.0536
 7746W        W23880   0.953   6.131   2.283 -0.0467 -0.1431  0.0412
 7747W        W23881  13.017   4.329  12.738 -0.0653  0.0079  0.0257
 7748W        W23882   7.494  17.908  14.560 -0.0650  0.2963  0.0315
 7749W        W23883   0.072   6.917   3.930  0.1007 -0.2020 -0.0304
 7750W        W23884  12.377  12.490  13.860  0.4000  0.1314 -0.0213
 7751W        W23885  18.946  15.034  10.322 -0.0890  0.2245 -0.1292
 7752W        W23886   9.426  15.753   4.058  0.0842 -0.0096 -0.3548
 7753W        W23887  16.572  14.550   2.934  0.1259  0.1386 -0.4007
 7754W        W23888   2.994  12.193   0.341 -0.2322  0.3026  0.0745
 7755W        W23889   6.714   5.044  14.544  0.0313 -0.0808  0.1337
 7756W        W23890   6.444   8.468   4.416  0.4197  0.0340 -0.2531
 7757W        W23891   5.566   9.768   1.448 -0.0095 -0.2940 -0.0138
 7758W        W23892  15.872  15.865   4.584 -0.0697  0.0359  0.3554
 7759W        W23893   7.388   3.039  12.341  0.0459  0.0454 -0.2031
 7760W        W23894  13.538   7.510   3.694 -0.1636 -0.3589  0.0907
 7761W        W23895  14.302   8.373   2.568  0.0293  0.0685 -0.2799
 7762W        W23896   7.224  17.444  14.395 -0.2209  0.2365 -0.0758
 7763W        W23897   7.851  17.172   3.271 -0.0556 -0.1367 -0.3066
 7764W        W23898  17.900   6.693  13.578  0.4114 -0.2353 -0.0538
 7765W        W23899   1.461   5.705   8.973  0.1172 -0.0200  0.1025
 7766W        W23900  14.792  10.490   3.709 -0.2068  0.1777  0.0793
 7767W        W23901  16.404  12.330   3.544  0.2191 -0.1593  0.3682
 7768W        W23902  17.369  17.291  14.361  0.0161 -0.0613 -0.1128
 7769W        W23903  12.407  11.785   0.250 -0.0837  0.2828 -0.0757
 7770W        W23904  17.727   1.541  11.404 -0.0025 -0.0791  0.0437
 7771W        W23905   7.301   0.595  12.856  0.0464  0.2793 -0.0723
 7772W        W23906   1.526  11.827   3.171 -0.0375  0.0537  0.0950
 7773W        W23907   0.922  10.360  11.264  0.1892 -0.2740 -0.1719
 7774W        W23908  11.844   4.827   2.127 -0.2375  0.2205 -0.1087
 7775W        W23909   3.357  10.841  13.875 -0.2234 -0.1378 -0.1831
 7776W        W23910  15.730  12.334  14.703  0.0041  0.0543 -0.0067
 7777W        W23911  10.759  13.073   0.961 -0.0965 -0.2290  0.0292
 7778W        W23912   5.203   7.627   2.774  0.1452 -0.0733 -0.2315
 7779W        W23913  15.736   6.008  12.003  0.0640  0.0408  0.1583
 7780W        W23914   4.979  14.697   5.778 -0.0413 -0.2050  0.0629
 7781W        W23915  11.579   4.474   0.096 -0.0124 -0.0797  0.0215
 7782W        W23916   5.525  18.394  11.233 -0.4667  0.0059 -0.0463
 7783W        W23917  13.126  12.794  12.094  0.0687 -0.0674 -0.0519
 7784W        W23918  13.571  14.387   3.520  0.1637  0.2225 -0.1684
 7785W        W23919   1.130  14.618  10.576 -0.1634 -0.1882 -0.3892
 7786W        W23920   9.957  16.535  14.515  0.1285 -0.2199 -0.0296
 7787W        W23921   6.538   0.759   0.499 -0.1202 -0.2481  0.0488
 7788W        W23922  12.425  18.516  13.980 -0.0816  0.3249 -0.2185
 7789W        W23923   0.385  11.837   3.191 -0.1017 -0.0899  0.1794
 7790W        W23924  15.250  16.263   0.709  0.0078  0.2050  0.2726
 7791W        W23925   1.175  18.466  11.586 -0.0490 -0.0481 -0.0017
 7792W        W23926   6.548   9.594  12.638  0.0753  0.1613  0.0803
 7793W        W23927  16.885  19.209   5.547 -0.0623 -0.2681 -0.0651
 7794W        W23928   8.544   6.424  11.021  0.1508  0.1385  0.3355
 7795W        W23929  13.459  17.488   4.099 -0.0526  0.4038 -0.1817
 7796W        W23930  15.555   4.153  10.808 -0.0001  0.2233 -0.1656
 7797W        W23931   1.002  13.757  13.979 -0.2041  0.2697 -0.0626
 7798W        W23932   2.864  10.597  14.053  0.0449 -0.2526  0.2642
 7799W        W23933  18.490   8.969   4.670 -0.0328  0.5439 -0.1791
 7800W        W23934   0.036  10.527  13.837  0.1250  0.0854  0.5563
 7801W        W23935  13.684  15.418  13.954 -0.0567  0.3529  0.3613
 7802W        W23936   7.964   6.980  10.934 -0.0140 -0.3697  0.0524
 7803W        W23937  13.250   9.077   4.010  0.0256 -0.0277  0.0786
 7804W        W23938   6.649   8.051  11.122 -0.1296  0.1075  0.0737
 7805W        W23939   0.767  14.054   0.195  0.1819 -0.1003  0.0314
 7806W        W23940  15.762  15.712  13.104  0.2305 -0.2672 -0.2920
 7807W        W23941   5.606   5.376   2.639 -0.3787 -0.0353  0.0392
 7808W        W23942   9.064   7.259  12.058 -0.2244 -0.0371  0.4105
 7809W        W23943   9.201  13.570  14.568 -0.0393 -0.1103 -0.1430
 7810W        W23944  14.470  13.967  14.618 -0.1930  0.0149  0.0531
 7811W        W23945   7.551  12.234  11.385  0.1431 -0.3731 -0.0504
 7812W        W23946   9.448  10.268   4.873 -0.2619 -0.2778 -0.0249
 7813W        W23947  19.054   6.619   3.707 -0.1883  0.1276  0.2098
 7814W        W23948  15.208   1.624   0.622 -0.0983  0.3532  0.0947
 7815W        W23949  12.912  18.520   3.683 -0.1432  0.0849  0.1335
 7816W        W23950  12.304  15.307   1.260  0.1465 -0.2207 -0.2389
 7817W        W23951   8.004   5.773  13.709  0.3495 -0.6276 -0.0162
 7818W        W23952   4.497   0.086   0.820 -0.1986  0.1260  0.1475
 7819W        W23953  16.997  15.653  14.209 -0.2404  0.2114 -0.2419
 7820W        W23954   6.091  13.910   1.222 -0.3328 -0.1695 -0.1345
 7821W        W23955   7.860  14.202   1.366  0.0124  0.1981 -0.2456
 7822W        W23956   3.495   2.559  14.257 -0.0051 -0.0770  0.1023
 7823W        W23957   0.860  12.865   2.308 -0.2008 -0.0770 -0.2308
 7824W        W23958  11.500  15.789   1.157  0.0356 -0.0942  0.1380
 7825W        W23959  16.269  19.052   6.463 -0.0896  0.1475  0.0071
 7826W        W23960  13.506   4.900   5.214  0.0818 -0.0886  0.2741
 7827W        W23961  14.519   3.431   5.545  0.2176 -0.1595 -0.2903
 7828W        W23962   0.042  13.100   1.204 -0.2217  0.1708  0.0839
 7829W        W23963   3.249  12.209  13.922 -0.2576 -0.0036 -0.0912
 7830W        W23964  12.043   8.619   2.565  0.2571 -0.4072  0.0184
 7831W        W23965   2.242   3.968   4.601 -0.1425  0.0087 -0.0798
 7832W        W23966  10.705  19.214  12.781 -0.0677 -0.1132  0.0296
 7833W        W23967  17.831   4.926   3.250  0.4022 -0.0030  0.1846
 7834W        W23968   4.145   9.296   4.926 -0.2475  0.0075 -0.0595
 7835W        W23969   2.791  17.890   0.291  0.0998  0.3612 -0.0938
 7836W        W23970  17.850  14.573  12.449  0.1220  0.0448  0.1572
 7837W        W23971  18.487  18.591  11.455 -0.0595  0.0758  0.0790
 7838W        W23972  12.088   6.586  14.936 -0.0296 -0.4275 -0.1231
 7839W        W23973   4.202  11.748  11.391 -0.3190  0.0647  0.0531
 7840W        W23974   4.228   1.137  11.874  0.1263 -0.0797 -0.0828
 7841W        W23975   5.807   8.731  12.857  0.0784  0.1851 -0.2475
 7842W        W23976  14.566  17.797  13.528 -0.1802 -0.1794 -0.3710
 7843W        W23977   4.193   7.972   0.186 -0.2881  0.1317  0.0542
 7844W        W23978   4.599  11.701  12.493  0.3228 -0.4980 -0.0423
 7845W        W23979  12.203   4.534   1.797 -0.2103  0.2457 -0.1936
 7846W        W23980  17.786  13.950  13.985  0.0146 -0.3545  0.0185
 7847W        W23981  11.111  15.722  13.655 -0.0476  0.1064 -0.1133
 7848W        W23982   0.105  13.798   1.475  0.0056 -0.1597  0.4052
 7849W        W23983   0.405  15.570   0.734 -0.0037  0.0206  0.1800
 7850W        W23984   5.923   1.554  11.213  0.2206  0.0628 -0.0377
 7851W        W23985  17.089   3.370  11.160  0.3491  0.1267 -0.0009
 7852W        W23986   6.230   2.548   1.440 -0.4116  0.1998 -0.2994
 7853W        W23987   3.514  17.594   2.715 -0.3076 -0.1481  0.4401
 7854W        W23988  18.182   6.133   2.653  0.0309 -0.1510 -0.1845
 7855W        W23989   7.862   0.864  12.391  0.1189 -0.0530  0.0243
 7856W        W23990   9.863  11.505   2.302  0.1070  0.0200  0.0370
 7857W        W23991   5.560   7.852  12.904  0.0869  0.0000  0.3728
 7858W        W23992  12.552   5.321  12.511 -0.0570  0.1202  0.0098
 7859W        W23993  14.907  11.590  13.743  0.1522 -0.2178  0.1812
 7860W        W23994   9.513   8.960   4.881 -0.0052 -0.0737 -0.0230
 7861W        W23995   6.794  12.306   2.031  0.1939 -0.1991 -0.0927
 7862W        W23996   1.534   9.331  13.623 -0.0190 -0.0072 -0.0431
 7863W        W23997  16.685   0.413   4.479  0.0585 -0.0992 -0.0668
 7864W        W23998  18.144   4.556   2.323  0.1558  0.2698 -0.1076
 7865W        W23999  18.491  16.339   4.710 -0.2152 -0.0487  0.1625
 7866W        W24000  10.753   2.413  12.957 -0.0258 -0.0311 -0.2702
 7867W        W24001   1.700   5.585  14.785 -0.0818  0.4823  0.0013
 7868W        W24002  17.890   1.358   2.196 -0.1104 -0.0881  0.0740
 7869W        W24003  10.055  16.709   0.428 -0.1614  0.1018  0.0928
 7870W        W24004   5.259  13.045  11.902 -0.2157  0.4297 -0.0851
 7871W        W24005  19.073   8.756   9.459  0.0157  0.3183 -0.4047
 7872W        W24006  16.749  15.133   3.264 -0.2807 -0.1901 -0.1831
 7873W        W24007   7.903  13.827  13.313 -0.1744  0.1392 -0.0752
 7874W        W24008   5.135   9.929   4.434 -0.4640 -0.1281 -0.3257
 7875W        W24009  16.204   3.758  11.322 -0.4270 -0.1568 -0.0742
 7876W        W24010   2.743   6.091  11.739  0.0331 -0.0018 -0.0740
 7877W        W24011  17.717  12.058  13.391 -0.0006  0.0724 -0.2069
 7878W        W24012  13.129   5.250   5.264  0.0817 -0.1643  0.0451
 7879W        W24013  10.823   9.134  12.525  0.2028 -0.1228  0.3991
 7880W        W24014  13.353  16.771   2.308 -0.0053  0.0429  0.1238
 7881W        W24015  11.771   3.621  11.770  0.0994  0.0412 -0.2354
 7882W        W24016   3.677   2.305   4.600 -0.0309  0.1711 -0.2131
 7883W        W24017  18.223  18.822  11.934  0.2543 -0.1140 -0.1641
 7884W        W24018   8.292   0.185   2.085 -0.3554  0.0060  0.0258
 7885W        W24019   1.586   5.371  12.445  0.3024  0.2184  0.0368
 7886W        W24020  10.336  13.054  13.983  0.0873  0.0766  0.3948
 7887W        W24021   9.918   1.564   1.781  0.0888  0.2385 -0.3238
 7888W        W24022   6.795  13.272   2.815 -0.2789  0.1097 -0.3045
 7889W        W24023   5.262   1.197  12.693  0.1989  0.0247  0.0936
 7890W        W24024   3.076   8.701   3.688  0.2173  0.3364  0.2968
 7891W        W24025   9.772  12.012  13.419  0.1560  0.0005 -0.3121
 7892W        W24026  16.977  16.055   1.285  0.1270  0.2619 -0.0112
 7893W        W24027  14.175   6.367   3.252  0.1732 -0.1292 -0.2693
 7894W        W24028  18.194  11.283   4.538 -0.2661 -0.2102  0.3803
 7895W        W24029   8.206   9.124  13.070 -0.1755  0.2531 -0.1953
 7896W        W24030   5.974   3.692  14.925  0.0754  0.1542  0.0855
 7897W        W24031  18.606  19.266   1.058  0.2041  0.0299  0.0580
 7898W        W24032  16.709  12.356   2.268 -0.2749 -0.2002  0.3080
 7899W        W24033  16.524  11.828   9.872  0.0909  0.0192  0.1877
 7900W        W24034  10.643   0.496   5.832  0.0115 -0.2025 -0.0133
 7901W        W24035  12.765   1.531   2.276  0.0965  0.0105  0.3004
 7902W        W24036   3.784  10.016   2.083 -0.0217 -0.0771 -0.0892
 7903W        W24037   8.923   6.118  12.034  0.0820  0.0820  0.0838
 7904W        W24038   2.213   2.141   1.406 -0.0440  0.1546 -0.1052
 7905W        W24039   3.208  12.740   3.079  0.0334  0.0859  0.0565
 7906W        W24040  15.130  15.092  11.454  0.1101 -0.0817  0.3962
 7907W        W24041  14.004  17.436   2.038 -0.0844 -0.0370  0.1032
 7908W        W24042  13.522  11.393  13.972  0.0691  0.0876 -0.0350
 7909W        W24043   5.198  16.661  11.716  0.1124 -0.2061 -0.1434
 7910W        W24044  11.210  15.644   3.631  0.1825 -0.1311  0.0970
 7911W        W24045   8.446  12.723  13.621 -0.1697  0.2964 -0.2774
 7912W        W24046  16.822  17.283   3.310  0.0610 -0.1903 -0.0988
 7913W        W24047   1.870  16.269   2.164 -0.2362 -0.0069 -0.3625
 7914W        W24048  15.094   1.787   4.040  0.0396 -0.2494 -0.0066
 7915W        W24049  10.297   1.970   3.728 -0.0302  0.1217 -0.2352
 7916W        W24050  13.509   0.607  14.794 -0.0675  0.0696 -0.0617
 7917W        W24051   6.251  14.998   0.404  0.2170 -0.1225  0.1581
 7918W        W24052   2.066   3.101  12.172  0.1520 -0.3048  0.0416
 7919W        W24053  14.667  19.084   0.469 -0.1978 -0.1816 -0.0147
 7920W        W24054  12.560  16.523  14.809 -0.1533  0.1855 -0.0319
 7921W        W24055   4.505   3.025  12.172  0.1835  0.2408  0.0070
 7922W        W24056   3.376   1.658   4.037  0.0239 -0.3203 -0.0143
 7923W        W24057   5.018  10.890  14.286 -0.1057 -0.0650  0.0038
 7924W        W24058  18.699   6.048  11.248  0.0464 -0.4430 -0.1749
 7925W        W24059  18.573   1.986  13.207 -0.1561 -0.0048  0.2104
 7926W        W24060  13.684   4.112  11.065 -0.2237  0.1767  0.0770
 7927W        W24061  10.942   8.772   4.820 -0.0048 -0.0572  0.0645
 7928W        W24062   5.147  13.789   5.520  0.0565 -0.1232 -0.0834
 7929W        W24063   8.950   2.379   1.661 -0.3013  0.3978 -0.0191
 7930W        W24064   8.356   9.187  12.029 -0.0265 -0.1941  0.0819
 7931W        W24065   0.968   2.988   1.010 -0.2803  0.0474  0.1572
 7932W        W24066   0.385  10.660   1.251 -0.0254  0.1932 -0.3767
 7933W        W24067   3.981  14.777   2.704 -0.1116 -0.0927 -0.0633
 7934W        W24068   6.602  12.683   2.253  0.1016  0.2260  0.0669
 7935W        W24069   2.034  13.583  10.952  0.0088  0.3527 -0.1936
 7936W        W24070  15.767  13.945   4.688 -0.0037 -0.2372 -0.3943
 7937W        W24071   4.606   7.245  12.875 -0.2712  0.1179 -0.0031
 7938W        W24072   2.797  11.758   2.613 -0.1021 -0.1331 -0.3574
 7939W        W24073  17.688  12.100  12.840  0.3584 -0.1212 -0.0251
 7940W        W24074   1.022   1.854  11.026  0.0358  0.1735  0.1805
 7941W        W24075  17.794   0.081   5.252  0.0145  0.0008  0.1851
 7942W        W24076   8.838  16.130   4.217  0.1976  0.2302  0.0663
 7943W        W24077  19.243  18.909   0.034  0.1005 -0.1757  0.1873
 7944W        W24078  18.346  19.060  11.114  0.3248  0.0862 -0.0759
 7945W        W24079  10.517   7.710  10.816 -0.3172  0.1031  0.1228
 7946W        W24080   4.963   9.604   2.654  0.0862  0.1223  0.3244
 7947W        W24081   5.285  11.607  12.334  0.4394 -0.1141  0.0939
 7948W        W24082   1.405   9.373  14.571 -0.1064  0.0235  0.1240
 7949W        W24083   6.709  12.932  14.152 -0.2006 -0.1945 -0.2672
 7950W        W24084  10.109  16.795   3.841 -0.0743  0.1328  0.1250
 7951W        W24085  16.660   7.702   0.548  0.2709  0.0722 -0.1298
 7952W        W24086  10.346  15.778  11.500  0.0719 -0.2378 -0.3047
 7953W        W24087  11.280  17.258   1.027 -0.2552 -0.0447 -0.1631
 7954W        W24088  13.973  19.322   4.267 -0.5040  0.1968  0.3875
 7955W        W24089  13.465  17.186  12.686 -0.1227  0.0173 -0.1426
 7956W        W24090   4.845   5.710  13.696  0.2248  0.0782 -0.0448
 7957W        W24091   3.945   9.919  12.143  0.2179  0.0062  0.1863
 7958W        W24092  12.530  11.298   2.936 -0.2174  0.3185  0.1759
 7959W        W24093  11.726   8.175   4.029  0.1800 -0.0714 -0.0470
 7960W        W24094   3.619   9.600   4.502  0.3105 -0.1884 -0.0909
 7961W        W24095  16.531  12.087  14.192  0.1167 -0.2550  0.0450
 7962W        W24096   7.676  14.598  12.618  0.0579 -0.0138  0.0865
 7963W        W24097   1.636  14.253   4.627  0.2443 -0.2652 -0.0466
 7964W        W24098  18.840   5.893  14.807  0.3452 -0.2044 -0.0566
 7965W        W24099   2.246  19.137   5.107  0.0889  0.2756 -0.0032
 7966W        W24100   6.540  10.498  13.808  0.0515 -0.2674  0.1135
 7967W        W24101   2.264  19.159  12.239  0.1178 -0.1507  0.1207
 7968W        W24102   7.462   5.642   2.410 -0.2253  0.4113 -0.3838
 7969W        W24103  14.100   4.397   2.985  0.1525 -0.2102  0.1156
 7970W        W24104   7.629   3.375  11.374 -0.2040 -0.3344  0.1312
 7971W        W24105   3.250   9.111   3.826 -0.0867  0.2398  0.1836
 7972W        W24106   0.765   2.980  11.348 -0.0254 -0.0212  0.0437
 7973W        W24107   9.607   8.435   3.520 -0.3091 -0.0280  0.0909
 7974W        W24108  11.451   2.043   3.216 -0.1904  0.1743 -0.2737
 7975W        W24109  11.619  15.914   2.129  0.0521 -0.1031 -0.0745
 7976W        W24110   2.008   9.022  14.426 -0.1607  0.2343 -0.1961
 7977W        W24111   4.254   7.768  10.581  0.1410 -0.0656  0.1499
 7978W        W24112  14.463  13.452   4.928  0.5766  0.0843  0.3816
 7979W        W24113   1.388   2.951   1.791  0.0632  0.1565  0.1763
 7980W        W24114  15.551   0.342   2.197  0.0698 -0.2518 -0.1729
 7981W        W24115  15.089  16.350   5.172  0.2221  0.4346  0.0601
 7982W        W24116   2.278   5.627   0.763  0.1359 -0.0758 -0.1215
 7983W        W24117   6.393   4.257  14.275  0.1426  0.1783  0.4198
 7984W        W24118   2.149   2.400  13.302 -0.2078  0.0839  0.1905
 7985W        W24119  11.940   3.673   2.036 -0.1536  0.3608 -0.1699
 7986W        W24120   8.305   2.755   3.467  0.0666  0.2497  0.1102
 7987W        W24121  12.814   1.077  13.060  0.0441  0.1776 -0.0058
 7988W        W24122   8.566  10.277   0.881  0.1726 -0.0150  0.0589
 7989W        W24123   9.896  14.858   2.193  0.0694  0.0469 -0.2798
 7990W        W24124  13.751  15.414  12.607 -0.1353 -0.0143  0.0622
 7991W        W24125   5.075   0.761  13.687  0.1249  0.0260  0.1211
 7992W        W24126  11.645   5.399   0.019  0.0314 -0.3831  0.4187
 7993W        W24127   1.776   7.965  10.955 -0.1542 -0.1103 -0.3364
 7994W        W24128  19.244   5.261   4.469 -0.2522  0.1017 -0.1911
 7995W        W24129  17.099   2.569  13.287  0.0213  0.0082  0.2150
 7996W        W24130   7.492  15.661  13.557 -0.4983 -0.1733  0.0369
 7997W        W24131  11.376  18.662  14.347 -0.1169 -0.2710 -0.2151
 7998W        W24132   7.463   7.824  12.813 -0.0374 -0.0370  0.1289
 7999W        W24133   1.203  17.430   3.127 -0.0610 -0.1270  0.2590
 8000W        W24134   0.368  13.208  12.075 -0.1089  0.1320  0.0763
 8001W        W24135  10.469  13.450   4.109 -0.2185 -0.1346 -0.0925
 8002W        W24136  11.042   3.999   0.884 -0.1079 -0.0918  0.1298
 8003W        W24137   7.175   3.860   0.218 -0.1661 -0.1019 -0.1351
 8004W        W24138  16.566   2.787  10.317  0.2059 -0.1691 -0.3505
 8005W        W24139  17.519  10.897  14.894 -0.1110 -0.1312  0.0854
 8006W        W24140  12.106   4.307   3.103  0.1103 -0.0316 -0.2226
 8007W        W24141   0.442   3.213  13.740  0.1933  0.0030  0.2652
 8008W        W24142  16.759  17.942   3.967 -0.0619 -0.0902  0.1383
 8009W        W24143  13.362   3.236   5.068  0.2582  0.0811 -0.2501
 8010W        W24144  12.105   2.715   4.928  0.0570  0.0437  0.1708
 8011W        W24145   5.426   5.822   1.449  0.4660 -0.0491 -0.0629
 8012W        W24146   5.912   6.544  11.817  0.1461 -0.2023  0.0552
 8013W        W24147   0.135   1.429  10.668 -0.1906 -0.1443 -0.1599
 8014W        W24148   7.706  12.663   3.469 -0.2763  0.0192 -0.4212
 8015W        W24149   6.846  16.926  13.032 -0.1850  0.3241 -0.1645
 8016W        W24150   6.686  15.253   0.307  0.1487  0.0356  0.3019
 8017W        W24151  17.187   5.855  13.932 -0.1369 -0.0072 -0.0338
 8018W        W24152   4.045   1.348  14.812 -0.3276 -0.2546 -0.0355
 8019W        W24153  14.429   0.297   3.654 -0.2543 -0.0885 -0.0297
 8020W        W24154   2.490  11.327  14.243  0.2026  0.1451 -0.1520
 8021W        W24155   3.817  16.182   3.019  0.1413  0.1209  0.0886
 8022W        W24156  12.697   3.321  11.080 -0.2644  0.0177  0.0760
 8023W        W24157  13.073  15.964  10.399  0.1022 -0.2841  0.0585
 8024W        W24158   5.887  16.566   4.943  0.1670 -0.1233  0.1223
 8025W        W24159   5.835   1.377   0.121 -0.2800  0.2590 -0.2322
 8026W        W24160   0.108   0.429  12.576 -0.1319  0.3145  0.2238
 8027W        W24161  13.506  11.691  11.419  0.1623 -0.1233 -0.0269
 8028W        W24162   1.666  13.468  14.656  0.2297 -0.0457  0.0199
 8029W        W24163   0.515   1.644   0.599 -0.0182 -0.1249  0.0348
 8030W        W24164   1.335   8.715   2.589  0.0393  0.0776  0.0178
 8031W        W24165  15.875   6.275  14.949 -0.0499 -0.0182  0.2558
 8032W        W24166  16.886  13.187  14.511 -0.4322  0.2585  0.0431
 8033W        W24167   5.161   1.701   0.102  0.2335 -0.0762  0.2567
 8034W        W24168   0.952  19.188   2.319  0.1539 -0.2385 -0.2287
 8035W        W24169   9.750  12.126   1.065 -0.0882 -0.1148  0.3414
 8036W        W24170   8.002   9.191   3.566 -0.0430 -0.2547 -0.1997
 8037W        W24171  15.377   2.719   0.013 -0.1014  0.3335 -0.1477
 8038W        W24172   5.295   7.191  10.495 -0.0644  0.0267  0.0698
 8039W        W24173  10.396   7.161   2.848  0.1508  0.1446  0.3979
 8040W        W24174   7.905   8.188  14.860  0.2196  0.0871  0.1743
 8041W        W24175   6.210  14.822  14.115 -0.0220 -0.2363 -0.2403
 8042W        W24176   3.020   4.643   4.536  0.1527  0.1628 -0.0759
 8043W        W24177   9.900  15.175  13.084  0.1325  0.1551 -0.4181
 8044W        W24178  15.457   4.288   0.486  0.2091  0.0453 -0.2996
 8045W        W24179   9.894   1.472  12.734  0.3646 -0.0849 -0.1890
 8046W        W24180  15.671  18.931   0.527 -0.3356  0.0559 -0.0344
 8047W        W24181   1.296  17.255   0.303  0.2032  0.1623  0.0400
 8048W        W24182  10.588   9.918   3.325 -0.0093 -0.1241  0.2061
 8049W        W24183   8.047  12.289  12.893  0.1301 -0.4555 -0.2078
 8050W        W24184  10.278  14.898  10.665  0.4376 -0.0431 -0.0045
 8051W        W24185   4.345  11.195   1.136  0.0891  0.2523  0.3118
 8052W        W24186  18.365  10.811  12.363 -0.3241  0.3165 -0.2248
 8053W        W24187  12.938   8.257   3.582 -0.1387  0.3142  0.1757
 8054W        W24188  17.194  13.958   0.057 -0.0437  0.0168  0.0943
 8055W        W24189  17.915  14.607  11.004 -0.0068  0.0437  0.1478
 8056W        W24190   0.192   8.497  14.285  0.1826 -0.3660 -0.1877
 8057W        W24191  16.368   3.099  14.229 -0.0249  0.0323  0.0461
 8058W        W24192   1.992  16.045   4.682  0.3593 -0.1793 -0.0808
 8059W        W24193   1.927  18.661   3.379 -0.0602  0.2464  0.0556
 8060W        W24194   0.698  17.739  10.843  0.3410 -0.1262  0.0486
 8061W        W24195  18.283   1.181   0.250 -0.0636  0.1317  0.0003
 8062W        W24196   6.178   3.805   1.380  0.0785  0.0893 -0.2465
 8063W        W24197   4.638  11.043  13.865  0.1478  0.0088 -0.0082
 8064W        W24198   8.664   8.315  10.574  0.0375  0.0479 -0.3803
 8065W        W24199   8.549   3.813  10.742  0.2498  0.0553  0.1009
 8066W        W24200   3.296  11.065  11.274  0.0974 -0.3746  0.0321
 8067W        W24201  15.712  10.528  13.397 -0.3018  0.0811  0.1866
 8068W        W24202   3.313   9.150   2.677  0.0391 -0.2927  0.2968
 8069W        W24203   8.660   2.815  11.939 -0.0651 -0.1380  0.1327
 8070W        W24204  18.709   9.215  14.631  0.4782 -0.0131 -0.1056
 8071W        W24205  14.359  10.234  11.773 -0.1342 -0.1279 -0.0876
 8072W        W24206  18.307  10.957  11.283  0.1254  0.0114 -0.0639
 8073W        W24207  13.328   4.697  12.810 -0.4432 -0.1105  0.1612
 8074W        W24208   9.706  17.153   6.091 -0.0488 -0.0144 -0.0108
 8075W        W24209   3.777   2.839   4.881  0.1860  0.2747 -0.0212
 8076W        W24210   4.598  11.979   1.884  0.0394 -0.1147 -0.1349
 8077W        W24211   8.393  12.264   4.556 -0.2176  0.1741 -0.0520
 8078W        W24212   4.177   4.446  12.336  0.0419  0.1062  0.1430
 8079W        W24213  13.105  19.075   9.793  0.0361 -0.1399  0.0930
 8080W        W24214   9.376  13.361   1.836  0.1209  0.1377 -0.1413
 8081W        W24215  18.610  10.620   0.262 -0.3240  0.2013 -0.1888
 8082W        W24216  13.660   1.412   4.108 -0.0289  0.1182  0.0613
 8083W        W24217   1.186   0.533  11.887 -0.0678 -0.3356  0.1100
 8084W        W24218   5.638   6.542   4.117 -0.0738  0.5397 -0.1606
 8085W        W24219   3.561  14.987  12.704  0.0720  0.1031  0.0688
 8086W        W24220  11.191   1.069   5.203 -0.0124 -0.1587 -0.1094
 8087W        W24221  17.405  12.592   4.289 -0.2823  0.3671  0.4187
 8088W        W24222   0.634   2.859   4.741 -0.1620 -0.0725  0.0137
 8089W        W24223  17.250   8.244   0.734 -0.1311  0.1449 -0.0461
 8090W        W24224   6.324   1.290  14.837 -0.3900 -0.2591 -0.0933
 8091W        W24225  18.651  10.124  14.312  0.0533  0.0616  0.4077
 8092W        W24226  16.203   3.247  12.355 -0.1561  0.2125  0.1592
 8093W        W24227   3.485  12.872  14.200  0.0082 -0.2535  0.1078
 8094W        W24228  13.877  14.014   3.361  0.0551 -0.1965  0.2092
 8095W        W24229   0.630   8.579  12.179  0.0344  0.1381  0.0413
 8096W        W24230   6.271  15.586  11.850  0.0652  0.2042 -0.2429
 8097W        W24231   7.283   0.477   3.538 -0.0751 -0.2011  0.1986
 8098W        W24232  16.522   2.666  14.351 -0.1273  0.0758  0.0106
 8099W        W24233   3.116   4.801   9.889 -0.2648 -0.1861 -0.0699
 8100W        W24234   6.887   3.002   3.737  0.2456 -0.1163  0.1256
 8101W        W24235  15.058  10.012   1.657  0.2060  0.1895  0.1106
 8102W        W24236  17.908   5.088  13.024 -0.1278 -0.0256  0.0120
 8103W        W24237  17.552   2.747  13.547 -0.0713  0.1250  0.1664
 8104W        W24238  15.523   8.106   1.215  0.0299  0.3178 -0.0022
 8105W        W24239  17.347  18.811   2.454 -0.2716  0.0671  0.0166
 8106W        W24240   5.632  15.305   3.451 -0.2910 -0.3358  0.1913
 8107W        W24241   0.267   8.190   9.873 -0.0349 -0.1206  0.0586
 8108W        W24242   3.618   5.702  10.619  0.0212 -0.0317 -0.1509
 8109W        W24243   1.135  13.654  10.362 -0.2505  0.1735  0.1966
 8110W        W24244  10.306   9.513   2.929  0.0833 -0.0386 -0.2703
 8111W        W24245   5.772  10.946  13.583 -0.1328  0.1446  0.2269
 8112W        W24246   7.357  14.047   2.953  0.1669 -0.0535 -0.0614
 8113W        W24247  12.687   9.986  13.592 -0.2493 -0.1968  0.1598
 8114W        W24248  11.291  13.109  12.833 -0.1916 -0.3475  0.0566
 8115W        W24249   7.809   1.142   1.765 -0.1598 -0.0835  0.1112
 8116W        W24250  17.078   7.824  11.032  0.0046 -0.1326 -0.0625
 8117W        W24251   2.289   7.184   1.109  0.1371  0.2698  0.0609
 8118W        W24252  13.552   0.192  10.608  0.2646 -0.0687  0.0511
 8119W        W24253  16.487  18.074  12.383  0.1587  0.1608 -0.1991
 8120W        W24254   3.149  17.122   4.531 -0.3059 -0.1863 -0.0378
 8121W        W24255  19.108  17.666  11.097  0.2459 -0.1554  0.1987
 8122W        W24256   8.928   7.240  14.631  0.2788 -0.1793  0.1217
 8123W        W24257  14.687   2.776   2.288 -0.4318  0.0187  0.1112
 8124W        W24258  16.409   5.339  10.756 -0.0417 -0.1652  0.2025
 8125W        W24259   0.951   3.067  13.235  0.0780  0.1982 -0.1625
 8126W        W24260   1.149  13.908   3.829 -0.2884  0.1171  0.1864
 8127W        W24261  14.906   8.883  12.264  0.1712  0.3207 -0.2462
 8128W        W24262  15.907   3.717  12.677 -0.1167 -0.1213  0.2310
 8129W        W24263  13.076  16.488  11.783  0.0727  0.3100  0.0127
 8130W        W24264   2.012  17.770   0.772 -0.0519 -0.1083 -0.2259
 8131W        W24265  14.871  11.402  11.398  0.1938  0.1578  0.2063
 8132W        W24266  17.889  18.105  10.183  0.1934 -0.0398  0.1916
 8133W        W24267   3.222   3.095  10.246  0.4096  0.5476  0.1333
 8134W        W24268   7.039   7.119   2.247  0.1503  0.0848  0.0574
 8135W        W24269  11.775   4.297  14.605  0.2718  0.0721  0.0153
 8136W        W24270  18.771   9.804   1.036 -0.0043  0.3731 -0.2696
 8137W        W24271   2.521   6.581   9.410  0.4189 -0.1071  0.2083
 8138W        W24272   1.277  14.268  14.294 -0.2575  0.4328 -0.1300
 8139W        W24273   6.037   9.188  13.430  0.2149 -0.1412 -0.1302
 8140W        W24274  19.046   6.155   4.838  0.1947 -0.3217  0.0987
 8141W        W24275  10.031   7.495  11.933 -0.1783  0.0337  0.1194
 8142W        W24276  18.693   6.295   0.140  0.1506 -0.4592 -0.1128
 8143W        W24277   4.824   8.465  11.819 -0.0707  0.3271  0.0831
 8144W        W24278   2.616   7.762  12.702 -0.0623 -0.0736  0.1919
 8145W        W24279   2.487  17.508   0.672 -0.1148 -0.0185 -0.0597
 8146W        W24280  17.740   7.488  13.036  0.1181 -0.1839  0.1444
 8147W        W24281   8.006   3.058   3.850  0.0182 -0.1044 -0.2675
 8148W        W24282   8.795  15.664  11.591  0.1572 -0.3647  0.2921
 8149W        W24283  12.823  17.157   3.948 -0.2654 -0.3945  0.0606
 8150W        W24284   9.607   0.058  11.302  0.2027  0.0925  0.0055
 8151W        W24285   9.436   6.007   0.578  0.1146  0.1229  0.1012
 8152W        W24286   4.249   5.062  10.704  0.1855  0.3167 -0.4835
 8153W        W24287  13.875  11.037   2.573 -0.0822  0.2716  0.0454
 8154W        W24288   8.594  12.213   3.054 -0.1900  0.0620  0.2079
 8155W        W24289   5.582  15.065   3.980  0.1168  0.2611  0.0378
 8156W        W24290   6.085  10.215  10.662  0.2371 -0.0424  0.0418
 8157W        W24291  15.285  14.426  12.484 -0.2185  0.1555 -0.0256
 8158W        W24292   2.023   5.211  13.832 -0.0669  0.0982 -0.0943
 8159W        W24293  13.919   6.781   3.289  0.2282  0.1925  0.1323
 8160W        W24294  14.433  16.398   1.093  0.2728 -0.0290 -0.4261
 8161W        W24295   8.010   3.491   4.079  0.3405  0.2673 -0.0372
 8162W        W24296   0.350  10.913   3.552  0.1394  0.2654  0.0281
 8163W        W24297  18.157   3.497   2.441  0.1860 -0.0628  0.3466
 8164W        W24298   5.530   6.792   5.029  0.0691 -0.2792  0.2133
 8165W        W24299   4.975  17.894  12.362  0.0634 -0.0642  0.1483
 8166W        W24300  15.427   1.739   1.960 -0.2449 -0.2707  0.1551
 8167W        W24301   4.839  14.795   0.712 -0.2398  0.1437 -0.0114
 8168W        W24302  15.764   7.272   0.675  0.2152  0.3501  0.1630
 8169W        W24303  18.029  10.729   1.879  0.0673 -0.0111  0.0044
 8170W        W24304  14.564  14.246   0.309  0.1191 -0.0574 -0.0479
 8171W        W24305   0.590  13.672   1.209  0.0649  0.0138  0.2051
 8172W        W24306   1.710   7.376  13.383 -0.1908 -0.0155 -0.1042
 8173W        W24307  13.465   8.929  10.208 -0.0343 -0.2961  0.2599
 8174W        W24308   4.200  16.066  10.024  0.1215  0.1102  0.3342
 8175W        W24309   6.760   6.089  14.381 -0.1781  0.0193  0.0530
 8176W        W24310   2.451   1.811  11.146  0.0540 -0.0935  0.1836
 8177W        W24311  15.368   1.095  13.609  0.3037 -0.3215  0.1776
 8178W        W24312  19.340   7.106   4.384  0.2434 -0.3506  0.0229
 8179W        W24313   1.432   8.199   4.128 -0.2137 -0.0577  0.2542
 8180W        W24314   4.702  16.833  13.183 -0.3101 -0.0633 -0.1486
 8181W        W24315   3.483  18.119  13.784 -0.0719  0.1059  0.1077
 8182W        W24316   1.400  16.422  13.896  0.0216 -0.3649 -0.1843
 8183W        W24317   9.181  14.845   0.028 -0.0611  0.2077 -0.1578
 8184W        W24318   6.577  15.286   2.184 -0.0980  0.0463  0.0655
 8185W        W24319  14.432   3.487   2.523 -0.1292 -0.1438 -0.0367
 8186W        W24320   9.415   4.290   4.408 -0.1257 -0.0972  0.1041
 8187W        W24321   5.471  16.792   4.749  0.0483 -0.5533 -0.1728
 8188W        W24322  12.418  18.763   4.489  0.0278 -0.4769  0.0704
 8189W        W24323  12.465  17.766   2.733  0.0881  0.1120  0.1806
 8190W        W24324   6.869  15.051   1.244  0.1238 -0.1362  0.2297
 8191W        W24325  12.694  10.971   3.773  0.2068  0.0797 -0.0784
 8192W        W24326   8.848  18.163  11.010  0.0621 -0.2791  0.0639
 8193W        W24327   6.431  17.438   1.410  0.5014 -0.0269 -0.0154
 8194W        W24328   3.219   5.270  10.734 -0.0038  0.2671  0.1478
 8195W        W24329  18.979   7.148  10.414  0.0618 -0.1182  0.0999
 8196W        W24330  13.990  16.760  12.776 -0.1384  0.0727 -0.2452
 8197W        W24331   5.260  13.106  14.229 -0.0292 -0.1844  0.0199
 8198W        W24332  16.565  10.754   4.557  0.1317 -0.3171 -0.0075
 8199W        W24333  14.599   5.854   4.023 -0.0346  0.1187  0.3219
 8200W        W24334   5.827   8.877   3.692 -0.0514 -0.0509 -0.1049
 8201W        W24335   4.592  12.050   5.206 -0.0562  0.0417 -0.2068
 8202W        W24336  16.388  12.276   0.562  0.0837  0.0657  0.1403
 8203W        W24337  16.956   4.064   9.597 -0.1151  0.0113  0.3389
 8204W        W24338   4.846  13.823  13.252 -0.0868  0.1123 -0.0175
 8205W        W24339   0.621  11.371  13.873 -0.0951 -0.1263  0.2387
 8206W        W24340   3.033  15.640  14.027  0.2024  0.3328 -0.2684
 8207W        W24341   7.889  17.281   0.154  0.1704 -0.0877 -0.3389
 8208W        W24342  10.821   3.374  14.586 -0.2693  0.1802  0.0632
 8209W        W24343  13.816   7.682   4.938  0.2243 -0.2477  0.1365
 8210W        W24344   9.332  10.099  13.293  0.0067  0.1508 -0.1776
 8211W        W24345   6.814  16.138   1.888 -0.1370 -0.0666 -0.1618
 8212W        W24346  17.792  16.497   1.529 -0.0683  0.0302  0.2065
 8213W        W24347  12.426  13.091   3.558  0.0873  0.1161  0.1775
 8214W        W24348   0.813  15.311   1.061  0.0589 -0.1986 -0.3437
 8215W        W24349  14.419   0.436  12.751  0.1060  0.0458  0.2565
 8216W        W24350   5.319  19.331   1.235  0.1537 -0.2510 -0.1880
 8217W        W24351  17.712   4.215  11.146 -0.4154 -0.0695  0.3217
 8218W        W24352  15.655  15.226  13.173 -0.1771 -0.3172 -0.0051
 8219W        W24353   5.736   9.642   0.979  0.2780  0.2133 -0.4711
 8220W        W24354   9.297   1.781  10.932 -0.0764  0.3272 -0.1566
 8221W        W24355   6.499   5.073  12.810 -0.1531  0.0734  0.2779
 8222W        W24356   2.397  14.994   2.153  0.2700 -0.1616  0.1389
 8223W        W24357   4.462  10.892   2.712  0.2271 -0.0063 -0.2527
 8224W        W24358  15.364   6.371   2.683  0.2635 -0.0705  0.1131
 8225W        W24359  10.560  17.918   2.369 -0.1828  0.2265  0.2336
 8226W        W24360   7.590   7.640  13.669  0.1800 -0.0975  0.2721
 8227W        W24361   9.325  19.282  10.854 -0.0160 -0.2073 -0.0199
 8228W        W24362   0.264   3.143  11.840 -0.0906  0.3233 -0.2685
 8229W        W24363  13.763   2.521  11.626 -0.0250  0.0228 -0.2327
 8230W        W24364  13.056   8.263  13.774 -0.1198 -0.3471 -0.1209
 8231W        W24365  13.050   3.235  10.790 -0.2563 -0.1107  0.3323
 8232W        W24366   0.879  15.167   5.249  0.0472  0.5089 -0.0612
 8233W        W24367   0.960  14.129  12.853  0.0544 -0.2878 -0.0721
 8234W        W24368   8.594   7.643  14.942  0.1072  0.3107  0.0772
 8235W        W24369  12.955  17.108  11.627 -0.2332 -0.0118 -0.1602
 8236W        W24370   9.864  13.039   4.711 -0.1723 -0.2604  0.3168
 8237W        W24371   2.162   2.821  11.736  0.4068 -0.0531  0.3512
 8238W        W24372  17.567   7.213  13.817 -0.2056  0.1303  0.1788
 8239W        W24373  10.413   9.735  12.583 -0.0654  0.4104 -0.0470
 8240W        W24374  16.973   2.635   0.907 -0.2038  0.1876  0.1877
 8241W        W24375  16.629  10.857   2.644  0.0230  0.1103  0.1348
 8242W        W24376   4.126  16.957  10.768 -0.2915  0.0073 -0.1185
 8243W        W24377  13.478  15.894  14.005  0.2982  0.2334  0.2087
 8244W        W24378   2.009  14.970  11.606 -0.0366  0.0178  0.1678
 8245W        W24379   4.546  13.802   2.247 -0.1974 -0.0415  0.2766
 8246W        W24380  13.244   5.788   1.429 -0.1353 -0.0027 -0.1653
 8247W        W24381  15.494  15.620  14.975 -0.0127  0.0786  0.0883
 8248W        W24382   4.173  18.163   5.028  0.1325 -0.0155 -0.0660
 8249W        W24383  15.727  16.328   4.486 -0.0387 -0.0766 -0.0867
 8250W        W24384  18.234  18.647  12.392 -0.3101  0.0004 -0.0749
 8251W        W24385   6.553  19.345  14.747 -0.1442  0.4621 -0.0452
 8252W        W24386  11.943  15.379   0.506 -0.2363  0.1812  0.4560
 8253W        W24387  13.943   9.416  13.624 -0.4126  0.0886  0.0634
 8254W        W24388   4.193   8.290   4.751 -0.0227 -0.0173  0.0917
 8255W        W24389  16.892   8.542   3.967 -0.2432 -0.0394  0.4155
 8256W        W24390   0.336  16.797  10.979 -0.0316 -0.2455 -0.0404
 8257W        W24391  14.161   1.288   0.684  0.4330  0.1775 -0.2023
 8258W        W24392  10.460  13.373  13.162 -0.0052 -0.2991 -0.0207
 8259W        W24393  14.982  13.557  12.165 -0.1758  0.1793 -0.0161
 8260W        W24394  13.328   0.967  13.238 -0.0604 -0.0272  0.2998
 8261W        W24395   5.641   7.343   2.357  0.0108 -0.1633 -0.0053
 8262W        W24396  12.552   0.534   2.108 -0.3154 -0.1960  0.2772
 8263W        W24397  10.101  10.212  11.180 -0.2760 -0.1652 -0.1199
 8264W        W24398   6.312  18.044  10.699 -0.1823 -0.4015 -0.2537
 8265W        W24399   6.701   1.240  10.760 -0.1700  0.0443  0.0209
 8266W        W24400  15.038   5.899   5.340 -0.4481  0.1959  0.2313
 8267W        W24401  12.440   9.138  11.848 -0.5409  0.0145 -0.2351
 8268W        W24402  14.083   0.070  12.748  0.1419  0.1271 -0.5236
 8269W        W24403  18.519   2.992   0.494  0.1031  0.3922 -0.0055
 8270W        W24404  16.071  17.829   2.338 -0.2077  0.2648  0.0942
 8271W        W24405   4.339  16.417   1.470  0.1364  0.0451 -0.0397
 8272W        W24406  18.771  17.746   3.880  0.1428  0.0035 -0.0306
 8273W        W24407  19.347   4.121  13.837  0.0600  0.0039  0.0170
 8274W        W24408  16.467  11.588  14.023 -0.0585 -0.4874  0.3528
 8275W        W24409  13.883  18.494  13.379 -0.1654 -0.0188  0.0306
 8276W        W24410  16.507   9.188  13.540 -0.0261 -0.3076 -0.2070
 8277W        W24411   8.400   0.654  14.372 -0.1441  0.1849  0.0928
 8278W        W24412  16.042   3.125  13.634 -0.2474 -0.5859  0.1300
 8279W        W24413  18.054  12.771   0.368 -0.2680 -0.2654  0.5031
 8280W        W24414   6.372  18.180  13.758 -0.5693 -0.3285 -0.0372
 8281W        W24415   7.024  18.705   4.774 -0.0135  0.0833  0.0574
 8282W        W24416  10.239  14.919   2.996 -0.0870  0.1719  0.0387
 8283W        W24417   7.885   4.169   5.251  0.0046  0.0854  0.0489
 8284W        W24418  18.620  12.349  11.331 -0.1002  0.0436  0.0985
 8285W        W24419  16.428   6.669  14.029 -0.2313 -0.2201  0.0947
 8286W        W24420   3.582  16.358   3.452  0.0403  0.4075  0.1541
 8287W        W24421  16.067   9.219  13.268 -0.0219 -0.0965 -0.1825
 8288W        W24422  11.257  13.269   4.400  0.3230 -0.0767 -0.2134
 8289W        W24423   2.682   2.019   3.228  0.0158  0.0354  0.4752
 8290W        W24424  14.738   7.851   1.259 -0.1424 -0.1010  0.0324
 8291W        W24425  13.829  16.741  11.895  0.2340  0.1787 -0.4247
 8292W        W24426   8.248   7.678  12.235  0.2392  0.1567  0.1349
 8293W        W24427   2.841  11.143   4.655 -0.1654 -0.1887 -0.0107
 8294W        W24428  12.889   0.771   1.087  0.1426  0.0133 -0.3047
 8295W        W24429   1.122   5.080  12.439  0.1940 -0.2311 -0.0519
 8296W        W24430  16.502  12.635   2.957  0.1498 -0.3055 -0.0474
 8297W        W24431   9.291   7.370  11.558 -0.2526 -0.4074  0.1786
 8298W        W24432  12.649   6.054  12.780  0.0877  0.2892 -0.1809
 8299W        W24433  18.441   6.909   2.814  0.1082 -0.3612 -0.2916
 8300W        W24434  15.459   5.928  12.918  0.1281  0.1538 -0.0781
 8301W        W24435  17.692   2.418  10.912  0.0396 -0.4329  0.3039
 8302W        W24436   2.185   4.631   1.730  0.1398  0.1628 -0.2109
 8303W        W24437   4.491   0.359   0.159  0.1483 -0.1199  0.0390
 8304W        W24438  16.554  16.893   3.481 -0.0605 -0.0807 -0.0412
 8305W        W24439  10.696  12.166  14.866  0.0629 -0.0122 -0.0860
 8306W        W24440  10.559   0.337   3.088 -0.2840 -0.2590  0.1045
 8307W        W24441   4.671   3.623  11.653 -0.1342  0.0026 -0.1737
 8308W        W24442  16.724   5.927  14.258  0.1681  0.2429  0.2170
 8309W        W24443  15.671  12.354   2.973 -0.0665  0.2301  0.1924
 8310W        W24444  11.216  18.471   3.388 -0.1947  0.1333 -0.0591
 8311W        W24445   6.022   9.497   0.050 -0.2156  0.0248 -0.1562
 8312W        W24446  11.172   0.817   1.781 -0.4292  0.0365  0.0044
 8313W        W24447  14.147  12.672   0.599 -0.0489  0.0139  0.2517
 8314W        W24448  15.151  13.069  13.701 -0.0791  0.2285  0.1124
 8315W        W24449  10.718  15.870   0.085 -0.4239 -0.0849 -0.4525
 8316W        W24450   9.324   1.123   2.606  0.3332  0.2332 -0.2114
 8317W        W24451  14.207   6.839   2.934  0.1241  0.2558 -0.0028
 8318W        W24452  15.905   8.848   4.475 -0.0015 -0.1138 -0.1523
 8319W        W24453   7.303   2.701   0.686 -0.1359  0.0305 -0.0434
 8320W        W24454   2.633   3.076  14.548 -0.0610  0.5409 -0.1284
 8321W        W24455  14.292   9.771  14.036  0.1156 -0.0623  0.0137
 8322W        W24456   7.693   4.707   9.401 -0.1688 -0.2941  0.1256
 8323W        W24457   0.210  13.683  11.804  0.1441  0.1346 -0.4408
 8324W        W24458  16.662  15.085   0.551 -0.1707 -0.1531  0.1763
 8325W        W24459   5.083  17.508  11.378 -0.3252  0.0247  0.2158
 8326W        W24460   8.273  12.572  11.167 -0.3174 -0.1429 -0.4501
 8327W        W24461   1.880   7.980  13.680 -0.0382  0.0146  0.1538
 8328W        W24462   7.192   4.147   4.006  0.0237 -0.1276  0.0554
 8329W        W24463   2.176  10.387   2.156  0.3081  0.2430  0.0198
 8330W        W24464   8.483   2.433  10.543 -0.1121 -0.0277 -0.2737
 8331W        W24465   9.380  17.860  13.777 -0.4230  0.1265  0.0561
 8332W        W24466   0.479   0.550   1.507 -0.0765  0.1033 -0.1330
 8333W        W24467  10.063   4.889  14.804  0.1129 -0.3336  0.0498
 8334W        W24468   1.818  14.529  11.258  0.3027  0.0497  0.2233
 8335W        W24469   8.199  15.772   4.798  0.0712 -0.1302 -0.0591
 8336W        W24470  16.754  10.388   2.839  0.0982  0.0010  0.0835
 8337W        W24471   6.150  18.021   1.565  0.1162  0.1285  0.1826
 8338W        W24472  15.909   4.994   3.969  0.0320 -0.1113  0.3180
 8339W        W24473   3.426  19.348  10.820 -0.0950 -0.2287 -0.1997
 8340W        W24474   5.237  15.321   4.893 -0.2185  0.2716  0.0801
 8341W        W24475   3.502  15.629   4.693  0.0566  0.0568  0.0684
 8342W        W24476  12.966   4.625   4.473  0.3580 -0.0109 -0.3313
 8343W        W24477  16.456  11.119  11.008 -0.0723 -0.2658  0.0643
 8344W        W24478   5.926  15.033   1.735 -0.3076 -0.1680  0.3565
 8345W        W24479  10.220   3.699   4.031  0.1720  0.2061 -0.2167
 8346W        W24480   8.470  12.620   2.347  0.1349 -0.1699 -0.3979
 8347W        W24481   2.622  19.046   3.839 -0.1257  0.1240  0.0827
 8348W        W24482   7.608  14.830   5.933 -0.2718  0.3154  0.1598
 8349W        W24483   8.030   4.040  10.474 -0.1296  0.0049  0.1978
 8350W        W24484  18.414  17.909   2.284 -0.0405  0.2394  0.3338
 8351W        W24485  13.496   6.133   3.838  0.1611  0.0112  0.1506
 8352W        W24486  18.287  13.467   0.720 -0.0732 -0.2006  0.0232
 8353W        W24487   1.788  17.543  13.094  0.1616 -0.1681  0.1241
 8354W        W24488   2.831   1.377  10.169 -0.3298  0.2548 -0.0120
 8355W        W24489  12.540  10.130   3.484  0.1578  0.0646 -0.2162
 8356W        W24490   3.924  10.913  10.247 -0.1554 -0.0693  0.0952
 8357W        W24491  11.975  17.708   2.445  0.1788 -0.0151  0.1511
 8358W        W24492  13.423  17.570   3.115 -0.0651 -0.1397 -0.1666
 8359W        W24493   3.531   9.495   0.723 -0.0317 -0.2695  0.1547
 8360W        W24494  13.187   8.368   2.556  0.0880 -0.3000 -0.2913
 8361W        W24495  14.964   9.121   1.674 -0.2179  0.4010 -0.0301
 8362W        W24496   1.658  17.630  12.116  0.2679 -0.1680  0.0846
 8363W        W24497   8.871   7.210   2.239  0.3300 -0.0400  0.0842
 8364W        W24498  11.871   8.526   1.783  0.0151  0.2291 -0.2082
 8365W        W24499   7.912  12.147  11.785 -0.1710 -0.1438  0.0715
 8366W        W24500   8.355   5.390   2.840  0.0832  0.0115 -0.1081
 8367W        W24501  18.997   9.582  14.932  0.2958 -0.0063 -0.3870
 8368W        W24502  14.447  16.692   5.243  0.0933 -0.0580 -0.2059
 8369W        W24503   8.667  10.571   3.295  0.1308 -0.1022 -0.0453
 8370W        W24504   3.489   8.730   4.621  0.2202  0.0881  0.1734
 8371W        W24505  13.194   1.305   2.155  0.0489  0.1262 -0.2012
 8372W        W24506   1.229  19.177   4.618 -0.2726 -0.0463 -0.4379
 8373W        W24507  12.428  12.787   5.036 -0.1348  0.1002 -0.0987
 8374W        W24508   5.427   9.031   0.838 -0.0158  0.2546 -0.2111
 8375W        W24509   3.062   9.009  14.204  0.0147  0.0788  0.0418
 8376W        W24510   9.202   4.636   2.924  0.1662  0.2175  0.0657
 8377W        W24511  11.903   7.076   3.288 -0.3253 -0.3741  0.1595
 8378W        W24512   6.008   7.720  12.527 -0.1997  0.0083 -0.1485
 8379W        W24513   5.190  11.055  12.725  0.0651  0.1292  0.0857
 8380W        W24514   2.718  16.506  12.171 -0.0246  0.0189 -0.1569
 8381W        W24515  13.529  19.045  13.582  0.2784  0.0073 -0.2874
 8382W        W24516  15.924  16.420   3.010 -0.2442 -0.2139  0.0905
 8383W        W24517  13.306  17.776   4.903 -0.0192 -0.0603  0.0600
 8384W        W24518   0.594   8.837  14.124  0.2008 -0.0589 -0.0955
 8385W        W24519  16.412   9.243   3.374  0.0159  0.0967  0.4776
 8386W        W24520   9.471   7.834  13.740 -0.0812 -0.2872  0.0675
 8387W        W24521   0.487   4.422   5.570  0.0782 -0.1092 -0.4333
 8388W        W24522  17.486   0.652   3.997  0.2984 -0.1106  0.0592
 8389W        W24523   2.304  18.206   4.567  0.2004 -0.0094 -0.1965
 8390W        W24524   1.668  11.460  11.784  0.2761 -0.0329  0.0937
 8391W        W24525   2.863  11.729   1.159 -0.0662  0.5279  0.0599
 8392W        W24526  11.462   2.019  13.534 -0.0069  0.1952 -0.2537
 8393W        W24527   3.291  11.436   9.846 -0.0694  0.0124 -0.0032
 8394W        W24528  17.714  17.670   3.873  0.0417 -0.0233 -0.5735
 8395W        W24529   8.030   3.829   9.896  0.2216  0.0770 -0.0763
 8396W        W24530   3.371   1.086   4.014 -0.0258  0.0063  0.1404
 8397W        W24531  13.106   6.327   1.345  0.1122 -0.0324 -0.2151
 8398W        W24532   0.944  11.551  13.562 -0.5172 -0.2418  0.1829
 8399W        W24533  14.691  18.060  12.582 -0.0101 -0.1111  0.0888
 8400W        W24534   3.039  19.025   0.211 -0.1853  0.1382  0.0580
 8401W        W24535  12.230  18.919  10.970  0.3665  0.0518 -0.1339
 8402W        W24536   3.786  16.958   5.410  0.1607  0.0909  0.1324
 8403W        W24537   1.307  15.822  14.624  0.0707 -0.0797  0.1966
 8404W        W24538   8.591  11.384   0.373 -0.1876 -0.1311 -0.0366
 8405W        W24539   4.554   2.115  11.844 -0.2208 -0.1081 -0.2053
 8406W        W24540  18.693   5.830   9.886  0.0450 -0.3443  0.2300
 8407W        W24541  17.071  13.547  11.940 -0.0650  0.0751  0.1985
 8408W        W24542   9.309  11.189   4.259 -0.0685  0.0056  0.2038
 8409W        W24543   6.988  15.729  14.685  0.2717 -0.1716 -0.0705
 8410W        W24544  15.548  17.590  12.644 -0.3474  0.2418 -0.2825
 8411W        W24545   1.126   4.700   4.552  0.0155 -0.2687 -0.2210
 8412W        W24546  10.598   3.689   3.212  0.0655  0.0647 -0.1141
 8413W        W24547  13.986   7.633  13.292  0.1877 -0.0693  0.0313
 8414W        W24548   7.506   4.450   2.479  0.1254 -0.2240 -0.1223
 8415W        W24549   7.962   6.580   0.834 -0.1756  0.1636 -0.2578
 8416W        W24550   4.247   9.396  14.543 -0.0332  0.0836  0.1417
 8417W        W24551   8.466  17.426   4.082  0.1362  0.3616 -0.2085
 8418W        W24552  16.024   5.628  13.230 -0.0689 -0.0684  0.0234
 8419W        W24553   7.328  13.738   0.834  0.0052 -0.0632 -0.0710
 8420W        W24554   2.980  17.160   3.625 -0.3591  0.1768  0.1103
 8421W        W24555  18.516   1.027  10.828  0.1580 -0.1444 -0.4114
 8422W        W24556   4.430  16.721  11.651 -0.0246 -0.2575 -0.1981
 8423W        W24557   4.043  19.028   1.526  0.0049 -0.2449 -0.1644
 8424W        W24558   9.113  18.320  10.293  0.2661  0.2722 -0.1531
 8425W        W24559  16.415  11.245   2.915  0.0570  0.0836 -0.2203
 8426W        W24560  11.897   5.652   1.742 -0.0638 -0.0179  0.2691
 8427W        W24561  15.668  13.311   9.746  0.0323  0.1797  0.0452
 8428W        W24562   7.811   5.544  12.238 -0.3335  0.2805 -0.0586
 8429W        W24563   9.285   6.130  12.648  0.0631  0.0934 -0.2328
 8430W        W24564  17.099   7.019  12.089  0.0758 -0.1935  0.1856
 8431W        W24565   4.836  12.746   1.583 -0.2671  0.1905  0.0715
 8432W        W24566  17.742   9.683  10.444 -0.1163  0.0633  0.0620
 8433W        W24567  12.713   7.900   1.028  0.0311  0.3094  0.0453
 8434W        W24568  14.059  11.833   2.459  0.0125  0.0639 -0.1841
 8435W        W24569  12.106   3.644   0.269  0.3224 -0.2210 -0.1969
 8436W        W24570   9.453  10.770  13.635  0.0428  0.1794  0.1584
 8437W        W24571  10.701   2.271  12.065  0.0845 -0.1117 -0.0720
 8438W        W24572   9.420   7.400  14.861 -0.0530  0.0504 -0.1514
 8439W        W24573   3.631   6.016   8.835 -0.1027  0.2510  0.1263
 8440W        W24574   8.378  10.517   9.871  0.0093 -0.1134 -0.0746
 8441W        W24575  16.591   4.911   2.891  0.1097  0.0101 -0.1244
 8442W        W24576   7.207   8.165   2.010  0.0005  0.4010 -0.0904
 8443W        W24577   0.579   7.585   1.884 -0.0987  0.1506  0.0944
 8444W        W24578  10.094   8.378   3.755 -0.2476 -0.0995  0.3246
 8445W        W24579  13.432   4.218  13.043  0.0236  0.1433  0.1007
 8446W        W24580   6.781  13.361   5.807 -0.1060 -0.2190  0.1379
 8447W        W24581   8.591  11.698   2.322 -0.2150  0.1891  0.0250
 8448W        W24582   9.124   5.053   2.517 -0.2201  0.2153 -0.2004
 8449W        W24583   3.124   5.337   2.831  0.2352  0.3768 -0.1337
 8450W        W24584  11.431   5.308  10.861 -0.0120 -0.1255 -0.0022
 8451W        W24585  19.149   7.973   2.362  0.1543  0.2090 -0.1508
 8452W        W24586  18.548  16.312   2.470 -0.2004 -0.0701 -0.0554
 8453W        W24587  19.325   6.683   0.861  0.1129 -0.0088 -0.0784
 8454W        W24588   3.165   3.008  10.793  0.1435 -0.1378  0.0070
 8455W        W24589  15.527  13.451  10.659  0.4249  0.1142  0.3807
 8456W        W24590  15.088   4.509   4.296 -0.0117 -0.1213 -0.3712
 8457W        W24591  17.607   8.863  14.171 -0.3569  0.0185  0.3352
 8458W        W24592   2.937   0.649  11.470  0.1304  0.3296 -0.4095
 8459W        W24593   5.290   9.145  10.475  0.1662 -0.0962 -0.0536
 8460W        W24594   1.450   4.444   3.654  0.0271 -0.1745 -0.0386
 8461W        W24595   9.234   5.542   4.340 -0.2510  0.2574  0.0745
 8462W        W24596  17.794  12.858   4.079 -0.1413  0.1454 -0.0040
 8463W        W24597  10.593  18.559   3.210  0.0188  0.3701 -0.0992
 8464W        W24598  12.233   4.327   0.388  0.0745  0.2371 -0.1027
 8465W        W24599  11.540  10.518  10.963  0.2436  0.0383  0.0582
 8466W        W24600   5.933   1.405   2.057 -0.1048 -0.1680  0.2382
 8467W        W24601   9.740  16.808   2.620  0.2491 -0.2193 -0.1871
 8468W        W24602   2.273   9.276   0.740  0.5147  0.1564 -0.1735
 8469W        W24603  11.449  11.843   2.334  0.2601  0.2245  0.0612
 8470W        W24604  15.270   0.131   5.474  0.4166  0.2055  0.2681
 8471W        W24605   5.199  11.418   2.064 -0.0029  0.0510  0.1040
 8472W        W24606   5.487   5.179   0.451  0.1089  0.2129 -0.1052
 8473W        W24607   0.050   3.021   2.475 -0.1480  0.1576  0.0980
 8474W        W24608   0.836   8.247   0.991 -0.0428  0.0500 -0.3945
 8475W        W24609   4.047   1.968   4.861  0.4656  0.1376  0.0522
 8476W        W24610   4.170   1.461  14.231  0.6473  0.0749 -0.2245
 8477W        W24611   8.778  12.470   4.275  0.3293  0.0570  0.1547
 8478W        W24612   0.236  12.109   2.727 -0.0872 -0.3222  0.1900
 8479W        W24613   1.908  15.090  13.073 -0.0641  0.0493  0.0517
 8480W        W24614   8.771   7.372   3.206 -0.1617  0.3043  0.2057
 8481W        W24615   2.566  12.296   0.092  0.2332 -0.2477  0.2331
 8482W        W24616  15.969   7.267  14.790  0.1553 -0.0376  0.1785
 8483W        W24617  18.276   2.460   3.964  0.0019 -0.0963  0.0458
 8484W        W24618   3.761   0.805   1.861  0.3145  0.3517 -0.0481
 8485W        W24619   1.284  19.176   5.652  0.2166 -0.1648  0.2316
 8486W        W24620  10.018  10.290   0.878  0.0415 -0.1005  0.0168
 8487W        W24621   3.863   3.655   3.345 -0.1462  0.2019  0.0128
 8488W        W24622  11.423  15.836   5.732  0.1850  0.1935  0.1422
 8489W        W24623   6.332   3.703  14.538 -0.2681  0.0324  0.3251
 8490W        W24624   2.596   7.015   0.051  0.0348  0.1777  0.2410
 8491W        W24625  13.559   0.632  11.401  0.1075 -0.1951 -0.2862
 8492W        W24626   2.796  10.259  13.650  0.0953  0.1316 -0.2022
 8493W        W24627  11.446  12.774  13.336  0.0805  0.1682 -0.4599
 8494W        W24628  14.688  11.553   0.889  0.0437 -0.0344 -0.0783
 8495W        W24629  15.720   6.005  10.331  0.2450 -0.0546  0.0649
 8496W        W24630   3.755  18.941  12.789  0.2570  0.1444 -0.3291
 8497W        W24631   9.994   4.416  10.935 -0.2864 -0.0966  0.0998
 8498W        W24632   0.073   0.108   4.067 -0.5629 -0.2584 -0.0192
 8499W        W24633   6.549  14.188   1.078 -0.3157  0.0532 -0.3534
 8500W        W24634   7.323  17.290  13.785  0.2154 -0.3025 -0.1027
 8501W        W24635  10.667   6.562  11.113 -0.1316 -0.0420  0.2358
 8502W        W24636   8.783   7.630  12.736  0.1180  0.2293 -0.1400
 8503W        W24637   7.396  11.451   5.326 -0.2288 -0.0251 -0.1438
 8504W        W24638   5.447  16.724  12.591 -0.0538  0.2416 -0.2020
 8505W        W24639   3.109  18.673   5.572 -0.3196 -0.0660  0.3671
 8506W        W24640  15.414  16.010   5.415 -0.3792  0.1439 -0.0930
 8507W        W24641   2.216  17.287   0.205 -0.1273  0.0461 -0.1992
 8508W        W24642  16.382   4.482  13.219 -0.1370  0.0900 -0.0545
 8509W        W24643  10.677  11.767  11.328  0.0023 -0.3193  0.2009
 8510W        W24644   6.042   5.092  12.208 -0.1165  0.1415 -0.1413
 8511W        W24645   2.201   8.817  10.049 -0.0002 -0.0515 -0.1549
 8512W        W24646   1.612   7.740  11.954  0.2304  0.0090  0.0588
 8513W        W24647  17.104   9.157  11.038 -0.1865 -0.0209  0.1670
 8514W        W24648   6.775  14.990  13.911  0.0539 -0.0511 -0.0044
 8515W        W24649   6.490   4.882  11.946  0.1416 -0.0844  0.2316
 8516W        W24650  17.138   9.235   1.086  0.1992 -0.1578  0.0490
 8517W        W24651   9.561  15.133  12.697  0.2168  0.1324 -0.2192
 8518W        W24652  13.596  15.023   0.696  0.0998  0.2246  0.2377
 8519W        W24653  15.872   8.906  12.942 -0.0960  0.1153  0.5265
 8520W        W24654   8.696   0.979   4.354  0.0557 -0.0787  0.0231
 8521W        W24655  13.446   7.354   5.036 -0.1076 -0.3624  0.0206
 8522W        W24656  12.916   3.054   5.155 -0.0509  0.0992  0.0275
 8523W        W24657  14.901  15.582   4.337 -0.0872 -0.1778  0.1814
 8524W        W24658   7.485   6.037   0.091  0.2237 -0.2138  0.0167
 8525W        W24659   3.942   6.662  10.456 -0.1020 -0.1465 -0.0571
 8526W        W24660  17.256   3.830  13.233  0.1683  0.0812  0.2942
 8527W        W24661   2.490  12.342  14.549  0.0317  0.0203  0.1456
 8528W        W24662  17.187   5.653   1.852 -0.1914 -0.1056  0.0600
 8529W        W24663   1.856   0.834  13.614 -0.0797 -0.1022 -0.2876
 8530W        W24664   3.014  10.756   3.177  0.0239 -0.3251  0.0488
 8531W        W24665   9.428   3.554  13.358 -0.0071  0.3696  0.0416
 8532W        W24666  12.987   4.665  14.000  0.4353 -0.0385 -0.0783
 8533W        W24667   5.314   6.110   1.996  0.2015 -0.0396  0.1701
 8534W        W24668  13.869  10.685  12.237  0.1596  0.2176  0.0967
 8535W        W24669  10.014   9.631   2.589 -0.1119 -0.0997  0.1569
 8536W        W24670  11.563   6.408   4.005 -0.0931  0.1059 -0.0470
 8537W        W24671   0.177  10.159  12.304  0.1286 -0.0215  0.0008
 8538W        W24672   7.780  16.960  14.713 -0.3627  0.2452  0.2140
 8539W        W24673   6.654   9.065   0.075 -0.0181 -0.0228 -0.2811
 8540W        W24674   7.081  17.037   3.655 -0.0955 -0.4141  0.1344
 8541W        W24675  13.663   0.693   0.541 -0.2384 -0.1138  0.0898
 8542W        W24676  19.322   9.871  11.997  0.0758  0.0340 -0.0219
 8543W        W24677   8.356  15.280   6.026  0.0447  0.3866 -0.0128
 8544W        W24678   0.841  16.476   5.490 -0.2618  0.1049  0.0159
 8545W        W24679  17.632   4.911  13.378 -0.0148  0.2530 -0.1018
 8546W        W24680   5.714   3.651   3.377  0.0935  0.3217 -0.2968
 8547W        W24681  16.554   7.324   9.989 -0.1255  0.0622  0.5449
 8548W        W24682  12.038   0.200  13.163  0.0616 -0.5841  0.1111
 8549W        W24683  19.172  17.021   4.214 -0.0664 -0.4767  0.0962
 8550W        W24684  14.246   7.925   2.780  0.2320 -0.0692 -0.1747
 8551W        W24685   2.101  13.872   3.130 -0.0844 -0.2797  0.0526
 8552W        W24686  18.485   3.851  14.081 -0.2441 -0.0664 -0.0510
 8553W        W24687  18.168  15.107   0.046 -0.0358 -0.0606 -0.1909
 8554W        W24688   1.342   7.371   3.868  0.2135 -0.0309  0.4148
 8555W        W24689   5.987  18.620   3.934 -0.0995  0.3350 -0.0235
 8556W        W24690   6.986  17.576  11.358  0.3158 -0.0104  0.0632
 8557W        W24691  18.909   1.053   0.765  0.0799  0.1423 -0.1788
 8558W        W24692  16.421  13.751  13.845 -0.2775  0.2090 -0.1720
 8559W        W24693  11.533   3.386   2.181  0.0239  0.1141  0.1498
 8560W        W24694   8.103   9.319  10.995  0.0826 -0.2346 -0.0219
 8561W        W24695  14.675  14.877  11.632  0.1009 -0.0896 -0.2402
 8562W        W24696   6.089   8.947   0.200  0.1716 -0.2649 -0.1418
 8563W        W24697  17.258  17.868  11.363 -0.2272 -0.0604 -0.2078
 8564W        W24698   7.667   7.442   1.745 -0.0807  0.2327  0.2282
 8565W        W24699   8.676  10.592  11.282 -0.0081 -0.1902 -0.1295
 8566W        W24700   8.978  17.191   0.964 -0.0281  0.0280  0.1574
 8567W        W24701  12.913  15.363  14.898 -0.0203  0.0765 -0.1502
 8568W        W24702  14.185   1.154  11.660  0.0073 -0.2578 -0.1466
 8569W        W24703   0.982   7.239  12.472  0.0939 -0.2123  0.0820
 8570W        W24704   3.923  10.019  12.571 -0.2440  0.4329 -0.1823
 8571W        W24705  16.892  11.082  14.180  0.2902  0.1774 -0.2599
 8572W        W24706   9.473   2.076  14.363  0.2130  0.0327  0.1847
 8573W        W24707  11.270   3.355   4.374 -0.3889  0.0191  0.1182
 8574W        W24708  11.627   4.310   5.161  0.0119 -0.0486 -0.1619
 8575W        W24709   8.196  12.361  13.984 -0.0887 -0.1088  0.0464
 8576W        W24710  12.678  13.042   4.692 -0.0325 -0.0118 -0.0942
 8577W        W24711   6.201   2.035  14.934  0.0935 -0.1661  0.0490
 8578W        W24712  18.152  17.627  11.286 -0.3433  0.3349  0.2481
 8579W        W24713  19.056   9.803  14.409  0.0412 -0.0920  0.1458
 8580W        W24714  14.547  12.298  14.255 -0.0754  0.1080  0.4117
 8581W        W24715  14.202   1.128   6.027 -0.1600  0.0663  0.4868
 8582W        W24716   8.773   1.622   2.003 -0.2628 -0.1576  0.1451
 8583W        W24717   7.843  10.342   5.326 -0.0068  0.0977 -0.0165
 8584W        W24718   9.788  19.217   4.444 -0.3761  0.1924 -0.6198
 8585W        W24719  11.628   6.866  12.158  0.0086  0.0029  0.0225
 8586W        W24720  10.563  11.264   3.033  0.0140  0.2092  0.3328
 8587W        W24721  11.812  18.016   2.889 -0.1518 -0.0628  0.0641
 8588W        W24722  18.345   0.253  12.433 -0.0175 -0.0823 -0.0749
 8589W        W24723   7.504   6.980   1.916  0.0274 -0.0653 -0.2650
 8590W        W24724  12.310   0.120   5.324 -0.3284 -0.1003 -0.0287
 8591W        W24725  19.013   0.594  11.617  0.1577 -0.0598 -0.2028
 8592W        W24726   5.681   6.997  13.273 -0.4059 -0.0821 -0.1185
 8593W        W24727  12.123  18.411   2.101  0.4475 -0.0380  0.2864
 8594W        W24728   8.888  12.656  11.055 -0.2962  0.0108 -0.1353
 8595W        W24729   4.149  10.565   2.904  0.2710  0.0254  0.0529
 8596W        W24730   4.914  11.560   2.535  0.0788  0.0261 -0.0517
 8597W        W24731   5.756   4.423  12.897  0.1655 -0.1430 -0.1694
 8598W        W24732   1.439  18.981  10.881 -0.0331 -0.2180 -0.0112
 8599W        W24733   2.308   6.802   4.299 -0.1471 -0.0693  0.2719
 8600W        W24734  15.283   9.825   3.169 -0.1127 -0.1178  0.0639
 8601W        W24735  12.905   3.014  12.130 -0.1035 -0.2060  0.2866
 8602W        W24736  11.448  15.583   4.181 -0.0093 -0.0247  0.0605
 8603W        W24737   5.028  13.438  11.766  0.0386  0.1503  0.1609
 8604W        W24738   8.401  17.014  12.824 -0.2118  0.0019  0.2222
 8605W        W24739   1.838  11.049   2.398 -0.0990 -0.0101 -0.2117
 8606W        W24740   5.918   1.442   0.644  0.3046 -0.0632  0.1102
 8607W        W24741  10.899  19.094   1.450  0.1181  0.1260 -0.4011
 8608W        W24742   3.084   2.818  11.695  0.2013 -0.0536 -0.2041
 8609W        W24743  15.130   8.134  12.717 -0.0665 -0.1648 -0.0531
 8610W        W24744  13.794   3.038   2.596 -0.3678  0.0931 -0.2847
 8611W        W24745  15.701   5.296   0.100  0.2079  0.1877 -0.0876
 8612W        W24746   4.206  16.083  11.890  0.3852 -0.4071  0.0909
 8613W        W24747   4.017   5.357   3.867  0.1071  0.0888 -0.1439
 8614W        W24748  16.317  10.721  11.463 -0.0351  0.3130 -0.0071
 8615W        W24749  17.691   5.259   2.480 -0.1512  0.0259  0.1433
 8616W        W24750   1.881   8.789   2.821  0.2319 -0.1329 -0.1241
 8617W        W24751  13.239  10.505   5.237  0.1017  0.1104 -0.3072
 8618W        W24752   4.422  11.047  10.078  0.0423 -0.1983 -0.0699
 8619W        W24753   6.889  18.351  13.093 -0.0314 -0.1269  0.1419
 8620W        W24754  18.082   7.881   1.269  0.0640  0.3461  0.1064
 8621W        W24755   5.407   1.333   1.298 -0.1721 -0.2370 -0.1302
 8622W        W24756   9.117   2.377  13.881 -0.2532  0.0048  0.1344
 8623W        W24757  13.066  13.464   4.825 -0.1061  0.2530  0.1815
 8624W        W24758  13.028  13.943  12.482 -0.0290 -0.1012 -0.0011
 8625W        W24759   2.298   4.328  12.072 -0.0017 -0.1590 -0.0505
 8626W        W24760  19.234   7.411  10.046  0.0941  0.1588 -0.0092
 8627W        W24761  10.999   8.661  13.590  0.3377  0.2290  0.1161
 8628W        W24762  18.065   3.034   3.677  0.2007 -0.1735  0.1678
 8629W        W24763   5.670   1.981   4.052  0.0218  0.1665 -0.0596
 8630W        W24764   1.168   1.920  14.910 -0.6405 -0.0646  0.2092
 8631W        W24765  16.162  14.081   0.411  0.4191  0.0292 -0.2046
 8632W        W24766  14.126  11.381   2.213 -0.3658 -0.0022  0.3707
 8633W        W24767   2.541   3.442   3.377 -0.0556  0.2572  0.0130
 8634W        W24768  12.126   8.984   2.880 -0.3310  0.1706  0.3131
 8635W        W24769   6.076   2.098  10.745  0.2836  0.0995  0.2504
 8636W        W24770  17.798   2.274   1.364 -0.3279 -0.3211 -0.0651
 8637W        W24771   7.407   7.037   3.283  0.0970  0.2675  0.0313
 8638W        W24772   0.740   3.772  14.885  0.0632 -0.1240  0.0512
 8639W        W24773  13.450   1.214   0.581 -0.1331 -0.1663 -0.1879
 8640W        W24774  19.077  16.777   5.476 -0.0222 -0.0250  0.1524
 8641W        W24775  14.761  13.756  11.749 -0.2188 -0.3336  0.2706
 8642W        W24776   6.339   7.439  11.702 -0.0656 -0.3979  0.1430
 8643W        W24777   8.644  18.193   3.593  0.0836 -0.2248  0.1045
 8644W        W24778  11.326  10.935  11.238  0.3426 -0.0597 -0.1593
 8645W        W24779  16.711  14.351   4.409 -0.0651 -0.0793  0.5670
 8646W        W24780  12.716  10.534  12.423  0.1559 -0.0313  0.1660
 8647W        W24781  13.714  18.510  11.435 -0.0645  0.0884 -0.2670
 8648W        W24782   7.039   9.058  12.431  0.2716 -0.3990  0.0660
 8649W        W24783  16.769   8.186   1.530 -0.3262 -0.0181  0.1004
 8650W        W24784   9.263   3.454   3.452 -0.0163  0.0843  0.2048
 8651W        W24785  13.942  13.806   1.636 -0.1164 -0.2185 -0.0016
 8652W        W24786   1.610  13.048   1.738 -0.0671  0.1965  0.1764
 8653W        W24787  10.151  11.750  14.587  0.0047  0.1047 -0.2450
 8654W        W24788   4.211   4.885  14.669  0.0197  0.2488 -0.0267
 8655W        W24789   2.315   9.871   4.125  0.2233 -0.0383  0.1047
 8656W        W24790   6.662   3.396   2.970  0.2694  0.1993  0.2866
 8657W        W24791  16.297  18.621  11.059 -0.1736  0.0931  0.1635
 8658W        W24792   3.634  16.340   5.248  0.1106 -0.0696 -0.2199
 8659W        W24793  11.610   3.772  12.304 -0.1433 -0.2314  0.2893
 8660W        W24794   3.240  16.702   3.610 -0.3369  0.0429  0.3164
 8661W        W24795  19.162   4.724   1.837  0.2959 -0.1979 -0.2301
 8662W        W24796  12.371  16.772   0.305 -0.0809  0.1284  0.0144
 8663W        W24797   4.563  18.484   5.113  0.1545 -0.0179 -0.1066
 8664W        W24798   8.360   3.404   5.162  0.1064  0.0706 -0.1513
 8665W        W24799   3.587  14.810   2.099  0.0515  0.1464 -0.1839
 8666W        W24800   8.669   8.518   1.576  0.1501 -0.1656  0.2380
 8667W        W24801   0.290   0.584  12.106  0.1182 -0.0873 -0.3968
 8668W        W24802   8.818  13.884  12.386  0.0979  0.1903 -0.1026
 8669W        W24803   4.770   8.125   0.151 -0.0740  0.1586 -0.0191
 8670W        W24804  11.668   0.149   2.027 -0.2484 -0.0455  0.0404
 8671W        W24805   5.599  11.467  10.299  0.2879 -0.5248 -0.0205
 8672W        W24806   3.214   3.828  14.594  0.0945  0.3041 -0.0393
 8673W        W24807  18.164   4.348  10.830 -0.2604 -0.4280  0.2248
 8674W        W24808   4.451   6.049  13.923  0.1557  0.1959 -0.1633
 8675W        W24809  10.217   7.283   3.834 -0.1554 -0.1162  0.2387
 8676W        W24810   5.723   3.093   0.684  0.3210  0.1927 -0.2751
 8677W        W24811   9.135   9.714   2.210 -0.0979 -0.2901  0.3946
 8678W        W24812   0.336   5.854   9.837 -0.0008 -0.0466 -0.0570
 8679W        W24813   8.880  12.296   1.284 -0.3580  0.3239  0.1362
 8680W        W24814   0.467   0.015  12.813  0.0874  0.0567 -0.1465
 8681W        W24815  17.129  18.117  11.886  0.4577 -0.2485  0.1193
 8682W        W24816  12.622  14.698   3.209 -0.3572  0.2533  0.3918
 8683W        W24817   4.265   8.956   9.715  0.1437 -0.0320  0.2912
 8684W        W24818   4.113   0.490  14.815  0.1244  0.1030  0.1380
 8685W        W24819  10.613   4.007   2.294 -0.1571  0.1574 -0.2674
 8686W        W24820  18.031   6.251  13.567 -0.1408  0.0001 -0.0468
 8687W        W24821  10.229   2.387   4.625  0.1313  0.2511 -0.1301
 8688W        W24822   9.491   3.375   0.867 -0.0543  0.2117 -0.0837
 8689W        W24823  11.171   7.513   1.812  0.3390  0.0852  0.4532
 8690W        W24824  12.897   5.182  13.915 -0.0397 -0.0731  0.0718
 8691W        W24825   2.481   4.566  10.790 -0.0217 -0.0957  0.0557
 8692W        W24826  14.577  17.535  12.275 -0.1072  0.1536 -0.1480
 8693W        W24827  11.527   2.197  12.373  0.0888 -0.0175 -0.0203
 8694W        W24828  15.551  10.973   4.189  0.1916 -0.0920 -0.1064
 8695W        W24829  19.054   1.686  12.092  0.1482  0.0782  0.2361
 8696W        W24830  10.912   9.288   4.267  0.1037 -0.1122  0.0636
 8697W        W24831  19.063   8.997   1.380  0.3714 -0.1526  0.4756
 8698W        W24832   9.916   3.650   2.611  0.1134  0.2263 -0.2531
 8699W        W24833   1.406  11.860  13.518 -0.2702  0.1974 -0.1732
 8700W        W24834   5.351   7.411   4.309  0.2507  0.1067 -0.0716
 8701W        W24835  16.932   3.336  14.631  0.2181 -0.0764 -0.1423
 8702W        W24836   9.256   9.987   4.451  0.1328  0.0664 -0.0142
 8703W        W24837  16.156   0.086   3.338 -0.0358  0.3350  0.3925
 8704W        W24838  12.794  11.538  10.267 -0.1734  0.1258  0.1202
 8705W        W24839  18.177  13.454  10.572  0.0532 -0.1504  0.0975
 8706W        W24840  19.123   4.275  12.807 -0.0622  0.1061  0.0440
 8707W        W24841   3.714   9.007   2.069 -0.0596  0.2497 -0.2250
 8708W        W24842  17.327   9.790  12.300 -0.0646  0.3157  0.2829
 8709W        W24843   2.629  12.068   4.717 -0.1173 -0.3277  0.0841
 8710W        W24844   6.666   1.322  14.497 -0.1885  0.0683 -0.0695
 8711W        W24845   0.105   9.919   3.512  0.0731  0.0370  0.0835
 8712W        W24846   7.071   2.789  11.958  0.0661  0.0544  0.1015
 8713W        W24847  16.911  14.538  14.823  0.1275 -0.1717 -0.1131
 8714W        W24848  11.588   4.678  10.891  0.1185  0.2034 -0.1507
 8715W        W24849  12.625   1.075   2.492  0.0143 -0.2467  0.2402
 8716W        W24850   5.766   3.268  12.558  0.2443  0.1388  0.0364
 8717W        W24851  15.624   1.648   2.391 -0.0671 -0.2808  0.0551
 8718W        W24852  11.472   5.974   4.623  0.1125 -0.1900  0.1039
 8719W        W24853  10.930   7.746   2.512 -0.1410 -0.3000 -0.0749
 8720W        W24854   8.132  10.461  14.511 -0.2099 -0.0811  0.2863
 8721W        W24855  11.373   0.628  12.958  0.0647 -0.2792 -0.1720
 8722W        W24856   4.599  10.752  13.098  0.1462  0.0868 -0.0676
 8723W        W24857  18.324  18.147   5.475  0.2124  0.0702 -0.0855
 8724W        W24858  17.345  15.239  11.280  0.1743  0.0265  0.0195
 8725W        W24859  17.660   8.593  12.806 -0.2486 -0.1149 -0.1730
 8726W        W24860  14.588   1.320  14.385 -0.0700 -0.1757 -0.3573
 8727W        W24861  19.186  15.375  12.141 -0.1384  0.1146  0.0113
 8728W        W24862  11.958  13.645   0.164 -0.0802  0.2217  0.0179
 8729W        W24863  17.095   2.166  14.874  0.1369 -0.1398 -0.0130
 8730W        W24864  15.326   2.243   1.101 -0.0069 -0.1718 -0.1307
 8731W        W24865   8.748   5.045  13.331  0.0348  0.3325  0.0624
 8732W        W24866   0.244   2.084   1.515  0.1717 -0.1439  0.0539
 8733W        W24867  12.933   4.128   2.754 -0.0921 -0.0850 -0.1183
 8734W        W24868   2.666  18.608   3.374  0.0850 -0.2540  0.0071
 8735W        W24869  12.771   5.429   1.532  0.0693  0.0158 -0.2535
 8736W        W24870   3.946  18.108   3.353  0.0279 -0.2108  0.1690
 8737W        W24871   7.031  10.942   2.871 -0.1895  0.1180  0.2989
 8738W        W24872   5.810  15.877   0.700 -0.2293  0.1402 -0.0292
 8739W        W24873   4.359   8.851   1.544  0.4049  0.0740  0.0851
 8740W        W24874   2.289   6.719  13.283  0.0752 -0.1472 -0.1279
 8741W        W24875  12.304   0.526  12.724  0.1106 -0.0519 -0.1325
 8742W        W24876  12.349   3.403   0.759  0.0119 -0.0262 -0.1370
 8743W        W24877   5.313   8.421   1.082  0.3363  0.1965 -0.2377
 8744W        W24878   7.943  13.255   4.500  0.3369  0.4534 -0.0952
 8745W        W24879   9.739   8.305  10.234  0.2041 -0.1251 -0.0314
 8746W        W24880  13.118  19.077  11.827 -0.0778 -0.1893  0.1550
 8747W        W24881  10.938  11.551  10.413  0.1320  0.1824  0.3031
 8748W        W24882   9.972   0.455  12.347  0.1787  0.0819 -0.4046
 8749W        W24883   2.150  17.315  11.860 -0.0316  0.3224 -0.0984
 8750W        W24884   1.164  19.105  13.310 -0.2262 -0.1220  0.1063
 8751W        W24885  15.733   4.019   0.812  0.3074  0.5368 -0.2062
 8752W        W24886   5.724   7.911  10.212 -0.1801 -0.1875 -0.0501
 8753W        W24887  13.958   6.714   1.943  0.0647  0.0029 -0.0511
 8754W        W24888   2.983   3.366   9.276  0.2364  0.0846  0.0396
 8755W        W24889   0.659   9.709   2.680  0.0941 -0.1420 -0.1951
 8756W        W24890   5.379   9.155   3.751  0.0753  0.1232 -0.2027
 8757W        W24891   6.971  14.855  13.516 -0.2415 -0.0217  0.2069
 8758W        W24892   2.553  15.960  13.197  0.1677 -0.0615  0.3323
 8759W        W24893   8.096  13.040  13.923  0.1437  0.0636 -0.1614
 8760W        W24894   8.576  18.644  11.714 -0.0954  0.3481  0.0881
 8761W        W24895  13.113  12.502   1.300 -0.3357  0.3695  0.0416
 8762W        W24896  12.322   4.442  14.080 -0.1026  0.2559  0.0178
 8763W        W24897  15.037   9.524   0.064  0.3386  0.1902  0.0046
 8764W        W24898   5.621  12.615  12.974  0.0536 -0.2710  0.1112
 8765W        W24899   4.848   2.558  11.927  0.2328  0.0668 -0.0849
 8766W        W24900   5.063  12.495  11.657  0.0379  0.1552 -0.1714
 8767W        W24901   8.303  16.352   3.888 -0.3193 -0.0605  0.2579
 8768W        W24902  10.270  14.692   3.949  0.1703  0.0599 -0.1289
 8769W        W24903  14.853   9.686   4.761 -0.0565 -0.2475 -0.1499
 8770W        W24904   5.555   1.943   4.629  0.1752 -0.2497  0.3135
 8771W        W24905   3.410   2.413   1.215 -0.2149  0.2574 -0.0152
 8772W        W24906  14.854  11.904  14.480  0.1037  0.4482 -0.1039
 8773W        W24907   4.340   5.888   1.231  0.1480 -0.0397 -0.1501
 8774W        W24908  13.985  15.934   4.156 -0.1592  0.2615 -0.0551
 8775W        W24909  12.120   2.848  12.252  0.0005 -0.1274 -0.2469
 8776W        W24910   8.379   9.871   0.609 -0.4140 -0.2733  0.0945
 8777W        W24911  14.779  15.735   3.162  0.0063 -0.0846  0.4006
 8778W        W24912   7.987   2.567  10.477 -0.0480 -0.0787  0.2269
 8779W        W24913   0.119   2.137   4.700  0.1716 -0.1331 -0.1814
 8780W        W24914   3.820   3.628  11.067 -0.0989  0.1044 -0.0042
 8781W        W24915  13.703  15.570   0.384  0.2060 -0.0223  0.1850
 8782W        W24916   8.978  17.579   0.044  0.0459 -0.1034 -0.2578
 8783W        W24917   2.286  14.707   2.988  0.2774 -0.1598  0.2642
 8784W        W24918   4.239  14.543  11.860 -0.0921  0.0014  0.0829
 8785W        W24919   5.747  13.926   1.580 -0.0323 -0.2800 -0.0979
 8786W        W24920  10.154   2.417  12.596 -0.0786 -0.0377  0.4706
 8787W        W24921   8.914   2.703   4.492 -0.2510  0.0413  0.1601
 8788W        W24922  18.812  14.271   4.135  0.1946  0.1165 -0.2047
 8789W        W24923   8.398   4.400  11.583  0.0203 -0.1257  0.0246
 8790W        W24924   5.024  13.185  10.582  0.2477  0.5960 -0.4976
 8791W        W24925   5.850   9.969  10.331 -0.3051 -0.1504  0.3075
 8792W        W24926   0.363   7.515   0.910 -0.0067  0.1057 -0.0674
 8793W        W24927  17.834  13.497   0.451  0.3721 -0.1334  0.1255
 8794W        W24928  16.486   2.670   3.601 -0.1031  0.0450 -0.0843
 8795W        W24929  13.806   5.422   3.364 -0.0278  0.4824 -0.4123
 8796W        W24930  17.554   1.224   4.159  0.0568 -0.2102 -0.0021
 8797W        W24931   6.850  17.504  10.894  0.1735 -0.0603  0.0990
 8798W        W24932   5.996  16.122   1.742  0.0366 -0.1863  0.1050
 8799W        W24933   0.863  14.347   2.842 -0.0497  0.0692  0.0265
 8800W        W24934  16.168   1.585   0.921  0.1472 -0.1844  0.1428
 8801W        W24935   4.670   9.412  13.720 -0.2536 -0.0077  0.0308
 8802W        W24936  12.794  16.956   3.369  0.1751 -0.2101 -0.0244
 8803W        W24937  12.242   0.931   3.550  0.0074 -0.3917  0.1000
 8804W        W24938  17.238   1.041   3.787  0.0858 -0.0429 -0.0091
 8805W        W24939  18.844   0.988   6.040  0.0862 -0.3187  0.0044
 8806W        W24940  18.023   9.462   4.115 -0.1246  0.0304 -0.1934
 8807W        W24941  13.072  11.244   3.565 -0.0114 -0.0043 -0.2679
 8808W        W24942  18.494   1.108  13.645 -0.0958  0.0180  0.2044
 8809W        W24943   2.313  11.366   0.234 -0.4356 -0.2030  0.4193
 8810W        W24944   0.357   6.751  14.394 -0.0430  0.1266  0.1705
 8811W        W24945   3.501  17.740  11.851  0.0759  0.2286  0.0036
 8812W        W24946   1.464   9.071  12.552  0.2752 -0.1135 -0.0337
 8813W        W24947  16.164   6.832   1.493  0.2790 -0.0246 -0.2315
 8814W        W24948  15.767   0.722   1.367  0.3177  0.0752  0.4442
 8815W        W24949   1.184  17.671  10.954 -0.0257  0.1268 -0.1790
 8816W        W24950   4.282   2.760   1.628  0.0659  0.0468 -0.2014
 8817W        W24951  16.702  11.057  10.605 -0.2616 -0.1574 -0.1122
 8818W        W24952  14.192  17.464  10.912 -0.0226  0.1506  0.0288
 8819W        W24953   3.170   0.119   2.946 -0.3693 -0.0733 -0.2742
 8820W        W24954   8.574  17.879  13.281  0.1239 -0.5123  0.2406
 8821W        W24955   7.784   3.224  10.910 -0.2769  0.0042 -0.2192
 8822W        W24956   8.766  19.301  14.555  0.1664 -0.1103 -0.1621
 8823W        W24957   0.578   9.341  13.486 -0.0408 -0.0132  0.1982
 8824W        W24958  18.932   3.727   4.683 -0.0512  0.0334 -0.1687
 8825W        W24959   9.797  13.702  11.466 -0.2572 -0.1818  0.2643
 8826W        W24960   8.177   3.130   4.384  0.0213  0.1334 -0.1949
 8827W        W24961   4.526   5.055   2.483 -0.0319 -0.0257 -0.2095
 8828W        W24962   3.007  10.344   0.675  0.0667 -0.0629 -0.3526
 8829W        W24963  14.675  13.929  13.715  0.1567  0.3715 -0.0802
 8830W        W24964  17.282   7.084  10.402 -0.1603 -0.4467  0.0221
 8831W        W24965  17.908   0.364  14.727  0.0473 -0.1607 -0.1420
 8832W        W24966  11.015  12.958   1.397  0.0395  0.3604 -0.1120
 8833W        W24967   0.007  13.029  12.423  0.0164  0.1673 -0.1876
 8834W        W24968  16.542  14.470  12.114  0.0113 -0.1771  0.2029
 8835W        W24969  17.993   6.270   8.996  0.4192  0.1750 -0.0161
 8836W        W24970  11.204  13.371   3.393  0.2705 -0.0494  0.1870
 8837W        W24971  13.354   7.007   4.641 -0.0521 -0.0494  0.3588
 8838W        W24972  17.288   5.987   2.855 -0.0819 -0.0405  0.0344
 8839W        W24973   1.577   0.753   0.906  0.0706  0.3382 -0.1231
 8840W        W24974  14.504  14.779   2.258  0.1699 -0.3525  0.0322
 8841W        W24975   5.990   6.298   9.255 -0.4611 -0.3272  0.0905
 8842W        W24976  14.769  17.354  10.953 -0.2208 -0.0014  0.0166
 8843W        W24977  11.501  10.282   4.384  0.1610 -0.1781 -0.1590
 8844W        W24978  14.360   6.406   4.023  0.0212  0.1990  0.0627
 8845W        W24979   6.188  10.793  10.513 -0.3124 -0.0630 -0.3110
 8846W        W24980   3.860  11.899   2.706  0.2629 -0.3986 -0.2432
 8847W        W24981   2.758  14.662  12.029 -0.2045 -0.3528 -0.2656
 8848W        W24982   9.966  12.468   3.186  0.2446 -0.2927 -0.2457
 8849W        W24983   4.347   7.229  12.369 -0.0606  0.0841  0.2003
 8850W        W24984   6.328  17.488   0.201 -0.0420  0.0853 -0.0604
 8851W        W24985   3.464   5.962   2.020  0.0780  0.2596  0.1753
 8852W        W24986  11.224   1.311  14.323  0.2028  0.0929 -0.2682
 8853W        W24987   2.223   0.004   0.347  0.2671 -0.0993 -0.2216
 8854W        W24988   9.619  10.068  10.494 -0.2701 -0.0874  0.0731
 8855W        W24989  13.943   5.195  14.543  0.2844 -0.0257  0.2708
 8856W        W24990  18.971  14.666  13.946  0.1210  0.1161  0.1358
 8857W        W24991  11.434  13.476   4.973  0.3476 -0.1157  0.2073
 8858W        W24992  11.508   6.310  12.073 -0.0047 -0.0793  0.1402
 8859W        W24993  14.240   9.694   0.788  0.1653  0.0073 -0.3084
 8860W        W24994   3.431   1.868  12.685 -0.0648  0.0738  0.2186
 8861W        W24995  10.340   6.362  11.927  0.3694  0.2187  0.0915
 8862W        W24996   2.864   8.962   4.112  0.1386  0.0848 -0.0420
 8863W        W24997   4.922   9.085   4.019 -0.0189  0.3447 -0.2461
 8864W        W24998  15.123   1.639  12.311  0.0828 -0.0161 -0.1874
 8865W        W24999   2.855   6.775   9.929 -0.1882 -0.0152 -0.1335
 8866W        W25000   0.479   3.346   0.156  0.0174 -0.0044 -0.0806
 8867W        W25001   6.149  16.312   0.795  0.0339 -0.2171  0.2051
 8868W        W25002   0.534   2.685   1.126 -0.0272  0.0338  0.2798
 8869W        W25003  14.542  16.572   3.379  0.1195 -0.3169  0.0601
 8870W        W25004  11.108  16.472   1.563  0.0938  0.1121 -0.1274
 8871W        W25005  15.275  17.783  14.177  0.0338  0.1641  0.2033
 8872W        W25006  10.011   9.605   5.452 -0.0818 -0.1859 -0.3168
 8873W        W25007  19.218  14.666   3.032 -0.0276 -0.2684 -0.1117
 8874W        W25008  14.123   3.786   2.702 -0.1368  0.2080 -0.1053
 8875W        W25009  11.833  10.758  14.531 -0.2019  0.1536  0.1955
 8876W        W25010  18.419  15.310  14.162  0.1944  0.2128 -0.2843
 8877W        W25011   5.244  13.386   3.299  0.2320  0.1016 -0.1518
 8878W        W25012  12.696   2.149   1.221 -0.0420 -0.2385  0.0495
 8879W        W25013   5.808  12.767  10.772 -0.0216  0.0169 -0.2693
 8880W        W25014  10.812  15.643   4.412 -0.2859 -0.4229 -0.1397
 8881W        W25015   3.218   7.005   2.938 -0.0957 -0.1047 -0.0742
 8882W        W25016  16.665  14.076   0.218 -0.1007 -0.1390 -0.1569
 8883W        W25017   3.097   2.925   2.308 -0.2162  0.3333  0.1388
 8884W        W25018   7.160   4.132   3.124 -0.5829 -0.3228  0.1584
 8885W        W25019   4.885  10.131  10.545  0.0240 -0.0949  0.2395
 8886W        W25020  15.953  19.277  14.440  0.1417  0.1212 -0.0432
 8887W        W25021   3.014   4.203  11.592 -0.3522 -0.0296 -0.3411
 8888W        W25022   8.898  15.265   0.141  0.2055  0.0602 -0.0164
 8889W        W25023   2.637  17.502   3.833  0.3611  0.0744 -0.2411
 8890W        W25024   9.118   6.311   0.782  0.2795 -0.2099 -0.2538
 8891W        W25025  11.931   0.882  12.499  0.2045 -0.1429  0.1438
 8892W        W25026   1.348   5.141  10.255  0.1869  0.0995 -0.3286
 8893W        W25027  11.771   4.597   4.284 -0.1376  0.1932 -0.3392
 8894W        W25028  10.366  15.376   3.074  0.1163 -0.3594 -0.0874
 8895W        W25029   9.431   3.736  12.378  0.0285  0.2837 -0.0677
 8896W        W25030   4.645  13.198  13.403  0.0571 -0.0974 -0.1469
 8897W        W25031  12.491  15.456   6.146  0.1132 -0.0185  0.0249
 8898W        W25032  17.141   9.786   0.955  0.0024  0.1043  0.1512
 8899W        W25033  14.580  12.266  14.753  0.1106 -0.1026  0.3085
 8900W        W25034  16.945  15.579   1.225  0.0873 -0.1886  0.1401
 8901W        W25035   6.039  14.064   0.328 -0.0274  0.0069  0.0733
 8902W        W25036   1.899  11.512   0.364 -0.0082  0.0350  0.3320
 8903W        W25037   5.051   9.934  12.708 -0.0884  0.0115 -0.0821
 8904W        W25038  10.485   4.350  10.977 -0.1602  0.0667  0.0196
 8905W        W25039  13.094   1.816   1.303  0.1030  0.2173 -0.0748
 8906W        W25040   0.234  12.528  14.598 -0.2972 -0.0913 -0.2794
 8907W        W25041  15.045   1.255   0.240 -0.1844  0.0282  0.0229
 8908W        W25042  17.024  14.948   1.499 -0.1701 -0.2087 -0.0216
 8909W        W25043   5.213  12.774  13.871  0.0450 -0.0386 -0.2508
 8910W        W25044   6.855  12.434   3.426 -0.0925  0.4637  0.0415
 8911W        W25045   1.670   6.250  13.042  0.1163  0.1192  0.2573
 8912W        W25046   1.323  12.965   2.619 -0.1457  0.0121  0.0749
 8913W        W25047  14.746   1.549   1.349 -0.0449 -0.3542 -0.0337
 8914W        W25048   7.362  11.465  13.128  0.0509 -0.1923  0.2404
 8915W        W25049   7.553   6.989  14.212 -0.1995 -0.0614 -0.1697
 8916W        W25050  18.765   3.456  13.864 -0.4784 -0.1389  0.0464
 8917W        W25051   8.490   3.785  10.183 -0.0465 -0.0275 -0.2242
 8918W        W25052   2.207  18.139   2.559  0.1912 -0.1071  0.0246
 8919W        W25053   2.264   0.652   3.424 -0.3285  0.3377  0.2106
 8920W        W25054  19.101   5.472  13.954 -0.0970  0.0378  0.2233
 8921W        W25055  15.001   8.619  13.115  0.2228  0.2339  0.3256
 8922W        W25056   3.022   2.225   2.829 -0.0329  0.0844 -0.0727
 8923W        W25057   6.312  14.677   1.658  0.1195 -0.2687  0.0836
 8924W        W25058   8.375   6.609  14.572  0.1234 -0.2756  0.0130
 8925W        W25059  16.063  13.765  10.787 -0.1969 -0.1207 -0.0148
 8926W        W25060  18.687   9.971  11.112 -0.2571  0.3633 -0.1791
 8927W        W25061  15.685   3.366  10.831  0.0150  0.4552  0.0305
 8928W        W25062   1.809   5.376   5.135  0.1311 -0.2321 -0.2344
 8929W        W25063  15.390  15.901   4.911  0.0697 -0.0257 -0.4379
 8930W        W25064   5.397  10.576   0.951  0.1877  0.1151  0.1101
 8931W        W25065  18.048  18.743   4.000  0.2405 -0.0051 -0.0411
 8932W        W25066   3.038  16.892   4.107 -0.0896 -0.1936 -0.0221
 8933W        W25067  19.290   5.879   5.166 -0.1732 -0.2389  0.2043
 8934W        W25068  11.132   6.009  11.798 -0.1302 -0.1893 -0.2821
 8935W        W25069   5.749  11.878   2.691 -0.0029 -0.1878 -0.0956
 8936W        W25070   5.789  10.568  13.015  0.0997  0.3097 -0.1165
 8937W        W25071  15.301  18.817   1.010 -0.2961 -0.0713  0.2916
 8938W        W25072   1.924   2.332   0.053  0.2264 -0.0462 -0.0225
 8939W        W25073   6.899   2.251  10.996  0.2211 -0.2139 -0.1177
 8940W        W25074   3.551  13.653   1.339 -0.2752  0.3445 -0.0774
 8941W        W25075  18.678   8.890   0.052  0.1540  0.0182  0.0870
 8942W        W25076   0.302   4.932   1.644 -0.0960  0.1271 -0.0681
 8943W        W25077   6.783   5.728  10.765  0.2240 -0.0225  0.0655
 8944W        W25078   9.022   2.444   0.037  0.1337  0.3415  0.0789
 8945W        W25079   8.604   8.234  13.824 -0.1141 -0.1218 -0.2587
 8946W        W25080  16.501  18.412  13.803  0.1984 -0.1042  0.1149
 8947W        W25081  16.833   7.931  12.838  0.1254  0.0664  0.0574
 8948W        W25082   9.796   8.475  12.821 -0.1389  0.1284  0.0768
 8949W        W25083  14.851   2.165   5.394 -0.1607 -0.2890  0.1532
 8950W        W25084   2.223   5.625   4.444  0.2671 -0.0979 -0.0268
 8951W        W25085   9.647   0.865  13.666  0.1949  0.2407 -0.3284
 8952W        W25086  16.204  11.801   1.637  0.0515 -0.3232 -0.4767
 8953W        W25087  11.688  13.351   3.185 -0.0328 -0.4504  0.1372
 8954W        W25088  19.097  10.814  10.590  0.1524  0.2672  0.0143
 8955W        W25089   6.829   5.306   5.260  0.0465 -0.2674 -0.2230
 8956W        W25090  13.466   1.406   1.216 -0.1062 -0.0038  0.0569
 8957W        W25091   3.950  15.814   0.100 -0.0651  0.0226 -0.0605
 8958W        W25092  18.345   3.003   4.961 -0.0483 -0.3049  0.0765
 8959W        W25093   2.490  18.979  11.809 -0.0559  0.0039 -0.2381
 8960W        W25094  11.107  13.078   3.993 -0.1630  0.1672  0.2729
 8961W        W25095   1.934  16.633  14.033  0.0852  0.2526 -0.1406
 8962W        W25096  17.556   3.492  12.839  0.1217 -0.2128  0.1823
 8963W        W25097   5.712   0.593  10.605 -0.0166  0.3225 -0.1519
 8964W        W25098   6.836   3.740  13.277  0.2275 -0.2440 -0.0031
 8965W        W25099   4.676   0.721   5.591  0.4521  0.0944  0.3292
 8966W        W25100   4.490   4.377  14.541  0.0086  0.1653 -0.0912
 8967W        W25101   9.505   2.418  10.332 -0.1530 -0.0211  0.1794
 8968W        W25102  13.345  12.103  14.877 -0.0206  0.0060 -0.2774
 8969W        W25103  18.366   0.793   5.110 -0.1069 -0.0646 -0.0995
 8970W        W25104  15.581  10.523   3.790  0.3071 -0.4154 -0.1141
 8971W        W25105  13.604  16.309   4.857 -0.2866 -0.1799  0.2954
 8972W        W25106  17.415  10.484  12.128  0.0966  0.3569 -0.0251
 8973W        W25107   0.053  13.419   0.381  0.1711  0.0628  0.2059
 8974W        W25108   0.511   2.914   3.471 -0.0798 -0.2386  0.0745
 8975W        W25109  17.762   3.122  14.280  0.1015  0.2038  0.0266
 8976W        W25110  16.503   5.518  14.919  0.0564  0.0989  0.2013
 8977W        W25111   8.698   5.318   9.086 -0.1563 -0.2138  0.0288
 8978W        W25112  12.125   5.043   2.588 -0.1116 -0.0758  0.2462
 8979W        W25113   4.999   2.226   1.653  0.0679 -0.4077 -0.2080
 8980W        W25114  12.385  11.799   5.038  0.0327  0.1755 -0.2453
 8981W        W25115  16.084   0.188   1.993  0.0085 -0.2099 -0.2462
 8982W        W25116  16.454   8.295  12.988 -0.0069 -0.3552 -0.5532
 8983W        W25117  16.762   0.351   4.974 -0.0708  0.3156 -0.0344
 8984W        W25118  12.865  17.420   4.762  0.3015  0.1300  0.1842
 8985W        W25119  10.694   8.056   9.631  0.0841  0.0378 -0.2905
 8986W        W25120   5.293   6.905   3.856 -0.2685 -0.0085  0.1625
 8987W        W25121   2.518  13.481  10.759  0.3708  0.0333  0.0523
 8988W        W25122   0.719   1.303  10.728  0.1779 -0.2204  0.2088
 8989W        W25123  12.457   0.010  13.382  0.2488 -0.0136  0.0883
 8990W        W25124  17.680  12.840  13.057 -0.0967 -0.0550  0.1215
 8991W        W25125  17.633  18.160  13.246 -0.0166  0.0749 -0.3226
 8992W        W25126   7.457  11.425   4.825  0.2707 -0.2056  0.2212
 8993W        W25127  12.172  14.877  13.858 -0.1239  0.2138  0.0299
 8994W        W25128  17.316  11.535  14.309  0.2606  0.2962  0.0397
 8995W        W25129  12.746   4.494   2.389 -0.1741 -0.0338  0.2875
 8996W        W25130   7.572   8.504  11.080  0.1831 -0.3716 -0.1874
 8997W        W25131  13.028   6.120  13.113  0.0451 -0.2403  0.2715
 8998W        W25132  19.331   2.306  13.036 -0.0407  0.1142  0.0180
 8999W        W25133   1.520  13.172  10.187 -0.2079 -0.1464  0.3779
 9000W        W25134   9.576  10.431   2.292  0.3262  0.1614 -0.1200
 9001W        W25135   9.591   5.015  14.763  0.0948 -0.0283  0.0629
 9002W        W25136  13.131  15.704   3.284  0.0129  0.1795 -0.2083
 9003W        W25137   9.334   7.141   3.243 -0.1923 -0.1943  0.1239
 9004W        W25138  11.934   8.709   0.595 -0.0363 -0.2098 -0.2800
 9005W        W25139  11.199   4.561   1.626  0.3519  0.1045  0.0004
 9006W        W25140  11.199   0.735  13.457 -0.0868  0.0090  0.0949
 9007W        W25141  16.125  16.507  13.439  0.0930 -0.1387  0.1249
 9008W        W25142   6.536   7.274  13.831 -0.2078 -0.1014 -0.0265
 9009W        W25143  18.563  15.944   3.682 -0.1833  0.2910  0.0281
 9010W        W25144   6.142   6.938  14.037  0.2942  0.1087  0.1840
 9011W        W25145   2.670  10.130  12.057  0.1525 -0.2104 -0.2266
 9012W        W25146   2.602  11.746  13.330 -0.1994  0.3001 -0.2200
 9013W        W25147   3.673  12.161  12.589 -0.0547 -0.0621 -0.2448
 9014W        W25148  15.552  16.974  12.131 -0.2064 -0.1295 -0.1641
 9015W        W25149  12.126   1.763  14.631  0.3196  0.0753 -0.1365
 9016W        W25150   8.465   0.707  13.034  0.2156 -0.1802  0.2270
 9017W        W25151   1.538   9.550  12.748  0.1110 -0.3815  0.3323
 9018W        W25152  16.382   0.755   4.220  0.0125  0.1259  0.2666
 9019W        W25153   6.894   0.561   1.553  0.1242 -0.0175  0.2275
 9020W        W25154   3.720   2.856  11.112  0.1940 -0.1263 -0.1630
 9021W        W25155   8.479   8.723   0.906 -0.1676 -0.0070  0.0606
 9022W        W25156  15.182   5.611  12.690  0.0213  0.1048  0.0031
 9023W        W25157   9.870  18.061   5.930 -0.1688  0.2565 -0.1671
 9024W        W25158  13.476  14.051  11.063 -0.2200  0.1343 -0.0352
 9025W        W25159   5.251   2.277   0.076 -0.1589 -0.2994  0.0321
 9026W        W25160  15.178  11.127   0.117 -0.2931  0.1581 -0.2194
 9027W        W25161  12.396   7.466   4.186 -0.0678 -0.0953  0.2585
 9028W        W25162  18.842  10.441   2.484  0.1172  0.0672 -0.0464
 9029W        W25163   5.226  14.066  14.252 -0.2612 -0.0940 -0.0322
 9030W        W25164  13.319   4.638  14.430  0.0518 -0.1032 -0.0905
 9031W        W25165   8.618  11.711  10.141 -0.2104  0.0116 -0.0438
 9032W        W25166  11.003   6.662   4.765  0.0522  0.2073 -0.2332
 9033W        W25167  12.530   5.507  14.950  0.1029 -0.2351  0.0415
 9034W        W25168   9.686   8.440   1.209  0.4258  0.2314 -0.1199
 9035W        W25169   0.261   2.507  14.385  0.2759 -0.0345  0.3213
 9036W        W25170   0.422   7.046   1.121 -0.0786  0.0973  0.0683
 9037W        W25171   6.448  11.496  11.357  0.2499 -0.1651 -0.4090
 9038W        W25172  15.065  11.903   9.797 -0.0576  0.0364  0.2455
 9039W        W25173  18.241  15.861   2.565 -0.0252 -0.1836  0.0251
 9040W        W25174  10.776   5.779  13.191 -0.1680 -0.0623  0.0145
 9041W        W25175   4.903   6.696   9.968 -0.2830  0.0208 -0.1849
 9042W        W25176   2.863  17.434   3.169  0.0870 -0.2595  0.0802
 9043W        W25177   4.123   1.212   9.762 -0.1703  0.0059  0.0783
 9044W        W25178  10.222  13.063   2.042 -0.0293 -0.2365  0.0547
 9045W        W25179  16.274  12.533   4.932  0.4230 -0.0239  0.0777
 9046W        W25180   4.175  19.090  13.045  0.1461  0.0164  0.1878
 9047W        W25181  14.863  18.797  11.941 -0.1622  0.0676 -0.0436
 9048W        W25182   2.464  10.114   2.543  0.0466 -0.2690  0.2157
 9049W        W25183  11.482   9.334  11.041 -0.0509 -0.0767 -0.0250
 9050W        W25184  11.047  16.665   5.647 -0.1588 -0.2608  0.3106
 9051W        W25185   5.005   1.910  13.519 -0.0321 -0.2237  0.2611
 9052W        W25186  16.886   4.102  10.687  0.2279 -0.0327 -0.0139
 9053W        W25187  16.384   0.499  14.229 -0.3706  0.4748 -0.0232
 9054W        W25188   3.377  14.581   4.324  0.1466  0.0810 -0.0428
 9055W        W25189   0.236  17.991   1.497  0.2178 -0.0232 -0.0931
 9056W        W25190   4.631   1.585  10.904 -0.1438 -0.0667 -0.0404
 9057W        W25191   8.039   5.013   5.103 -0.3210  0.0658 -0.3930
 9058W        W25192  11.737   0.784  11.540 -0.5773  0.0353  0.1757
 9059W        W25193  10.288   8.118   3.024  0.1403  0.3927  0.4053
 9060W        W25194  13.833  13.536   4.839 -0.5455 -0.1169  0.1528
 9061W        W25195   9.666  14.748   3.566 -0.2637  0.1274 -0.3163
 9062W        W25196   2.241   7.977   3.146 -0.2178  0.1197  0.0204
 9063W        W25197  13.796  10.565  13.699 -0.0648  0.0768  0.0942
 9064W        W25198   3.810  18.039   0.726  0.0796 -0.3259 -0.1184
 9065W        W25199   0.140  18.475  13.789  0.2197 -0.0934  0.1216
 9066W        W25200  11.871   5.518  10.780 -0.5442  0.0739  0.2527
 9067W        W25201   4.368  16.274  11.502  0.0100  0.4436 -0.0875
 9068W        W25202  14.303  12.459   9.651  0.0744 -0.1502  0.2539
 9069W        W25203  12.840   2.188  11.165 -0.0611  0.1816 -0.3169
 9070W        W25204  12.654   3.587   1.968 -0.0758  0.0245  0.0621
 9071W        W25205   5.397   8.596   2.468  0.0433 -0.2313 -0.2761
 9072W        W25206  14.458  16.141  10.521  0.0420  0.0770  0.1969
 9073W        W25207   7.449   7.264  12.129 -0.0057  0.0114  0.1607
 9074W        W25208   4.787  13.253   3.484 -0.1298  0.0930  0.2723
 9075W        W25209  17.244  13.082  12.834  0.3179  0.3737  0.1432
 9076W        W25210   8.028   4.726   4.018  0.0457  0.0475  0.2653
 9077W        W25211  12.499  16.518   1.763 -0.1268  0.0327  0.0870
 9078W        W25212   1.157   7.357  11.935  0.0349  0.2213  0.3358
 9079W        W25213  19.133   2.754  13.021 -0.1519 -0.0812 -0.0279
 9080W        W25214  14.268  15.571  11.341 -0.0476  0.4255 -0.4214
 9081W        W25215  17.877   6.593  14.733  0.0503 -0.1560 -0.1810
 9082W        W25216   7.260   7.455   1.048 -0.2462  0.1159 -0.4204
 9083W        W25217  10.902  16.205   1.910 -0.0141  0.2890 -0.1200
 9084W        W25218  14.335  17.485   5.720  0.0519 -0.1573  0.1700
 9085W        W25219  12.137   4.759  11.100 -0.0745 -0.0907  0.0126
 9086W        W25220   8.279   1.564   0.772  0.0985 -0.0272  0.1828
 9087W        W25221   7.485  15.123   4.481 -0.0508  0.3471  0.2313
 9088W        W25222  18.905  12.103   5.171  0.1635 -0.1987  0.0690
 9089W        W25223   3.375   6.535  11.265 -0.0609 -0.0295  0.0986
 9090W        W25224  14.181  16.211  13.557 -0.2102  0.1904  0.1705
 9091W        W25225   9.080  13.961   3.572 -0.1315 -0.2428  0.2190
 9092W        W25226   7.995  15.513   0.088 -0.0692  0.1945 -0.0833
 9093W        W25227   5.859  14.277   4.269  0.1799 -0.3522  0.3966
 9094W        W25228   7.625   2.745   4.942 -0.2885  0.0668  0.2819
 9095W        W25229  16.292   1.496   3.450  0.4746 -0.1355  0.3142
 9096W        W25230   5.831   4.572   1.213 -0.2905 -0.2293 -0.0002
 9097W        W25231   7.945   2.207   4.490 -0.2910  0.1285 -0.1772
 9098W        W25232  10.401  15.124  13.647  0.2665 -0.0711 -0.2126
 9099W        W25233   8.279  10.024   1.213 -0.1851 -0.1930 -0.1577
 9100W        W25234   7.515  12.115   4.250 -0.1212  0.0115 -0.1378
 9101W        W25235   0.486  19.150   3.916  0.0669  0.3583  0.1018
 9102W        W25236  13.245   3.803   3.023 -0.1118  0.0598 -0.3692
 9103W        W25237   0.246   3.856   0.011 -0.0643 -0.2306 -0.1107
 9104W        W25238   7.206   7.386  14.967 -0.2888 -0.0243 -0.2051
 9105W        W25239   2.083   3.562   0.816  0.0529  0.0830  0.0800
 9106W        W25240  15.639   9.057   4.047  0.1249 -0.2476 -0.0970
 9107W        W25241   1.353   0.892  14.876  0.0005 -0.1434  0.2269
 9108W        W25242  15.842   8.392   3.476 -0.2459  0.0392  0.2374
 9109W        W25243   5.274  18.805   3.238  0.4046  0.1891 -0.2004
 9110W        W25244   8.559   1.936  12.904 -0.2656  0.0427 -0.0494
 9111W        W25245   3.099   8.011  14.093 -0.0270 -0.0393  0.1406
 9112W        W25246  17.384   2.578   4.840  0.0829  0.2336  0.1284
 9113W        W25247   1.677   7.134  10.666  0.0763  0.0911  0.2010
 9114W        W25248  10.786  14.400   1.202 -0.0202  0.2900  0.0937
 9115W        W25249   6.355  14.130  13.593  0.0863  0.2284  0.0218
 9116W        W25250   2.131  18.505   2.950 -0.3455 -0.4566  0.0767
 9117W        W25251  10.003  16.320   4.532  0.0940 -0.0151  0.1548
 9118W        W25252  11.861  17.962   3.953 -0.2588 -0.1217  0.3326
 9119W        W25253   8.737   1.471   4.169  0.1670 -0.1711  0.4629
 9120W        W25254   9.915   5.738  11.164 -0.1049 -0.2335 -0.0101
 9121W        W25255   9.142  16.681  14.051  0.0901  0.1699 -0.1432
 9122W        W25256  13.470   2.938  11.949  0.0440 -0.1303 -0.1072
 9123W        W25257   1.347  10.114   9.432 -0.0387 -0.4652 -0.2253
 9124W        W25258  18.553   3.195  12.611 -0.5009 -0.0577 -0.1796
 9125W        W25259   0.662  12.968   1.674  0.0164  0.1806  0.3703
 9126W        W25260  14.206   4.598  14.828 -0.0955  0.0969 -0.0236
 9127W        W25261  15.670   9.615  13.690  0.0006 -0.4113 -0.1136
 9128W        W25262   5.066   5.536  14.650 -0.2010  0.2119  0.3631
 9129W        W25263  15.867   5.476   4.320  0.0344 -0.0131 -0.2292
 9130W        W25264  17.952  11.000  11.948  0.0826 -0.1453  0.0926
 9131W        W25265   3.989   1.374   1.844 -0.0081  0.4165  0.1170
 9132W        W25266  12.503   7.242   0.593  0.0231  0.1073 -0.1614
 9133W        W25267  12.499   8.974  11.185  0.1013  0.2689 -0.0326
 9134W        W25268  16.360   1.163  11.862  0.1921  0.0424 -0.0946
 9135W        W25269  19.284   1.463  11.679 -0.0949  0.2436 -0.0439
 9136W        W25270  11.722   7.067   2.236 -0.1332  0.2021 -0.2616
 9137W        W25271  14.468  17.251  11.494 -0.0001 -0.1084  0.0948
 9138W        W25272  16.342  15.857  14.958  0.1250 -0.3902 -0.0603
 9139W        W25273   0.682  14.087   9.371  0.2513 -0.4122  0.2328
 9140W        W25274   8.441  17.605   0.143 -0.2807 -0.0014  0.1070
 9141W        W25275  19.017   6.028   2.358  0.1779  0.3684  0.2815
 9142W        W25276   5.547   8.821   0.118 -0.0871  0.0940  0.1787
 9143W        W25277   3.742  17.393   0.033  0.1360  0.3263 -0.1558
 9144W        W25278  15.860   0.190   3.803 -0.1849 -0.1633 -0.0518
 9145W        W25279  15.431   0.955  11.858  0.2908 -0.0827 -0.2482
 9146W        W25280  10.984   6.672  10.466  0.0766  0.2834 -0.2398
 9147W        W25281  16.045   5.918  11.344  0.0090 -0.2381 -0.4807
 9148W        W25282  11.272   2.537  12.950  0.0856  0.3088 -0.1266
 9149W        W25283  15.532  12.158  10.631  0.0265  0.1504 -0.0451
 9150W        W25284  11.751   2.908  13.611  0.0372 -0.0301  0.1449
 9151W        W25285   4.591   9.824  14.557  0.1426  0.1982 -0.3102
 9152W        W25286   0.449  13.963  13.179  0.0735  0.0578  0.1684
 9153W        W25287  17.271  12.752   2.940  0.1155 -0.0847 -0.1064
 9154W        W25288  17.608  15.254  13.143 -0.0059 -0.1699  0.3058
 9155W        W25289  14.393  17.197   5.256 -0.2595  0.1808 -0.1418
 9156W        W25290   0.716   4.330   4.610  0.1119 -0.0629  0.1437
 9157W        W25291   9.800  16.198   5.854 -0.0281 -0.4122  0.0512
 9158W        W25292   8.800  12.835   3.279 -0.1124  0.0109  0.2063
 9159W        W25293   3.493  18.885  14.464 -0.3144  0.1494  0.3365
 9160W        W25294  15.416   6.857  11.350  0.1744  0.1539  0.0037
 9161W        W25295  17.549   4.436  10.032  0.3001  0.3129 -0.0520
 9162W        W25296   5.436  15.181  10.708  0.2306 -0.1786 -0.1349
 9163W        W25297   6.573   2.817  11.241 -0.0782  0.1368 -0.2773
 9164W        W25298   6.105   5.593   2.248  0.1226  0.0668 -0.3615
 9165W        W25299  18.265  18.831   2.933 -0.3492 -0.1216 -0.0823
 9166W        W25300   8.382   5.522  11.022  0.2661  0.0049  0.1654
 9167W        W25301  14.049  19.237  12.291 -0.0428 -0.0628  0.0852
 9168W        W25302   2.065  13.539   4.897 -0.3824  0.0829 -0.1494
 9169W        W25303   6.359   6.495  14.722  0.0291 -0.0911 -0.0256
 9170W        W25304  16.498   5.365   2.672 -0.0383  0.1037 -0.0224
 9171W        W25305  14.970  18.073   4.927  0.1513  0.0347 -0.3097
 9172W        W25306  12.111   4.859   3.111  0.1616 -0.1741 -0.2601
 9173W        W25307   2.836   7.417  11.584  0.1792 -0.0257 -0.1922
 9174W        W25308  17.394  16.216   1.629  0.2884 -0.0360 -0.1147
 9175W        W25309  16.568   6.920  12.211  0.1939  0.3297  0.0705
 9176W        W25310   7.700  15.545  12.398 -0.1043 -0.1198  0.1393
 9177W        W25311   8.472   3.200  14.380  0.0473  0.1651 -0.0158
 9178W        W25312   9.017  11.354   3.900  0.3051 -0.1618 -0.2505
 9179W        W25313   7.560   8.583   4.139 -0.1789  0.1053  0.2024
 9180W        W25314   5.661  16.478  11.921 -0.2197  0.0470  0.1867
 9181W        W25315   9.385   9.680   0.525 -0.0181  0.3495 -0.2976
 9182W        W25316  10.994   6.424   0.456  0.1147 -0.0290  0.0072
 9183W        W25317   6.456   4.588  10.208  0.1329 -0.0463 -0.1621
 9184W        W25318  18.373   1.746   1.070  0.1859  0.1951  0.0944
 9185W        W25319   4.329  19.337  14.812  0.1280 -0.1051  0.0680
 9186W        W25320  17.811  14.142  12.761  0.0927  0.0441  0.0190
 9187W        W25321  13.198  18.945   5.059  0.2980 -0.2575 -0.1865
 9188W        W25322   6.823   7.095  13.448 -0.0372 -0.1342  0.2085
 9189W        W25323   8.837   7.168  12.522  0.2525  0.2328 -0.2551
 9190W        W25324   5.812  16.494  12.849  0.4451  0.0763  0.1204
 9191W        W25325  12.605  17.483  11.443 -0.1832 -0.1796 -0.1232
 9192W        W25326   9.821  11.320  14.432  0.0944 -0.3006 -0.0616
 9193W        W25327  17.442   4.978   0.195  0.2135  0.0968  0.1612
 9194W        W25328  18.654   3.968   0.406  0.0906 -0.2993  0.1701
 9195W        W25329  10.162   5.971  14.338  0.2768  0.4330 -0.2220
 9196W        W25330   8.123   0.944   3.629 -0.0530 -0.0124 -0.3096
 9197W        W25331  19.233  18.025  11.459 -0.0562  0.1023 -0.2253
 9198W        W25332   0.466  10.607   4.914 -0.0782 -0.2148  0.1169
 9199W        W25333  11.995  10.152   2.801 -0.2924  0.1808 -0.2955
 9200W        W25334  13.789   3.827   1.132  0.1621  0.0212 -0.2072
 9201W        W25335  17.901  16.409  12.388  0.1809 -0.3528  0.1038
 9202W        W25336   6.605   4.372  10.754  0.0712 -0.2332  0.0703
 9203W        W25337   9.688  16.353  13.194 -0.0827  0.2328  0.1743
 9204W        W25338  16.492  15.842   1.153 -0.2377  0.1828 -0.2245
 9205W        W25339  16.628   8.764   3.219  0.3479  0.2367 -0.3962
 9206W        W25340   6.041  15.242   9.908  0.2612 -0.1365  0.2785
 9207W        W25341   2.895  15.766   5.177 -0.1356  0.1551  0.0647
 9208W        W25342   9.856   5.230   0.142 -0.0777  0.2552 -0.0179
 9209W        W25343  11.224  13.749   0.690 -0.3314 -0.3161  0.1925
 9210W        W25344  18.534  18.212  14.710 -0.1347 -0.1605 -0.3500
 9211W        W25345  18.650   1.052  12.310 -0.3852 -0.1739  0.0827
 9212W        W25346   1.332  19.152   5.126 -0.3267  0.3321  0.0758
 9213W        W25347   8.105   3.782   1.906  0.1855 -0.2163 -0.2475
 9214W        W25348   0.924   1.860  12.815 -0.2647  0.0468  0.3310
 9215W        W25349   2.808   1.341   0.743  0.1366  0.0739 -0.1621
 9216W        W25350   9.386   8.357   0.777 -0.1693  0.2294 -0.3672
 9217W        W25351  12.031   9.130  12.620 -0.0600  0.2117 -0.0257
 9218W        W25352   9.810   5.718  14.637 -0.1369  0.1498  0.0476
 9219W        W25353   8.694  14.156  10.569 -0.2005 -0.2398  0.0695
 9220W        W25354   3.760  15.774  10.017 -0.0788  0.2128  0.3459
 9221W        W25355   7.944  11.576  10.847  0.2322 -0.0042  0.2054
 9222W        W25356   1.655  14.498   2.139  0.4066  0.1588  0.0097
 9223W        W25357   1.356   6.602   3.413  0.0072  0.1847 -0.2880
 9224W        W25358  19.105  10.910  13.998  0.1069 -0.3759  0.2532
 9225W        W25359   8.987  18.018   0.294 -0.1257 -0.0963 -0.3686
 9226W        W25360  13.367   3.233  14.855 -0.3004  0.2435 -0.1176
 9227W        W25361  12.395  13.361   1.944  0.0430 -0.3509  0.2055
 9228W        W25362   2.224  12.336  12.290 -0.1321  0.2917 -0.0596
 9229W        W25363   2.345  16.436   0.788 -0.4146  0.2709 -0.2179
 9230W        W25364   8.044  15.756   0.548 -0.0695  0.4086  0.5236
 9231W        W25365   6.160   9.393  11.048  0.2496  0.1342 -0.2365
 9232W        W25366   4.703   6.907  11.378  0.1238 -0.3079 -0.0827
 9233W        W25367   2.683  13.244   1.014  0.0279 -0.1096 -0.0641
 9234W        W25368  12.986   0.621   5.576 -0.3061 -0.1633 -0.1905
 9235W        W25369   3.153  12.558   0.667  0.1841 -0.0833  0.2377
 9236W        W25370  15.896   7.043   4.022 -0.2864 -0.2357  0.1033
 9237W        W25371   7.146   5.652  13.683  0.0382  0.0370  0.2488
 9238W        W25372   1.111  13.598   3.432 -0.2083 -0.0365  0.0151
 9239W        W25373  13.397  15.944   2.573 -0.2432 -0.1160 -0.0232
 9240W        W25374   2.582  14.610  13.344  0.1987 -0.5825 -0.1785
 9241W        W25375  19.296  10.807  11.584 -0.2069  0.1930 -0.0673
 9242W        W25376   1.670   8.085  14.218  0.0020 -0.0540 -0.0653
 9243W        W25377   0.733   5.835  10.955 -0.0806  0.2222 -0.1654
 9244W        W25378   2.511   3.472  14.002 -0.2995  0.1102 -0.2713
 9245W        W25379   5.016   8.867  14.438 -0.1663 -0.0853 -0.1379
 9246W        W25380   7.656  15.611   0.858  0.1907  0.2373 -0.0509
 9247W        W25381  10.215   0.656   0.761 -0.0245  0.1607  0.1355
 9248W        W25382   1.760   5.163  11.843 -0.1284 -0.1133  0.2271
 9249W        W25383   4.944  15.009  14.197  0.1821 -0.3264  0.0073
 9250W        W25384  13.855  12.441  14.060  0.1430 -0.3904  0.0965
 9251W        W25385  12.880   5.370   2.090  0.0861 -0.0416  0.1506
 9252W        W25386   2.481  13.531   2.375 -0.1509 -0.0950  0.2456
 9253W        W25387  13.900  15.744  13.601 -0.1345 -0.0664 -0.1207
 9254W        W25388  16.182   2.303   1.291 -0.0999  0.2817  0.2265
 9255W        W25389   1.643  16.512  11.385  0.0769  0.0881  0.0254
 9256W        W25390  15.342   3.273  13.611  0.0724 -0.1361  0.0347
 9257W        W25391  13.574  10.346   4.921 -0.0157 -0.0559  0.1359
 9258W        W25392   7.610  10.158   5.742 -0.2920  0.1715 -0.3772
 9259W        W25393   1.766  15.398  11.943 -0.1728  0.1312  0.2230
 9260W        W25394  11.534  10.049   2.576 -0.1599  0.1544  0.1398
 9261W        W25395   9.527  17.556   5.748  0.0895 -0.1437  0.0293
 9262W        W25396  18.268   0.712   0.081 -0.1702 -0.1422  0.2085
 9263W        W25397   9.685   3.688   5.073  0.1826 -0.0583  0.1256
 9264W        W25398  19.158  14.847   9.905  0.3028 -0.2901 -0.0928
 9265W        W25399   7.226  16.366   0.912  0.1324 -0.2040  0.1463
 9266W        W25400   6.960   5.308  11.120 -0.3027  0.0558 -0.0312
 9267W        W25401   5.040  12.395   1.236  0.2788 -0.0277  0.3342
 9268W        W25402   6.884  13.067  11.136  0.0093  0.2775 -0.0360
 9269W        W25403   5.501  18.362   3.100  0.1823  0.0580  0.1314
 9270W        W25404  13.719   9.930   0.216 -0.2942 -0.2270 -0.1053
 9271W        W25405   4.167   6.812   0.773  0.0470 -0.0611 -0.0971
 9272W        W25406  15.225  16.365   1.770 -0.1075  0.0300  0.0423
 9273W        W25407   3.321   1.738  10.226  0.3451  0.1881  0.0499
 9274W        W25408   0.751   3.399   0.798 -0.1292  0.4736 -0.1465
 9275W        W25409   5.966  13.009  13.017 -0.1263 -0.0298 -0.0019
 9276W        W25410   6.616  15.151  12.583  0.0954  0.3277 -0.0331
 9277W        W25411   9.459   9.398  12.902  0.0646  0.1545  0.0547
 9278W        W25412  15.155  17.727   1.086  0.0114  0.0419  0.0762
 9279W        W25413  11.469   7.146   0.891 -0.0074 -0.1273  0.1691
 9280W        W25414   2.853  13.292   4.209  0.0028  0.0059 -0.0887
 9281W        W25415  13.011  10.015   3.465 -0.0871  0.1640 -0.2582
 9282W        W25416   6.136   8.415  14.072  0.0686  0.0571 -0.0203
 9283W        W25417  15.031   8.359   0.441  0.2354 -0.1026  0.0533
 9284W        W25418   6.333  14.258  12.899 -0.0530 -0.3911 -0.0091
 9285W        W25419   2.829  18.500   4.560 -0.1643  0.1933  0.0068
 9286W        W25420   3.998   9.770   4.192  0.2638  0.3795  0.1497
 9287W        W25421  18.188  14.220   2.242  0.2998 -0.0370  0.0962
 9288W        W25422   5.471   4.254  14.335 -0.0211 -0.2644 -0.0015
 9289W        W25423   3.588   7.914  11.666 -0.0750 -0.3670 -0.4354
 9290W        W25424  10.629  11.306   5.220  0.2866 -0.3890 -0.0605
 9291W        W25425  16.316  10.129  11.855  0.0932 -0.0880  0.1670
 9292W        W25426  14.695   0.376  11.523  0.4423 -0.1810 -0.0356
 9293W        W25427   9.810   9.019  13.724 -0.0609  0.0742 -0.2547
 9294W        W25428  17.160   1.470  11.694 -0.1119  0.0993 -0.1452
 9295W        W25429  15.657   5.535  12.711 -0.2147  0.2943 -0.3708
 9296W        W25430   7.168   4.529  10.756 -0.2366  0.1651 -0.0872
 9297W        W25431   3.893  10.132   3.062  0.3046  0.1178 -0.2070
 9298W        W25432  14.882   0.645  12.914 -0.0809  0.5393 -0.2091
 9299W        W25433  16.180   2.835   2.117  0.0889 -0.2239  0.0217
 9300W        W25434  18.631   7.147   9.402  0.1902 -0.3017  0.1755
 9301W        W25435   8.269  10.923  11.193 -0.2791 -0.2316 -0.3360
 9302W        W25436  18.452   0.715  12.613  0.0545  0.0885  0.0019
 9303W        W25437  14.291  18.890   1.346  0.1599 -0.2895 -0.1886
 9304W        W25438   9.916   1.527   0.127 -0.4219 -0.1396 -0.0127
 9305W        W25439  13.548  12.845  14.263 -0.1756  0.0605 -0.1291
 9306W        W25440  10.980  16.790   0.990 -0.4660 -0.2399 -0.1195
 9307W        W25441  16.981   7.957   3.943 -0.3605 -0.2359  0.0873
 9308W        W25442   5.219  17.488   4.274 -0.0227  0.0302  0.0184
 9309W        W25443   4.206   2.122   1.522  0.2000 -0.2090  0.0508
 9310W        W25444  14.221  12.313   3.402 -0.1742 -0.1580  0.0078
 9311W        W25445   6.141  19.033  14.826 -0.4438  0.0439 -0.1541
 9312W        W25446  17.837   0.365  11.713  0.1712 -0.3396  0.1979
 9313W        W25447   0.400  13.334  12.578 -0.3422  0.2040  0.0222
 9314W        W25448  12.154  15.667   3.586 -0.3892  0.1046 -0.2047
 9315W        W25449  14.681   3.306  12.379 -0.2407 -0.0563 -0.1887
 9316W        W25450   4.557   2.694   0.610 -0.0804 -0.0014 -0.2613
 9317W        W25451   9.738   2.783  12.571  0.0974 -0.1441 -0.4149
 9318W        W25452   8.112   5.757   1.010 -0.1283 -0.0838  0.0513
 9319W        W25453   5.481  13.058   1.426 -0.3702  0.0703 -0.1341
 9320W        W25454   1.437  16.738   1.601 -0.3177 -0.0519  0.1388
 9321W        W25455  18.768   9.690   0.558  0.3802 -0.2933 -0.0554
 9322W        W25456   2.265  10.048   2.976 -0.1747  0.3577  0.0329
 9323W        W25457   4.296   9.987   1.229 -0.0873 -0.0950 -0.1581
 9324W        W25458  13.338  16.199   5.300  0.0233  0.2226 -0.3935
 9325W        W25459  18.165   1.660   5.560  0.0749 -0.1051  0.3904
 9326W        W25460  10.261  16.580   2.693  0.4571 -0.0786 -0.2620
 9327W        W25461   4.515   4.486   3.936 -0.1416 -0.0008  0.5509
 9328W        W25462  10.500  16.251   3.562 -0.0679 -0.0238 -0.1867
 9329W        W25463   7.194  15.847  10.945 -0.0215 -0.1452  0.2060
 9330W        W25464   9.242  17.475   3.437 -0.2393 -0.1217 -0.0899
 9331W        W25465   9.262  13.142   0.037 -0.0686  0.0761  0.3453
 9332W        W25466   3.742  14.074  10.333 -0.0450 -0.1668 -0.3217
 9333W        W25467  13.952   9.181  12.710  0.0742  0.1714 -0.0593
 9334W        W25468  18.198   5.693   2.204 -0.0512 -0.0862  0.1645
 9335W        W25469  12.045   3.804   3.005 -0.0143  0.0030 -0.1881
 9336W        W25470  12.950  18.039   0.824 -0.1721  0.0310 -0.1611
 9337W        W25471  12.514   7.485  14.054  0.1414  0.0530 -0.2280
 9338W        W25472  14.664   7.060  14.588 -0.1803  0.0597  0.0523
 9339W        W25473  17.163  15.060  11.685  0.2233  0.0967  0.1227
 9340W        W25474  12.576   7.584  11.579 -0.0850 -0.3746  0.0508
 9341W        W25475  17.652  10.001  14.688  0.0360  0.1370  0.2020
 9342W        W25476  18.756   0.139  11.028 -0.0180  0.2215  0.1437
 9343W        W25477   3.548   1.879   0.317 -0.1259 -0.2353  0.0120
 9344W        W25478  17.157  12.542  11.765  0.2951 -0.1511  0.0083
 9345W        W25479   4.460   1.685   2.874  0.1665  0.0315  0.2317
 9346W        W25480   1.977   5.256   3.060 -0.2609 -0.0832  0.1141
 9347W        W25481  16.434   1.448   1.869  0.3793 -0.0259  0.0556
 9348W        W25482  12.795  12.199  14.005  0.2182 -0.0983 -0.0876
 9349W        W25483  14.626  10.010   3.876 -0.3926  0.0651 -0.1419
 9350W        W25484  16.075  19.288   6.043 -0.0113 -0.0077 -0.1257
 9351W        W25485   0.624   1.701   1.523  0.1593 -0.1836  0.2967
 9352W        W25486  16.737   3.656  10.892 -0.2013  0.2769 -0.0577
 9353W        W25487  19.146  17.806  12.041 -0.0026 -0.0084  0.0792
 9354W        W25488  12.529  12.021  13.057 -0.1598  0.1355  0.2126
 9355W        W25489   6.156   1.407   5.466 -0.1659  0.3289  0.0554
 9356W        W25490   6.524   9.439   3.437 -0.2013 -0.2007  0.1179
 9357W        W25491   7.487   0.463   2.297 -0.2666  0.2610 -0.2923
 9358W        W25492  10.009   9.461   1.663  0.0899 -0.2786  0.1969
 9359W        W25493   2.231   5.799  11.144  0.1397  0.1741 -0.2649
 9360W        W25494   0.495   3.633  10.089  0.2340 -0.1275 -0.0803
 9361W        W25495  16.291  17.394   3.523  0.0402 -0.0649 -0.0404
 9362W        W25496  17.773   8.412  13.259  0.4868 -0.0512  0.2356
 9363W        W25497  10.242   1.599   1.085 -0.1939 -0.1500 -0.0301
 9364W        W25498   4.976  15.339  13.456 -0.0467 -0.1251  0.0908
 9365W        W25499   3.996  12.313  12.214  0.1914 -0.0008 -0.0144
 9366W        W25500  18.243  18.009   1.469  0.3002 -0.1275  0.0358
 9367W        W25501   4.517   1.655   0.682  0.2529  0.0839 -0.2079
 9368W        W25502   4.954  13.276   1.624 -0.2687 -0.0641  0.1242
 9369W        W25503   0.707   9.207   2.479 -0.0030  0.0382  0.1922
 9370W        W25504   3.991   6.205   0.923  0.0552 -0.1445  0.1819
 9371W        W25505  13.213   5.292  10.417 -0.1074 -0.0481 -0.3502
 9372W        W25506   9.622  17.951   4.260 -0.3155  0.2574 -0.1959
 9373W        W25507   7.291   4.637  13.258 -0.2696  0.1879 -0.1126
 9374W        W25508   9.470  16.530  11.522  0.1840  0.1118  0.0331
 9375W        W25509   3.645   5.730  13.269 -0.1342 -0.2037 -0.0082
 9376W        W25510  11.925   0.751   1.392 -0.0133 -0.0210 -0.0743
 9377W        W25511  14.363  14.268  11.819 -0.1084  0.0388  0.1919
 9378W        W25512  14.510   3.055  14.658 -0.5004  0.1325 -0.1467
 9379W        W25513   5.113   2.518   1.191 -0.2038 -0.0696 -0.2721
 9380W        W25514   4.328   3.369  12.454 -0.0215 -0.0062 -0.1350
 9381W        W25515  16.149  18.445  13.463  0.0504  0.0553  0.0605
 9382W        W25516  14.445   0.220   2.448 -0.1227 -0.1642  0.1140
 9383W        W25517  15.517   5.729  13.373 -0.3364 -0.1250  0.1695
 9384W        W25518   8.386  13.870   2.239  0.0761  0.0573 -0.0834
 9385W        W25519   0.056   8.124  12.635  0.1974 -0.1221  0.0795
 9386W        W25520   7.085   3.311   3.311 -0.2029 -0.2873  0.3214
 9387W        W25521   0.974  19.019   0.750 -0.1088  0.0568  0.0373
 9388W        W25522   4.995  18.466   2.313  0.0497  0.0689  0.1350
 9389W        W25523   8.097   1.747  14.717 -0.0746  0.4099  0.0957
 9390W        W25524   4.812  17.201  13.670  0.1986 -0.3506  0.1926
 9391W        W25525  14.599  18.439   5.011 -0.0557  0.0055 -0.1446
 9392W        W25526  17.109   9.461   2.732  0.0979  0.0640  0.4539
 9393W        W25527   0.686  17.123  10.368 -0.0885 -0.0439 -0.0280
 9394W        W25528  10.627  14.499  12.108  0.3900  0.1329 -0.2293
 9395W        W25529  18.398  18.105  10.434  0.0854 -0.1553  0.0300
 9396W        W25530   3.077   3.426   1.251  0.1673 -0.1404  0.0728
 9397W        W25531   5.629  14.283  13.572 -0.0901 -0.3003  0.2532
 9398W        W25532  10.703   6.351   2.264  0.0047 -0.0110 -0.0904
 9399W        W25533  13.203   1.181  12.780  0.3187 -0.1903 -0.1464
 9400W        W25534  11.431  19.170   5.242 -0.2555 -0.0077 -0.0348
 9401W        W25535  13.486   0.420   5.661 -0.2352  0.1114  0.0408
 9402W        W25536   6.778   8.452   1.858 -0.2689  0.0163 -0.0631
 9403W        W25537   7.599   8.320  10.598 -0.4781  0.0571  0.0556
 9404W        W25538  11.683  11.912   0.908  0.4224 -0.1628 -0.2838
 9405W        W25539   7.368  18.917   5.133  0.0197  0.3058  0.2618
 9406W        W25540   7.077   8.009  10.937 -0.1344  0.2149 -0.0293
 9407W        W25541   3.685  13.168   2.078 -0.4364  0.3681 -0.2834
 9408W        W25542  11.172   3.022  12.258  0.0070 -0.1165  0.0024
 9409W        W25543  15.744   7.507   2.113  0.1324  0.0004  0.0360
 9410W        W25544   9.695  11.146   2.570  0.0707  0.0532 -0.0739
 9411W        W25545   9.355   6.310   4.989  0.0272 -0.4426  0.1136
 9412W        W25546  15.007  13.728  10.922  0.0343  0.0856  0.0721
 9413W        W25547   0.552   3.671   4.367  0.4530  0.1005 -0.0075
 9414W        W25548   1.643  10.909  10.018  0.2062 -0.0965 -0.1205
 9415W        W25549  11.105  18.123   2.093  0.0685  0.2139 -0.0430
 9416W        W25550  16.405  11.859  12.007  0.0660  0.1088 -0.0346
 9417W        W25551   8.793   6.658  12.297  0.0732  0.0786  0.1791
 9418W        W25552   0.922   1.518   9.340 -0.1516  0.1497 -0.1330
 9419W        W25553   9.616   1.215   4.618 -0.1878 -0.2794 -0.1706
 9420W        W25554   1.801  14.915  12.157  0.1302 -0.2786  0.3860
 9421W        W25555   2.249   1.347  11.142 -0.3744  0.1093 -0.1458
 9422W        W25556  19.221   5.414   4.000 -0.3536  0.1958 -0.0156
 9423W        W25557   9.924  11.154  11.373 -0.2826 -0.3868 -0.0640
 9424W        W25558  12.768   4.088  11.760 -0.1074 -0.1776  0.0328
 9425W        W25559   4.293  13.459  14.321 -0.0491 -0.0055 -0.2390
 9426W        W25560   9.113   7.664   0.258 -0.1420  0.1766  0.0365
 9427W        W25561   4.826  10.105   2.143 -0.4915  0.2106 -0.2279
 9428W        W25562   7.210   9.094   1.209  0.0610 -0.0742  0.6282
 9429W        W25563   1.114  11.151   1.968  0.1378  0.0448 -0.0447
 9430W        W25564   2.021   8.147  14.972  0.1214 -0.1834 -0.3720
 9431W        W25565  14.891  16.640   2.964  0.2315 -0.2856 -0.1144
 9432W        W25566  12.773  13.713   1.703  0.1082 -0.0764 -0.1271
 9433W        W25567   2.531  10.684  11.217 -0.4403  0.5187 -0.1448
 9434W        W25568  18.100   2.126  13.272  0.1241 -0.0618 -0.1350
 9435W        W25569  15.780   2.422  11.285  0.0299  0.0208 -0.1476
 9436W        W25570  18.350  18.733  14.890 -0.2200  0.0777  0.0603
 9437W        W25571  17.399   5.388  11.772  0.1275  0.1241  0.0452
 9438W        W25572  11.091   3.339   3.203  0.0213  0.0123  0.2487
 9439W        W25573  14.049   0.034   6.339 -0.1377  0.3569  0.1199
 9440W        W25574  18.370  12.059  14.768  0.2131  0.1285 -0.0698
 9441W        W25575   0.429  11.707   1.147  0.3888 -0.0544 -0.0950
 9442W        W25576   0.935  17.669   0.463  0.0423  0.2283  0.1753
 9443W        W25577   6.350  18.961  13.903 -0.1849 -0.2479 -0.1518
 9444W        W25578  19.308  12.226  14.945 -0.1083 -0.3288 -0.3771
 9445W        W25579   6.573   0.261   1.983  0.2425  0.1268  0.0494
 9446W        W25580   1.418  15.789  12.033  0.4486 -0.2529  0.1427
 9447W        W25581   7.742  12.297   3.843  0.6119  0.3263  0.1300
 9448W        W25582  15.935  11.551  12.886 -0.0730  0.1925 -0.2047
 9449W        W25583  14.375  17.290   0.432  0.3978 -0.2226  0.1946
 9450W        W25584  14.328   7.015   2.489  0.2615 -0.0144 -0.1347
 9451W        W25585   0.591   3.185  10.928  0.1805  0.0895  0.1088
 9452W        W25586  18.773  12.073  13.064 -0.0522  0.0409  0.2707
 9453W        W25587  16.034  17.138  12.146 -0.1921  0.1061 -0.0787
 9454W        W25588   2.254   2.888  11.168 -0.2670  0.1051 -0.5459
 9455W        W25589   6.922  10.319  12.361 -0.0446  0.0839 -0.1594
 9456W        W25590   7.716  10.891  13.622 -0.1519  0.1526  0.3414
 9457W        W25591  13.524   6.945   2.527  0.0012 -0.1243  0.0453
 9458W        W25592  18.356   5.134   1.342 -0.1005 -0.1742 -0.1036
 9459W        W25593   7.586  14.681  11.448  0.2373 -0.0748  0.0621
 9460W        W25594   1.298  15.025   0.918 -0.0174 -0.0112  0.1788
 9461W        W25595  12.969   3.316   1.031  0.0959 -0.3420 -0.0557
 9462W        W25596  15.640  10.549  12.806  0.1838 -0.1360 -0.2191
 9463W        W25597  14.391   5.381  11.419 -0.4313 -0.0581 -0.3253
 9464W        W25598   9.730  10.307   5.290 -0.0212  0.2147 -0.0992
 9465W        W25599   0.819   1.563   2.025 -0.0451 -0.3579 -0.2203
 9466W        W25600  15.815  13.801   4.193  0.0758  0.2037  0.1325
 9467W        W25601  16.818  11.633  14.340 -0.1705  0.1747 -0.1678
 9468W        W25602  13.462  16.230   0.930  0.2118 -0.2989  0.1333
 9469W        W25603   2.169  10.175  12.243 -0.3012  0.4071  0.0284
 9470W        W25604   8.431   3.907  13.350 -0.0770  0.0977 -0.0224
 9471W        W25605  15.031  10.555  11.037  0.4793  0.1954 -0.1627
 9472W        W25606   7.140   1.964   0.446 -0.1539  0.0298  0.2288
 9473W        W25607  10.934   4.488  13.756  0.0981 -0.4242 -0.2087
 9474W        W25608   9.792  14.251   2.472 -0.1246 -0.1096  0.0926
 9475W        W25609  11.609   5.662  10.357 -0.2662  0.3843 -0.1855
 9476W        W25610  12.278  18.181   3.194 -0.1851  0.3219 -0.1052
 9477W        W25611  16.493   6.844   4.364  0.0656 -0.1903 -0.1443
 9478W        W25612  17.065   1.157   5.057  0.0615  0.2542 -0.2095
 9479W        W25613  11.013  15.299  12.431 -0.0464 -0.1509  0.4316
 9480W        W25614   7.553  18.362  14.871 -0.2050 -0.1085  0.1974
 9481W        W25615  14.092   2.998  14.289 -0.0200 -0.1463 -0.1661
 9482W        W25616   3.340   4.878   2.157  0.1521  0.1259 -0.2088
 9483W        W25617  13.694   9.454   3.798  0.1961  0.3133  0.1365
 9484W        W25618  12.009  16.219   3.454 -0.0849  0.0887 -0.0777
 9485W        W25619   4.404  14.572   4.834 -0.2332  0.0684 -0.1672
 9486W        W25620   2.950  17.787  14.369  0.2343  0.0643 -0.0237
 9487W        W25621   3.724  11.127   3.338 -0.0236  0.0076  0.2116
 9488W        W25622   7.434   2.184   4.948 -0.4308 -0.0119 -0.2467
 9489W        W25623  15.735  15.541   1.630  0.2999 -0.2174 -0.1029
 9490W        W25624  11.008  18.963   4.320 -0.3588 -0.0486 -0.3653
 9491W        W25625  19.176  17.245   0.233  0.0606 -0.2601  0.0540
 9492W        W25626   0.250  18.928  13.974  0.2544  0.0928  0.1331
 9493W        W25627  16.617  14.470  11.379  0.1938  0.0293  0.4666
 9494W        W25628   8.028   6.413  11.976  0.4841  0.0717  0.3635
 9495W        W25629  18.576   4.285  10.144 -0.0520 -0.1917  0.1727
 9496W        W25630  11.622  13.140   4.074  0.0668 -0.0921 -0.1766
 9497W        W25631  13.541  11.234  12.360 -0.2613 -0.1112 -0.2376
 9498W        W25632  16.516   3.366  11.358  0.2329 -0.0926 -0.3213
 9499W        W25633  12.216  15.259   2.329 -0.0303 -0.3043 -0.0808
 9500W        W25634  11.786  15.098   2.491  0.0235 -0.2263 -0.2956
 9501W        W25635  16.786  13.986  14.138  0.3428  0.1243 -0.0601
 9502W        W25636   1.868  12.946   3.284  0.0942 -0.2080 -0.4095
 9503W        W25637  18.190   7.751   3.334  0.0754  0.0828  0.0672
 9504W        W25638  18.166  15.197   3.724  0.0405 -0.0322 -0.1542
 9505W        W25639  17.230   8.285  12.826 -0.2433 -0.2605  0.0549
 9506W        W25640   0.481  18.376  12.776 -0.0132 -0.1942  0.1030
 9507W        W25641   3.009   5.701  10.999 -0.1179 -0.2815  0.0801
 9508W        W25642  12.102   0.754   1.972  0.0062  0.0548  0.2774
 9509W        W25643   8.626  11.755   1.136  0.0107 -0.0297  0.0573
 9510W        W25644  12.656  11.173  12.789 -0.2084 -0.0807  0.0888
 9511W        W25645  15.825  19.345  11.574 -0.0040 -0.1862 -0.3749
 9512W        W25646   9.717   7.554   3.222  0.0299 -0.0513  0.1108
 9513W        W25647  17.306   6.776   1.819 -0.2073 -0.2932  0.2860
 9514W        W25648   1.665   4.704   4.551 -0.0166 -0.3340 -0.0617
 9515W        W25649  14.622   3.089  10.352 -0.1445  0.0922  0.2860
 9516W        W25650  11.008  12.778   0.132  0.0969 -0.0385 -0.0297
 9517W        W25651   5.739  10.678  10.949 -0.3314 -0.1078 -0.4039
 9518W        W25652   4.128  15.550   1.004  0.2321 -0.2095  0.1722
 9519W        W25653   3.688   4.235   4.111  0.0367 -0.0168  0.1150
 9520W        W25654   7.155   0.910  13.297  0.0225 -0.1776  0.2646
 9521W        W25655   2.683  17.635   2.610 -0.0297  0.0671  0.0007
 9522W        W25656   3.475  18.025  12.860  0.2550  0.1209  0.3332
 9523W        W25657   2.826   0.210  14.483  0.2156  0.3453 -0.2443
 9524W        W25658  15.488  13.222  10.221 -0.3630  0.0731 -0.0457
 9525W        W25659  10.347  15.258  11.705 -0.3002 -0.3865  0.3761
 9526W        W25660   3.885   3.356   2.973 -0.0107  0.2231 -0.3249
 9527W        W25661   8.713   7.261  13.470  0.0409  0.0869  0.1442
 9528W        W25662   8.096   6.512  10.876 -0.1579  0.2202  0.0471
 9529W        W25663  12.031  18.701  13.382  0.0407  0.2398 -0.1655
 9530W        W25664  13.616  18.633   2.506  0.0243  0.3130 -0.0399
 9531W        W25665  17.866  17.295  11.987  0.0312  0.0695 -0.0460
 9532W        W25666  16.160  14.149   2.963  0.0016 -0.2466 -0.3123
 9533W        W25667   6.729  11.883  11.276 -0.1698  0.0375  0.1393
 9534W        W25668  18.744   7.262   0.922  0.1159  0.1025 -0.0218
 9535W        W25669  17.267   5.908   0.792 -0.0917  0.0506 -0.0401
 9536W        W25670  12.417  15.673   4.140 -0.1998  0.1258  0.1873
 9537W        W25671   4.297  12.254  11.163  0.1182 -0.0457 -0.0467
 9538W        W25672   6.626  18.004   2.595 -0.0715 -0.1005 -0.2940
 9539W        W25673  10.389   4.929   0.813 -0.1758  0.2014 -0.1074
 9540W        W25674  13.528  15.008  12.461  0.3882 -0.0987  0.0158
 9541W        W25675  10.433   7.383  13.419 -0.0625 -0.0202 -0.1940
 9542W        W25676  16.278   7.478  10.467 -0.3826 -0.0333  0.2478
 9543W        W25677  12.005  15.688   2.483 -0.0579 -0.1150 -0.1037
 9544W        W25678   8.768   7.526   2.644  0.0626 -0.3389 -0.3865
 9545W        W25679  18.589  15.081   2.081 -0.0908 -0.4562  0.3307
 9546W        W25680   2.101   3.768  11.886  0.1826 -0.2393  0.0193
 9547W        W25681   8.272   8.874   0.358 -0.1412  0.1704 -0.0295
 9548W        W25682  15.365  10.585   2.506  0.0719 -0.5255  0.2341
 9549W        W25683   2.654   1.268   0.254  0.2016  0.1169  0.1278
 9550W        W25684   8.915   5.512  11.098  0.1316 -0.0298 -0.4091
 9551W        W25685  16.321  18.102   2.694  0.0113 -0.1774  0.1779
 9552W        W25686  11.838   0.490  14.902 -0.1980 -0.1888  0.1435
 9553W        W25687   0.863  12.773  11.393 -0.1281 -0.0488  0.0144
 9554W        W25688   2.215   5.173   0.611 -0.0192  0.1374 -0.3264
 9555W        W25689  10.978   7.932  11.805 -0.1657 -0.4058  0.0127
 9556W        W25690   5.419  17.437  14.884 -0.0786 -0.0567  0.1062
 9557W        W25691  10.282  12.411   2.231  0.0126  0.4484  0.2098
 9558W        W25692  12.277  12.442   0.484  0.1707 -0.0203  0.0090
 9559W        W25693  13.113   7.767   3.578 -0.2622  0.0745 -0.0882
 9560W        W25694   1.551   7.243  10.159  0.2130 -0.0051  0.1817
 9561W        W25695  18.945   8.032  12.390 -0.0002  0.1935 -0.0800
 9562W        W25696   9.159  10.438  11.183  0.1905  0.4278 -0.1169
 9563W        W25697  15.213   3.729   3.023 -0.0074 -0.0771  0.0741
 9564W        W25698  18.239  14.998   3.019 -0.1528 -0.0727 -0.6068
 9565W        W25699   4.717  18.304  11.522 -0.1886  0.3357  0.1015
 9566W        W25700  12.658   0.200   4.098 -0.0704  0.4711  0.1874
 9567W        W25701  16.634   4.731  14.837  0.0878 -0.1996 -0.0432
 9568W        W25702  15.653   7.986   9.454 -0.0423 -0.0461  0.2795
 9569W        W25703  12.354   9.388   2.350  0.1002  0.3449 -0.1529
 9570W        W25704   4.503   2.907   1.050 -0.1261  0.2450 -0.2097
 9571W        W25705  14.532   2.630   1.483 -0.0738 -0.1669  0.1521
 9572W        W25706  15.324   4.955   4.076  0.2502  0.2076 -0.3168
 9573W        W25707  10.271   1.855   2.065  0.0292  0.0525 -0.2482
 9574W        W25708  10.461  13.618  14.858 -0.2305  0.2977 -0.0105
 9575W        W25709   8.131  13.690  12.796  0.1102  0.1294  0.0092
 9576W        W25710  12.635   3.054   2.883 -0.1934  0.0436  0.3143
 9577W        W25711  17.320   8.740  13.282  0.2732  0.3559  0.1798
 9578W        W25712  13.253   6.568   2.121  0.2582 -0.1036  0.0682
 9579W        W25713  13.275  16.648   4.529  0.0074 -0.1946  0.1354
 9580W        W25714   4.165   1.171  10.879  0.0735 -0.0355 -0.1924
 9581W        W25715  18.015  11.950  10.866  0.0319  0.2153  0.3096
 9582W        W25716   8.586   4.175   1.692  0.0511 -0.2611 -0.1467
 9583W        W25717  17.181   3.822   2.168  0.0501 -0.1045  0.4286
 9584W        W25718  15.216  18.247  13.776  0.1759  0.0951 -0.0019
 9585W        W25719  15.435   9.817  14.918  0.0302  0.1447 -0.0178
 9586W        W25720   6.452   0.547   4.162  0.0756  0.0207  0.1129
 9587W        W25721  15.382   4.891   5.492  0.0912  0.2030  0.0043
 9588W        W25722  15.641   9.590   1.203  0.3389 -0.1467  0.0205
 9589W        W25723   7.783   7.833   3.170  0.3367 -0.1324 -0.1038
 9590W        W25724  10.080   5.091   4.333 -0.1496 -0.2838 -0.2027
 9591W        W25725  14.263  12.629   0.020 -0.2098 -0.0719  0.1297
 9592W        W25726  10.624   8.677  13.286  0.0852  0.0227  0.0415
 9593W        W25727   9.084  16.112   4.715  0.1543 -0.1280 -0.1096
 9594W        W25728  14.137   1.647   1.872  0.0237 -0.1487 -0.2516
 9595W        W25729  11.049   3.197   2.463  0.0038 -0.0001 -0.0335
 9596W        W25730  10.096  11.873   1.548  0.1100  0.1324  0.1183
 9597W        W25731   9.741  12.000  10.884 -0.1331  0.1982  0.2785
 9598W        W25732   5.041   1.711  12.326 -0.3069 -0.1790  0.2639
 9599W        W25733   0.718  12.513   1.960  0.1849 -0.5477  0.1105
 9600W        W25734   5.424  16.546   1.213 -0.2475 -0.0609  0.1323
 9601W        W25735  19.185  11.707   2.614  0.2136 -0.0781 -0.1604
 9602W        W25736   8.217   1.983  12.109 -0.1008 -0.1341  0.0207
 9603W        W25737   7.729   7.777  10.536 -0.1533 -0.0841 -0.0117
 9604W        W25738   1.489  12.027   1.933  0.4079  0.0610 -0.0322
 9605W        W25739  13.789  13.985   0.521 -0.0909 -0.0167 -0.0920
 9606W        W25740   7.828  15.051   3.996  0.1867 -0.4290 -0.1815
 9607W        W25741  15.945   1.523   4.214 -0.2016  0.2606  0.2410
 9608W        W25742   9.081  14.169  10.915 -0.1965  0.0803 -0.0225
 9609W        W25743   8.313  17.704  11.832  0.0406  0.3989  0.0160
 9610W        W25744  17.469  13.513   0.085  0.0560 -0.2182  0.0849
 9611W        W25745  18.072  16.739  14.236  0.3165 -0.1466  0.2242
 9612W        W25746  11.573   5.290  13.038  0.2055 -0.1206 -0.1324
 9613W        W25747  16.564   2.690   1.294 -0.1697 -0.0858 -0.1707
 9614W        W25748  11.477  16.831   6.590  0.0777  0.1045  0.1342
 9615W        W25749  10.892   1.755   4.930 -0.0689  0.1506  0.2311
 9616W        W25750  11.776   9.428  10.561  0.2488  0.0418 -0.0069
 9617W        W25751   2.813   3.836  14.173 -0.0789  0.1609 -0.1192
 9618W        W25752  17.532  18.860  11.365 -0.3232  0.0225 -0.1002
 9619W        W25753   3.435   5.982  14.582 -0.1027 -0.2825  0.3567
 9620W        W25754  17.132  15.302   4.333 -0.0841 -0.1546  0.2030
 9621W        W25755  16.450  14.816  11.027 -0.1600 -0.0796  0.0084
 9622W        W25756   1.536   1.341   3.729 -0.0937  0.2797 -0.1224
 9623W        W25757  11.898   7.151  12.466  0.2662  0.1803 -0.4402
 9624W        W25758   8.853   9.554   0.695 -0.0056 -0.1830 -0.1552
 9625W        W25759  18.364  10.729  12.850  0.0432  0.0935 -0.2169
 9626W        W25760   9.210   7.867  11.397  0.0354 -0.1822 -0.0622
 9627W        W25761  17.029   3.439  13.153  0.0991 -0.2544 -0.2605
 9628W        W25762   7.899   9.662  12.385 -0.1073  0.0391  0.1689
 9629W        W25763  14.009  13.013   0.300  0.1362 -0.0635 -0.0828
 9630W        W25764   0.027   1.463   0.624 -0.1536  0.3992 -0.0842
 9631W        W25765   7.086   1.384   4.396  0.0368 -0.1182 -0.1313
 9632W        W25766   1.850  14.267   0.125 -0.2250 -0.1001 -0.2739
 9633W        W25767  14.249   0.628  12.317 -0.1751  0.1193  0.2079
 9634W        W25768   2.097   3.155  12.704 -0.1762  0.0148 -0.1912
 9635W        W25769   6.773  16.522  11.814  0.1666 -0.1141 -0.1921
 9636W        W25770   7.051  11.700   5.627 -0.0483  0.1487 -0.4447
 9637W        W25771   4.895  16.317  11.440 -0.2747 -0.3275 -0.0122
 9638W        W25772  17.501  14.005   0.561 -0.0608  0.3312  0.0145
 9639W        W25773   9.099  15.676  11.152  0.2513 -0.2008  0.4366
 9640W        W25774  13.232   2.413  11.412 -0.3489  0.0267  0.2966
 9641W        W25775   2.936  12.646  14.830  0.0031 -0.0382 -0.2002
 9642W        W25776  12.540   0.799  12.198 -0.0312 -0.4181 -0.0147
 9643W        W25777  18.809   8.393   3.246  0.1377 -0.0237 -0.0269
 9644W        W25778  13.985   5.042   0.061  0.0367 -0.1256  0.1186
 9645W        W25779   7.211  11.305  14.793  0.0041  0.1993  0.0509
 9646W        W25780  10.842  13.550   3.099  0.0387 -0.0214 -0.0252
 9647W        W25781   9.536  18.252  12.952 -0.2201  0.0870 -0.1314
 9648W        W25782  12.975   4.287  14.337 -0.0436  0.0833  0.0301
 9649W        W25783   5.449   6.334  14.670 -0.0279  0.1171  0.2939
 9650W        W25784  12.993  17.377  12.644 -0.0484 -0.1082  0.0302
 9651W        W25785  15.285   1.273   2.296 -0.0034  0.2522 -0.0393
 9652W        W25786   2.265   5.967  11.616 -0.2075  0.1616  0.1405
 9653W        W25787   9.861   2.170   1.763  0.0112  0.2757 -0.1806
 9654W        W25788   8.797   4.055   2.342 -0.2938 -0.0679  0.0395
 9655W        W25789   1.712  15.763   0.031 -0.0895 -0.2404  0.2419
 9656W        W25790   9.597  14.533  14.679 -0.1865 -0.0437  0.5730
 9657W        W25791   2.916   0.953  12.831  0.0822 -0.3765  0.0842
 9658W        W25792  14.574  18.097   5.408  0.4161  0.1907  0.1178
 9659W        W25793  18.606  15.347  10.603 -0.0286  0.0997  0.2393
 9660W        W25794   3.157  17.615  13.981 -0.2461 -0.2453  0.2172
 9661W        W25795  18.081  10.176   1.867  0.0992  0.1786  0.4376
 9662W        W25796   7.129   9.700   4.641 -0.1154  0.1053 -0.0123
 9663W        W25797   7.137  15.069  14.415 -0.2906  0.0692 -0.0344
 9664W        W25798  10.769   0.908  11.707  0.1160 -0.0601  0.0670
 9665W        W25799   1.751   8.610  14.550 -0.0746  0.0388  0.2039
 9666W        W25800  16.104  17.147   3.914  0.3741  0.1105 -0.1036
 9667W        W25801  11.110   4.477  11.882  0.1320  0.0010  0.0349
 9668W        W25802  15.115  14.174  11.118  0.0577 -0.0147  0.3853
 9669W        W25803  17.139  12.857   4.570 -0.2581 -0.2117 -0.0869
 9670W        W25804   5.681  18.778  10.873 -0.0501  0.3809  0.0251
 9671W        W25805  18.467  13.733   0.229  0.2256 -0.1343  0.0910
 9672W        W25806  11.566   7.485  14.733  0.0333  0.1979 -0.2801
 9673W        W25807  18.392  10.251  10.620 -0.2605 -0.0043 -0.0991
 9674W        W25808  17.952   8.696   2.998  0.1712  0.0767 -0.1041
 9675W        W25809  11.933  16.851   2.181 -0.2686 -0.1029  0.2398
 9676W        W25810   9.413  11.610   0.245 -0.0786 -0.2776 -0.1639
 9677W        W25811  16.474   0.989  14.968  0.0752  0.2822  0.1499
 9678W        W25812   3.695   7.557   2.807  0.1716  0.0391 -0.1053
 9679W        W25813   6.602  12.711   2.800 -0.4885  0.1551 -0.1779
 9680W        W25814  18.837   2.150  12.309  0.0327 -0.1735 -0.0646
 9681W        W25815   0.650   4.478   3.155 -0.0906 -0.0245 -0.0202
 9682W        W25816  17.605   5.468   4.908 -0.0324 -0.0012 -0.1573
 9683W        W25817   6.141   6.180   1.089  0.5409 -0.3131  0.0661
 9684W        W25818   1.420   2.342   2.267 -0.0470 -0.2673 -0.0295
 9685W        W25819   8.878   3.821  13.494  0.1048 -0.1639  0.0009
 9686W        W25820   9.370   3.292   2.592  0.1043 -0.0555 -0.0511
 9687W        W25821   4.855   4.666  13.245 -0.3748 -0.0101  0.2540
 9688W        W25822   4.058   3.909  12.278 -0.0867  0.5867 -0.1920
 9689W        W25823  12.425  11.648  12.777 -0.0731 -0.2170  0.1289
 9690W        W25824   1.622   0.570   2.554  0.0190  0.0638 -0.0734
 9691W        W25825  15.933  16.682  11.907 -0.2751  0.1818  0.2270
 9692W        W25826   4.466  12.245   4.179  0.1565 -0.3499  0.2988
 9693W        W25827   0.295  19.111   2.925  0.0411 -0.1682  0.0087
 9694W        W25828   9.479  16.659   1.315  0.0344 -0.0001 -0.1475
 9695W        W25829   1.732   8.059   0.433 -0.0750 -0.1006  0.0961
 9696W        W25830   2.569   3.367   1.153 -0.2803  0.2254 -0.2761
 9697W        W25831  12.877  19.297   5.227 -0.4412  0.0947  0.1684
 9698W        W25832  15.405   0.147  10.344  0.6385 -0.4288 -0.1197
 9699W        W25833  16.418   9.290  10.665  0.3111 -0.3134  0.0452
 9700W        W25834  14.752  11.042   1.154  0.0168  0.0830 -0.2244
 9701W        W25835  10.186  16.996  12.563 -0.0634 -0.1956 -0.1605
 9702W        W25836   5.691   1.085   3.040 -0.2594 -0.0252 -0.1840
 9703W        W25837  11.430   2.800   4.427  0.2517  0.2192 -0.0217
 9704W        W25838   8.732   4.351   3.300 -0.2835 -0.1751  0.1727
 9705W        W25839  15.212   6.251  14.064 -0.5275  0.3939 -0.1370
 9706W        W25840   1.981   4.512   3.686 -0.3524 -0.1312 -0.0363
 9707W        W25841  12.413   6.107   4.530  0.0021  0.2583 -0.1473
 9708W        W25842   0.694  12.598  12.813  0.1810  0.2447  0.0541
 9709W        W25843   9.391  12.800  13.974  0.1728  0.0320  0.0478
 9710W        W25844  12.015   9.446  14.290  0.0903 -0.0369  0.2236
 9711W        W25845   2.362  12.283  10.336 -0.0103 -0.0214  0.3021
 9712W        W25846  13.578  15.655   2.142  0.0466  0.0791 -0.1823
 9713W        W25847   2.334   6.967   2.908  0.1231  0.1344  0.1555
 9714W        W25848  13.900   9.225   0.807  0.2057  0.0172 -0.0076
 9715W        W25849   0.563   4.652   4.096 -0.0806 -0.4105 -0.1261
 9716W        W25850   9.935   2.295   2.258  0.1809 -0.0928  0.0898
 9717W        W25851  18.697   3.965  11.255  0.0347 -0.0410 -0.1449
 9718W        W25852   2.853   9.767  11.691  0.2580 -0.0075  0.1167
 9719W        W25853  14.123  13.723   5.745 -0.0245 -0.1806 -0.2635
 9720W        W25854  17.121   1.206   0.796 -0.0015  0.2529  0.2185
 9721W        W25855   1.641   7.243  11.855  0.0342 -0.3242 -0.1084
 9722W        W25856  18.199  15.736   0.376 -0.0372  0.1066  0.2008
 9723W        W25857  10.902  12.752  11.259  0.2334  0.0540  0.0627
 9724W        W25858   4.524  10.444  11.605  0.1847 -0.1697 -0.1522
 9725W        W25859   8.921  19.244   2.072 -0.0340 -0.4191 -0.0035
 9726W        W25860   0.924   2.676   4.339  0.0397  0.0363 -0.3458
 9727W        W25861   5.599  17.834   2.547 -0.1572 -0.2560  0.0979
 9728W        W25862  17.213  16.155   0.017  0.1414 -0.3022 -0.2653
 9729W        W25863   5.329   0.121   4.585  0.5023  0.0849 -0.2556
 9730W        W25864  12.349   4.639  13.317 -0.0341  0.0304  0.0601
 9731W        W25865  18.959  14.500  11.589 -0.1043 -0.0829  0.0448
 9732W        W25866   2.055  14.585  13.142  0.1331  0.1063  0.2330
 9733W        W25867  13.303   2.733   5.382 -0.2038  0.0055 -0.1670
 9734W        W25868  12.669  14.542   0.496  0.1217  0.0470 -0.3244
 9735W        W25869   7.144  10.103  10.741 -0.2093  0.4408 -0.0555
 9736W        W25870   0.696   5.707   1.500 -0.3111 -0.0839 -0.1801
 9737W        W25871  14.036   0.905   0.948  0.1067 -0.1822  0.2242
 9738W        W25872  18.011  17.001   5.621 -0.0708 -0.1364  0.1641
 9739W        W25873   8.144   4.454   1.690  0.1838  0.0718 -0.1977
 9740W        W25874  10.878   8.434  11.753 -0.0631  0.0075 -0.1187
 9741W        W25875  17.103   9.098  11.649  0.0125  0.2857  0.2592
 9742W        W25876   2.574  10.926   0.029  0.1285 -0.2818  0.0478
 9743W        W25877   9.747   4.868  12.141 -0.4019 -0.3551 -0.1027
 9744W        W25878   6.593  11.400   3.408 -0.0021 -0.0321 -0.1087
 9745W        W25879  14.128  12.155  12.073 -0.1036 -0.4060 -0.0683
 9746W        W25880  15.744   4.887   1.279 -0.1176 -0.0983  0.0249
 9747W        W25881   2.308  15.155   1.695 -0.0619  0.3146 -0.0216
 9748W        W25882  14.338  14.073   1.264 -0.0972 -0.0832  0.0989
 9749W        W25883  16.657  11.806   3.641 -0.2723  0.0936 -0.2207
 9750W        W25884   8.390   7.498   4.025 -0.0834 -0.1673 -0.0574
 9751W        W25885  18.713  13.820   2.636  0.3637  0.1180  0.2722
 9752W        W25886  15.971   1.995  11.402 -0.2126  0.2465 -0.3098
 9753W        W25887  12.092   8.106   3.483  0.3285  0.0249 -0.4075
 9754W        W25888   5.261   8.329  14.955  0.1051 -0.2342 -0.3568
 9755W        W25889   8.257  18.195   2.766 -0.1798  0.1495 -0.0765
 9756W        W25890  16.721   7.451  11.363 -0.2884  0.1879 -0.1210
 9757W        W25891   6.792  14.865  10.170  0.0959 -0.1617  0.1440
 9758W        W25892  19.202   6.153   0.060 -0.1779  0.1877  0.1170
 9759W        W25893  13.837  10.495   3.456 -0.1474  0.2635  0.1498
 9760W        W25894  15.658   7.348   2.730 -0.2465 -0.2092  0.2145
 9761W        W25895  17.008  10.694  10.912 -0.5356 -0.0043 -0.1651
 9762W        W25896   5.837  16.134   1.150  0.0431  0.0570 -0.0892
 9763W        W25897  16.130   6.510  10.445  0.0768 -0.1630 -0.0098
 9764W        W25898   6.502  17.802  11.134 -0.1190 -0.1455 -0.1082
 9765W        W25899   3.675   7.504   1.379  0.2460 -0.0553 -0.0069
 9766W        W25900   9.489  13.195  14.583  0.1299 -0.2701  0.0404
 9767W        W25901   3.702   2.056  12.277 -0.2420 -0.2335 -0.3384
 9768W        W25902  14.867   9.257   1.181 -0.2297  0.0032  0.0273
 9769W        W25903   2.476   0.369  14.153  0.0424  0.1682 -0.0297
 9770W        W25904   1.778   8.992  10.319 -0.1371  0.0436 -0.3021
 9771W        W25905   9.453   2.840  14.583  0.2452  0.1546  0.3050
 9772W        W25906   5.035   3.902  12.501  0.3924 -0.1942 -0.0118
 9773W        W25907   1.475  11.369   9.837  0.1337 -0.2370  0.0666
 9774W        W25908  13.907   5.070   0.709  0.2135 -0.3274  0.1171
 9775W        W25909   6.764  17.841   6.094  0.3680  0.5052  0.3523
 9776W        W25910   9.008   1.910   0.745 -0.0785 -0.0107  0.3197
 9777W        W25911  14.589   2.916   0.637 -0.3327 -0.0082  0.1515
 9778W        W25912  18.370  15.149  12.688 -0.0342 -0.3093 -0.0723
 9779W        W25913   9.988  19.238  12.199  0.0463  0.0179  0.2058
 9780W        W25914   3.563   6.712  10.815 -0.1729  0.4558  0.1310
 9781W        W25915  16.827  18.296   2.695  0.0142  0.0319 -0.2477
 9782W        W25916   5.819  12.956   4.852  0.1085 -0.1126  0.0278
 9783W        W25917  14.033   0.818  11.380  0.2552  0.0253 -0.2726
 9784W        W25918  16.647   7.817   1.950 -0.2013 -0.2469  0.2697
 9785W        W25919   7.990   0.565   2.337  0.2175 -0.1420 -0.1850
 9786W        W25920  16.541   3.170  13.174 -0.2332  0.2080  0.2165
 9787W        W25921  11.085   8.734   1.344 -0.0332 -0.0896  0.0447
 9788W        W25922  15.303  17.629   0.566 -0.1358 -0.0206  0.2946
 9789W        W25923   8.720   9.870  10.558 -0.0704  0.1387  0.2871
 9790W        W25924  17.520  13.889  13.538 -0.2700  0.0706 -0.0235
 9791W        W25925  12.841  17.871  12.855  0.1493 -0.0495  0.2597
 9792W        W25926   5.938   0.712   0.232  0.0000  0.1462  0.0776
 9793W        W25927   8.524  13.613  11.706 -0.0168  0.0806  0.0139
 9794W        W25928  13.594  19.261   1.634 -0.1145  0.2885  0.2252
 9795W        W25929  16.890  10.526   0.624  0.0123 -0.1477 -0.1787
 9796W        W25930  12.647   6.413  14.027 -0.1747 -0.0589 -0.1301
 9797W        W25931  14.820   3.771  11.552  0.0546  0.2521  0.3200
 9798W        W25932   3.427  17.871   1.823 -0.2537  0.1475 -0.0327
 9799W        W25933  14.373  17.783   4.019  0.0404 -0.3149  0.3290
 9800W        W25934  19.145   8.174  10.080  0.0436  0.1357  0.1971
 9801W        W25935   5.200   8.241   4.230 -0.0983  0.2283  0.1283
 9802W        W25936   9.184  19.299  10.294  0.3845 -0.0958  0.0870
 9803W        W25937  14.735  12.418   3.422 -0.0919 -0.1723 -0.2543
 9804W        W25938   9.047  10.053  10.236 -0.1732 -0.1250 -0.1668
 9805W        W25939  10.831  17.539  10.896  0.0311 -0.0429  0.1970
 9806W        W25940  14.110  14.697   5.610 -0.0766 -0.0370 -0.2735
 9807W        W25941   3.876  18.290  11.672  0.0485  0.0748 -0.3987
 9808W        W25942  10.541  15.078  12.157 -0.1631  0.0375 -0.4189
 9809W        W25943  18.961   4.258   0.706  0.1213  0.5175  0.2215
 9810W        W25944   6.570  17.071   0.718 -0.0958  0.0054  0.1524
 9811W        W25945   3.582  10.411  12.724  0.1283  0.0313 -0.0438
 9812W        W25946  16.292  18.167   5.496  0.1268 -0.1867  0.2981
 9813W        W25947   9.899   9.720  10.243  0.0538 -0.0155 -0.1295
 9814W        W25948   3.012   2.852  12.212 -0.0888  0.3220 -0.1968
 9815W        W25949  16.697  17.771   3.460 -0.2923 -0.0326 -0.1862
 9816W        W25950   1.940   1.796   1.110 -0.0650 -0.0511  0.3540
 9817W        W25951   3.960  15.669   4.806  0.2769 -0.2224  0.1359
 9818W        W25952   8.152   1.694  13.653 -0.1687 -0.2772  0.0535
 9819W        W25953  12.874   5.005   1.204 -0.1991  0.0207 -0.3766
 9820W        W25954  16.152  12.856  12.930  0.1545 -0.2898  0.1295
 9821W        W25955   7.781  11.757  11.383 -0.3060 -0.4246 -0.2778
 9822W        W25956   3.476   8.486  14.706 -0.0224 -0.0862  0.2413
 9823W        W25957   7.512  18.122   1.738  0.1564 -0.0590 -0.0048
 9824W        W25958   8.326  16.788  13.290 -0.1665 -0.1196  0.0426
 9825W        W25959  19.236  10.092   5.324  0.0624  0.1957 -0.1509
 9826W        W25960   6.365   2.495  10.934  0.1302 -0.0906  0.0686
 9827W        W25961  17.063   7.527  10.149  0.1100  0.1848  0.2793
 9828W        W25962   8.142   9.949   3.778 -0.2400 -0.0254  0.2025
 9829W        W25963  15.407   8.440  13.555 -0.0049  0.2816  0.1895
 9830W        W25964  13.170   9.999  13.734 -0.0089 -0.1639 -0.1466
 9831W        W25965   5.208  17.147   5.191 -0.0936  0.3987  0.0873
 9832W        W25966   0.305  15.762  10.980 -0.3778  0.0627 -0.0463
 9833W        W25967  15.026  10.034  14.199  0.1475 -0.2820  0.1709
 9834W        W25968   7.092   5.623   3.453 -0.1940  0.0267 -0.3486
 9835W        W25969  13.038   0.749  14.834 -0.1308 -0.1277  0.0610
 9836W        W25970   2.454   7.750   2.713 -0.0121  0.1282 -0.2444
 9837W        W25971   7.513   0.772   1.931  0.0235 -0.1439 -0.1072
 9838W        W25972  10.874   6.817   3.615  0.0888  0.1388 -0.0035
 9839W        W25973   5.023   4.177  10.256  0.0939  0.2673 -0.0396
 9840W        W25974  13.435   3.044   1.803  0.0285 -0.2219  0.0828
 9841W        W25975  11.826  12.105  14.659  0.0502 -0.2395 -0.0307
 9842W        W25976   8.391  14.025   0.081 -0.0011 -0.0924  0.1911
 9843W        W25977  10.124  18.858  11.885  0.1478 -0.2532 -0.1275
 9844W        W25978   8.411   3.981   0.445 -0.1490  0.4395 -0.0084
 9845W        W25979  19.183  11.556   0.155 -0.2424  0.0814 -0.1823
 9846W        W25980  16.964   1.397  13.718 -0.4756  0.4275  0.1494
 9847W        W25981  10.946  14.994  11.254 -0.1581  0.5251 -0.3126
 9848W        W25982  15.148   8.843  10.813 -0.2461 -0.0139 -0.0898
 9849W        W25983   1.647  16.532   5.349 -0.5198  0.4389 -0.1941
 9850W        W25984  11.565   9.015  11.438  0.2524 -0.0361  0.0210
 9851W        W25985   3.313   9.454   1.169  0.2435 -0.1746 -0.0084
 9852W        W25986   6.808  18.660  14.068  0.1599 -0.0556 -0.0515
 9853W        W25987   1.956   4.460  13.040  0.4637 -0.0538  0.1749
 9854W        W25988   0.565  11.394   1.924 -0.2243 -0.1851 -0.3145
 9855W        W25989  11.449   6.958  14.657  0.1171  0.1001  0.2432
 9856W        W25990  16.503  17.541   0.826  0.2140  0.1721 -0.2810
 9857W        W25991   3.057   1.069  14.975 -0.2024 -0.0902  0.2438
 9858W        W25992  13.426  10.828  12.065  0.1743  0.1029  0.1385
 9859W        W25993  10.727   0.014   1.089  0.2514  0.0630 -0.1120
 9860W        W25994  19.325   5.529   3.211 -0.1866 -0.2380  0.7496
 9861W        W25995   1.497  14.881   1.896 -0.1199  0.0303  0.1672
 9862W        W25996  13.671  18.497  14.877  0.0653  0.0716 -0.2152
 9863W        W25997   5.091  19.068   3.653 -0.0057  0.3262 -0.0469
 9864W        W25998   1.265   9.700   1.329  0.1387  0.4724  0.0705
 9865W        W25999   1.512   2.781  13.892  0.0033  0.3098  0.1440
 9866W        W26000   0.035  19.230   1.401  0.2246 -0.2346  0.1725
 9867W        W26001   8.752  11.396   3.467  0.0216  0.1483  0.1189
 9868W        W26002   6.293  18.469   1.256 -0.2036 -0.0904 -0.0347
 9869W        W26003  15.896  17.432  12.997 -0.0504 -0.1050  0.0662
 9870W        W26004  15.526   3.049   2.428  0.1126  0.1963  0.2330
 9871W        W26005  11.498   9.433   0.287  0.0976 -0.0629 -0.1385
 9872W        W26006  14.290   1.791   0.513  0.1680  0.0277 -0.0168
 9873W        W26007  13.655   9.755   2.676  0.3305 -0.1686 -0.0050
 9874W        W26008   2.438   0.237   0.727 -0.0399  0.0090  0.1110
 9875W        W26009   9.624  14.596  11.666  0.1543 -0.3750 -0.1723
 9876W        W26010   3.949   5.768   2.373  0.0639 -0.1551 -0.0999
 9877W        W26011  13.735   6.562  12.396  0.0790 -0.1189 -0.0525
 9878W        W26012   4.071   6.807  13.530 -0.3885  0.3145  0.0479
 9879W        W26013  12.225  16.677   3.366  0.0779  0.2894  0.0799
 9880W        W26014   6.707  16.796  14.035  0.2843 -0.2904 -0.3630
 9881W        W26015  16.736  17.265   3.831 -0.1821  0.1434  0.2204
 9882W        W26016  13.359  17.611  11.793  0.1342  0.1355  0.1238
 9883W        W26017  16.361   5.463   4.262  0.2807 -0.3177 -0.1108
 9884W        W26018  16.599  17.435  11.688  0.1243 -0.5720  0.0427
 9885W        W26019  14.452  16.760   2.438  0.0943 -0.1265  0.1965
 9886W        W26020  17.721   5.340   4.095  0.0099 -0.0393 -0.0943
 9887W        W26021  18.129  10.459   4.084  0.1056  0.0679  0.0410
 9888W        W26022  10.495  16.139   2.714 -0.1827  0.2092 -0.1830
 9889W        W26023  16.649  17.749  10.077  0.0451  0.1576  0.0717
 9890W        W26024  10.214   9.238   3.325  0.2108 -0.2573 -0.0594
 9891W        W26025  14.689   4.700  12.483  0.0194 -0.0839 -0.1608
 9892W        W26026   8.548  14.082   1.121 -0.3706 -0.2074 -0.0368
 9893W        W26027  10.678  17.970   4.853 -0.3361  0.2033 -0.1286
 9894W        W26028   0.081   3.293  10.937  0.1353 -0.2816 -0.0871
 9895W        W26029  18.918   8.238  13.454 -0.0473  0.0279 -0.1997
 9896W        W26030   6.950   7.018  11.077  0.0055 -0.1075 -0.2170
 9897W        W26031  17.044  15.485  10.459  0.1960  0.2788 -0.2826
 9898W        W26032  10.003  15.238  12.568 -0.1371  0.1296  0.1701
 9899W        W26033   0.754   6.643  10.768  0.0270  0.1399 -0.0606
 9900W        W26034  12.421   1.795   4.914 -0.1034  0.0235 -0.1447
 9901W        W26035   5.075  12.935   1.125  0.1903 -0.0294 -0.1503
 9902W        W26036  10.076   1.042  10.955  0.0915 -0.1255  0.0835
 9903W        W26037  16.959  10.643   1.139  0.2299 -0.2792 -0.0131
 9904W        W26038  14.697  12.120  10.371  0.1887 -0.1702 -0.3568
 9905W        W26039   8.261  14.447   3.164  0.0239  0.1176  0.1328
 9906W        W26040  15.274  19.244   4.465  0.3611  0.2979 -0.1236
 9907W        W26041   9.610  16.886  12.609 -0.0889  0.0985 -0.0920
 9908W        W26042  12.661   5.137  11.083  0.1400 -0.3530 -0.1179
 9909W        W26043   8.496  11.022   0.081  0.2005 -0.2452  0.2583
 9910W        W26044  17.093   1.842   3.582  0.1965 -0.0948 -0.1428
 9911W        W26045  16.571   0.543  14.699 -0.0919 -0.3920  0.1551
 9912W        W26046   3.937  16.608  12.614 -0.1352  0.1961  0.0456
 9913W        W26047   3.539  13.521  10.294 -0.1987 -0.1079  0.3009
 9914W        W26048   2.456   0.030  13.048 -0.0149  0.0526  0.3181
 9915W        W26049   2.630   9.934  10.803 -0.1454 -0.2337  0.1406
 9916W        W26050   2.897  17.288  14.597  0.1902 -0.2890 -0.1670
 9917W        W26051   5.018   7.796   4.210 -0.0818  0.2506 -0.0679
 9918W        W26052   0.059  12.735   3.361  0.0165 -0.0421 -0.1131
 9919W        W26053  14.569   7.002  11.174  0.1152 -0.1977 -0.0797
 9920W        W26054   8.971   0.601  13.168  0.2380 -0.0882  0.0304
 9921W        W26055   2.089   9.498  12.693  0.0169 -0.1158  0.1143
 9922W        W26056  12.600  10.685   2.858 -0.4457 -0.3109 -0.0340
 9923W        W26057   5.630   1.413  12.965 -0.0327  0.0515 -0.1331
 9924W        W26058  11.534   0.848  10.616  0.0905 -0.1166 -0.1903
 9925W        W26059  17.939  10.727   0.942 -0.4537 -0.0461 -0.1395
 9926W        W26060  14.283   1.029   2.687 -0.2287  0.0963 -0.0858
 9927W        W26061  15.561  15.666   5.966 -0.2419 -0.0457 -0.0597
 9928W        W26062   7.637  14.757   0.540 -0.2881  0.2082 -0.1201
 9929W        W26063   0.663   5.105   1.241  0.3824 -0.0421  0.0927
 9930W        W26064  16.240   4.144  12.004 -0.2906 -0.0643  0.1930
 9931W        W26065   5.527  18.564  14.856  0.0187  0.1236  0.1496
 9932W        W26066  15.118  18.805  12.927 -0.4225  0.2168 -0.0773
 9933W        W26067   8.520   1.668   1.602 -0.1247 -0.1730 -0.0676
 9934W        W26068   1.110   6.206   2.758  0.1056  0.0140  0.0484
 9935W        W26069  10.035  18.370  13.086 -0.0593  0.0233  0.1949
 9936W        W26070  19.119   1.800   0.319 -0.0680 -0.2274  0.0618
 9937W        W26071  18.716  13.781   1.416  0.0744  0.2201  0.0226
 9938W        W26072  13.535   0.426   3.064  0.2632  0.1751  0.2432
 9939W        W26073   2.689  19.287   2.950  0.3193 -0.2804  0.1482
 9940W        W26074  15.346  13.417  12.483 -0.2590  0.1879 -0.1499
 9941W        W26075  15.621  18.667  13.440 -0.0134 -0.3041 -0.2339
 9942W        W26076  11.101   0.906  12.609  0.4466  0.3026  0.1916
 9943W        W26077  19.150   8.707   5.386  0.1329  0.0399  0.3149
 9944W        W26078  18.142   7.067  14.882  0.0469  0.1207 -0.0369
 9945W        W26079   8.435   9.736  11.020 -0.2558  0.0432 -0.0166
 9946W        W26080   4.891  16.232  10.896 -0.2551 -0.0677 -0.0757
 9947W        W26081   6.632  10.569  14.396  0.2849 -0.2177  0.0960
 9948W        W26082   3.508   0.474   1.617 -0.3599 -0.3122 -0.0639
 9949W        W26083   7.818   8.520  11.671 -0.0006 -0.2499 -0.0640
 9950W        W26084  15.308  12.987   0.618 -0.0908 -0.1759  0.1647
 9951W        W26085  17.118   1.063  11.270 -0.0059 -0.3989  0.2785
 9952W        W26086   6.444  14.884   3.763  0.0899  0.1287 -0.1575
 9953W        W26087   5.766  15.925  11.888  0.2529 -0.0980 -0.2690
 9954W        W26088   2.506   2.081   0.095  0.3415  0.2874  0.0024
 9955W        W26089  15.303   8.933  13.362 -0.0103  0.1038 -0.0602
 9956W        W26090   0.458   4.199   2.806 -0.4910  0.1358  0.1673
 9957W        W26091  13.175  11.472   5.848 -0.2222  0.2730 -0.2180
 9958W        W26092   8.693  15.931   2.433  0.0929 -0.0186  0.2668
 9959W        W26093   9.777   9.325   3.583  0.0824 -0.1707  0.0894
 9960W        W26094  19.286  17.087  10.986 -0.3333 -0.1315  0.0755
 9961W        W26095   3.083  15.651  12.221  0.0904  0.0661  0.0046
 9962W        W26096  17.817   3.096   2.532  0.0102 -0.0911 -0.3543
 9963W        W26097   9.394   8.884  11.174 -0.0171  0.1283 -0.2913
 9964W        W26098   5.959  11.012  12.760  0.3345 -0.2730 -0.3267
 9965W        W26099   6.765  16.980  12.014 -0.1514  0.3780  0.2212
 9966W        W26100  18.883   3.062   3.257 -0.0575  0.0589 -0.4120
 9967W        W26101   8.782  12.882  13.307 -0.0842  0.3989  0.2985
 9968W        W26102  17.529  11.361  14.745 -0.2482 -0.0085 -0.3959
 9969W        W26103  13.058   2.632  11.837  0.0229 -0.0165 -0.2014
 9970W        W26104   7.864  14.097  12.527 -0.3343  0.2160  0.2156
 9971W        W26105  12.496  12.159  14.537  0.1435  0.0975  0.1148
 9972W        W26106   7.893  13.165   1.624  0.1513  0.1091 -0.3932
 9973W        W26107  11.816  19.061  13.080 -0.2593  0.2854 -0.2713
 9974W        W26108   8.306   4.627   5.111  0.0257 -0.0326 -0.3644
 9975W        W26109   7.334  15.741   2.502  0.1070  0.1530  0.3209
 9976W        W26110   8.459   7.396   1.979 -0.0830 -0.2391  0.3109
 9977W        W26111   4.836  17.925   2.967  0.0644 -0.4084  0.1857
 9978W        W26112  16.936  17.431   1.422 -0.0339 -0.0908 -0.0717
 9979W        W26113  13.976  11.779  13.091  0.2697 -0.2021  0.1013
 9980W        W26114   4.242   1.239  10.423  0.0531 -0.2391  0.3349
 9981W        W26115  11.118   9.121   0.540  0.3446 -0.0592 -0.2657
 9982W        W26116   3.861   7.653  13.382 -0.2524 -0.0491  0.0154
 9983W        W26117  11.271  17.604  12.288  0.0349 -0.0401 -0.0822
 9984W        W26118   1.286   3.634  10.473 -0.2637  0.1877 -0.1356
 9985W        W26119   2.574  13.204   2.836  0.2220  0.1990  0.1742
 9986W        W26120  19.008   7.696  11.240  0.1544  0.0097  0.2708
 9987W        W26121   1.891  18.070   2.993  0.2541  0.4475  0.0612
 9988W        W26122  16.275  10.435   0.368 -0.0685 -0.0532  0.0246
 9989W        W26123   3.230  16.397  10.658 -0.3388  0.0687 -0.1103
 9990W        W26124   0.580  18.496   4.082 -0.0844  0.0293 -0.3421
 9991W        W26125   6.455  12.673  13.817  0.3917 -0.0296 -0.1657
 9992W        W26126  10.886  12.656   3.384 -0.3961  0.0262  0.2365
 9993W        W26127   4.540  13.210   1.302 -0.1476  0.0458  0.0933
 9994W        W26128  13.028   6.949   1.270 -0.2014 -0.1124  0.3688
 9995W        W26129   0.441   0.601   0.968 -0.0613  0.0859 -0.0016
 9996W        W26130  16.861  13.001   0.361  0.1450  0.0005  0.0612
 9997W        W26131   0.257  18.080   3.277  0.2665 -0.1699  0.1480
 9998W        W26132   1.030  14.660  13.547 -0.0581  0.0088 -0.1283
 9999W        W26133  13.873  17.860   4.715  0.3166 -0.2073  0.0687
10000W        W26134  13.211   8.326   0.623  0.1552  0.1967 -0.2217
10001W        W26135   4.388   1.217   3.054  0.1249  0.0584 -0.1027
10002W        W26136   8.627  14.638  14.242  0.1399  0.0701  0.2149
10003W        W26137  16.741   8.862   1.843  0.1074  0.0289  0.1096
10004W        W26138  13.025  11.782  12.343 -0.0443 -0.1333  0.2592
10005W        W26139   7.128   9.712   1.169  0.3087  0.3428  0.1348
10006W        W26140  10.872  16.653   2.057  0.2289  0.2532 -0.3079
10007W        W26141   7.989   8.300   1.190 -0.1754  0.1445 -0.1448
10008W        W26142   2.045   4.478  13.566  0.1366 -0.0713 -0.2110
10009W        W26143   7.040   9.631  13.980 -0.0421 -0.0482  0.3702
10010W        W26144   3.353  14.835   4.785  0.0766  0.0771 -0.2562
10011W        W26145  13.059  14.494   5.308 -0.2457  0.1695  0.1928
10012W        W26146  11.639   0.881  12.085 -0.0519  0.2878  0.1398
10013W        W26147   0.699  15.504  14.861 -0.1848  0.1855 -0.1551
10014W        W26148  16.962  11.110   4.479  0.1123 -0.0600 -0.4229
10015W        W26149   7.411   0.329   1.674 -0.1582 -0.0866  0.0061
10016W        W26150  12.332  17.762  13.010  0.1996 -0.0592 -0.1416
10017W        W26151  19.350  17.925  10.676  0.4493 -0.0905 -0.0720
10018W        W26152  10.141  19.243   1.035  0.0889 -0.0342  0.0388
10019W        W26153   0.806   1.500   5.011  0.1242  0.0721 -0.0912
10020W        W26154   8.333  17.996   9.999 -0.1471 -0.2202  0.1494
10021W        W26155  14.615  13.569   3.669 -0.0395 -0.0206 -0.1453
10022W        W26156   5.511   2.192   0.546 -0.3209  0.3532  0.4784
10023W        W26157   3.099  11.997   0.779 -0.1200  0.1362  0.0243
10024W        W26158  17.770   0.409  12.809  0.2937 -0.5376 -0.2702
10025W        W26159   8.829  19.107   4.839  0.1920  0.2684  0.0060
10026W        W26160   0.752   2.893   2.965 -0.2384 -0.1841 -0.1778
10027W        W26161   3.800  14.961  10.996  0.0354  0.1361  0.2644
10028W        W26162   1.558  18.392  13.615 -0.2999  0.0545  0.1389
10029W        W26163  10.469  19.256  13.597 -0.0520  0.1399  0.0168
10030W        W26164   0.317  10.297  14.785  0.1787 -0.1774 -0.0711
10031W        W26165   9.532  14.355   1.046 -0.0814 -0.2056 -0.3243
10032W        W26166  11.131   8.148  14.905 -0.0460 -0.2479 -0.1726
10033W        W26167  17.832   7.927   4.121 -0.0287  0.2465 -0.2494
10034W        W26168   6.897  10.275  12.924  0.2061 -0.0364  0.1708
10035W        W26169  15.290  15.517  13.153  0.0190 -0.0217 -0.1267
10036W        W26170   9.648  12.702  14.387 -0.1542  0.0673  0.0567
10037W        W26171   0.989  18.679   1.978  0.1743 -0.1513  0.1632
10038W        W26172  17.278   3.267   3.105  0.3979  0.0507  0.1963
10039W        W26173  14.192   6.143  10.638  0.5259 -0.0712 -0.1290
10040W        W26174  15.105   9.095  11.827 -0.3037 -0.0175  0.4163
10041W        W26175  15.664  14.662  13.436 -0.0769  0.0734 -0.2045
10042W        W26176  11.351   1.769   4.014 -0.3232  0.0909  0.0831
10043W        W26177   6.086   0.278  12.912 -0.3361  0.0307  0.2896
10044W        W26178  15.032  12.334   1.275  0.2590  0.0896 -0.0103
10045W        W26179   4.472  18.518   2.263 -0.1686 -0.0169 -0.0653
10046W        W26180   7.694   9.304   4.543  0.0850 -0.0094 -0.0203
10047W        W26181   2.145   5.882  10.626 -0.0015 -0.0964  0.0449
10048W        W26182   1.933   5.550  11.551 -0.0528 -0.0607 -0.1658
10049W        W26183   8.443   0.940   5.091  0.0235  0.2202 -0.0865
10050W        W26184  18.912  17.818   4.346 -0.2602 -0.0276 -0.5133
10051W        W26185   8.342   7.022   4.129  0.1197  0.3829  0.0849
10052W        W26186   9.172   7.317   4.244 -0.1009 -0.0494 -0.0696
10053W        W26187   0.932   9.756  14.223  0.0886 -0.1493 -0.2279
10054W        W26188   5.046   0.903   4.637  0.4149 -0.1370 -0.1112
10055W        W26189  19.234  18.848   3.191  0.3695  0.3102 -0.0518
10056W        W26190   5.445   8.508   5.303 -0.2581  0.1100 -0.1277
10057W        W26191  18.192  18.800  13.714  0.0767 -0.2707 -0.2718
10058W        W26192  13.215  14.362   3.885  0.3134  0.2713 -0.4251
10059W        W26193  13.244   3.021   0.355  0.0160  0.1013  0.0820
10060W        W26194   0.812   2.591  10.387  0.1830  0.0783 -0.0741
10061W        W26195  12.415   5.592   3.848  0.1209  0.0066 -0.0591
10062W        W26196  17.732  13.138   3.169 -0.0520 -0.1721  0.0799
10063W        W26197   4.110   8.779  10.165 -0.1670  0.1435 -0.0004
10064W        W26198   0.450  10.369  13.658  0.3453 -0.1169 -0.3792
10065W        W26199  11.181  13.869   4.637 -0.0715 -0.4287 -0.0094
10066W        W26200   7.528   6.544  13.152  0.1148 -0.0988  0.2119
10067W        W26201  14.165  16.778   1.964  0.0368 -0.0052  0.0594
10068W        W26202   7.319   2.388   1.154 -0.1928 -0.2881  0.1396
10069W        W26203   8.957   2.535  10.530  0.0325 -0.1170 -0.3675
10070W        W26204   2.928  17.945  10.727 -0.1822 -0.0079 -0.0705
10071W        W26205   1.111   8.702   9.921  0.1115 -0.1115  0.4471
10072W        W26206  12.645  13.001  14.858 -0.3083  0.1120 -0.2765
10073W        W26207   0.030   2.860  12.178  0.0997 -0.0540 -0.1714
10074W        W26208   1.991   4.029   1.496 -0.2758 -0.2715  0.0493
10075W        W26209  12.340  17.864  13.745 -0.0149 -0.0212  0.1386
10076W        W26210   0.961  17.601  14.212  0.0542  0.0500  0.1148
10077W        W26211   8.655  13.940  11.037 -0.0203 -0.0547 -0.2041
10078W        W26212  16.010   1.305  12.313 -0.2082 -0.0976 -0.0148
10079W        W26213  18.269   7.611   5.204  0.2767  0.0708  0.1222
10080W        W26214   4.251  13.307   3.457 -0.3613 -0.2269 -0.3336
10081W        W26215  11.979  16.919   0.692 -0.1492  0.2216  0.1342
10082W        W26216  17.741  18.473   1.063 -0.3823  0.2179 -0.0209
10083W        W26217  12.264  10.604  10.197 -0.2614  0.1107  0.2054
10084W        W26218  16.936  17.719   0.984  0.0599  0.3089  0.0317
10085W        W26219  14.127   2.726  11.938 -0.2228  0.1395 -0.0796
10086W        W26220   8.748  18.843  14.237  0.1800  0.2661 -0.1305
10087W        W26221  13.544   6.169  11.208  0.0766 -0.0639 -0.1003
10088W        W26222  15.430  14.122   9.593 -0.3119 -0.1208  0.0439
10089W        W26223  12.297  17.800   1.462  0.0142 -0.3864 -0.2740
10090W        W26224   7.298  10.312   5.366 -0.0162 -0.0165 -0.0163
10091W        W26225  19.350  18.442   0.050 -0.1524  0.0380  0.0947
10092W        W26226  15.814   6.403   2.474  0.0994 -0.0074 -0.2007
10093W        W26227   1.013  16.708   1.320  0.2157  0.1258  0.1338
10094W        W26228  11.021  17.083  14.081 -0.1656 -0.5544  0.3331
10095W        W26229   9.162   6.548  13.250 -0.0831 -0.1937 -0.0343
10096W        W26230  14.464   5.200  14.623  0.0410 -0.1096  0.3404
10097W        W26231   0.272   0.246   3.164 -0.1055  0.0248  0.1119
10098W        W26232  11.471   2.816  14.018  0.0497  0.1275  0.2633
10099W        W26233  13.409   6.624   3.820 -0.1148 -0.1204  0.1244
10100W        W26234  10.500   9.155   1.895  0.1546  0.2070 -0.5387
10101W        W26235  10.362  12.049   3.316 -0.1740 -0.0208  0.1557
10102W        W26236  11.161  13.356  11.850  0.1047 -0.3323  0.1360
10103W        W26237  14.756  13.125   3.811 -0.0738 -0.1871  0.1183
10104W        W26238  10.898  18.559  14.211 -0.0180  0.0599  0.0009
10105W        W26239  12.636  13.322   5.125  0.3154  0.1746 -0.1906
10106W        W26240  12.202   5.404  14.345  0.1432 -0.1736 -0.0664
10107W        W26241  11.402   8.145   4.843 -0.1351  0.0367 -0.0957
10108W        W26242   4.910  15.037   2.753 -0.1176 -0.0142  0.0433
10109W        W26243  17.556  11.680   0.187 -0.3007 -0.0886 -0.0154
10110W        W26244   5.636  13.643   1.114 -0.0923  0.2377 -0.0979
10111W        W26245   9.517  12.258   2.836  0.3778 -0.1371  0.2042
10112W        W26246   7.650   1.079   0.515  0.2860 -0.4076 -0.1031
10113W        W26247  13.521   6.416  12.956 -0.0177  0.0266 -0.2562
10114W        W26248   6.614   6.673  10.829 -0.3294 -0.0042  0.0442
10115W        W26249  14.370   1.106   2.128 -0.0416 -0.1767 -0.1173
10116W        W26250  15.677   1.687   2.873 -0.0351 -0.1510 -0.1700
10117W        W26251   8.559  11.442   1.726  0.0541  0.0050 -0.2524
10118W        W26252  11.099  15.683   5.417  0.0128 -0.0734 -0.2303
10119W        W26253   3.445  13.727   4.374 -0.2398  0.0797  0.0885
10120W        W26254   1.322  11.712   3.644  0.0417 -0.0425 -0.0453
10121W        W26255   1.832   4.087  12.178  0.0256  0.1297  0.1259
10122W        W26256   9.980   7.539  12.454 -0.2768  0.2126 -0.0570
10123W        W26257  15.235  14.539   4.319  0.0686 -0.0010 -0.1785
10124W        W26258   8.161  14.117   3.523 -0.0112 -0.1772 -0.3033
10125W        W26259  12.843   6.900  12.541  0.1208 -0.0643 -0.0105
10126W        W26260  13.909   0.150  14.774  0.1110  0.1499 -0.1754
10127W        W26261  14.070  16.467   4.796 -0.0096 -0.0799 -0.0349
10128W        W26262  13.399   3.851  10.016 -0.1014  0.1261 -0.4074
10129W        W26263   7.123   7.610   1.956  0.1958 -0.1027 -0.1074
10130W        W26264  13.876  19.008   2.734 -0.2883  0.4968  0.0682
10131W        W26265  11.266   8.641  11.402 -0.2240  0.2065 -0.0909
10132W        W26266  17.745   6.431  12.211 -0.1510  0.2035  0.0875
10133W        W26267   0.957   8.762   8.895  0.0418  0.0694 -0.1268
10134W        W26268   0.502  14.891  11.449 -0.0106  0.1892 -0.0567
10135W        W26269   0.208  16.989  10.526 -0.0425  0.3725  0.1753
10136W        W26270  10.432  14.511   3.250  0.1801 -0.0392 -0.3806
10137W        W26271  17.838  10.607  11.539  0.0527 -0.1308 -0.1468
10138W        W26272   4.078  12.869   3.057  0.1781 -0.1395 -0.1047
10139W        W26273  13.764   5.162  13.762  0.2131 -0.2249  0.0665
10140W        W26274  14.277  11.711   1.087  0.6070 -0.0900 -0.0566
10141W        W26275   3.025  17.724  12.994 -0.0644 -0.2010 -0.1002
10142W        W26276   6.866   5.188  12.041  0.0200 -0.0110  0.1343
10143W        W26277   3.292   4.882  14.924  0.1108 -0.1768 -0.0862
10144W        W26278   8.848  13.806   1.411 -0.2141 -0.0877  0.0720
10145W        W26279  12.553  12.149  13.545  0.1761  0.1724 -0.0575
10146W        W26280   3.984   5.922  12.415 -0.1967 -0.5761  0.1460
10147W        W26281   4.187   0.733  13.641 -0.1812  0.3086  0.1899
10148W        W26282   5.105   9.538  11.710  0.3426  0.0478 -0.1354
10149W        W26283   3.691  11.971  12.009 -0.2151 -0.0083 -0.4212
10150W        W26284  17.237   2.829  11.503  0.3085  0.2409 -0.3274
10151W        W26285   1.006   5.919  12.523 -0.0067  0.2922  0.0263
10152W        W26286   3.866  13.664  14.182  0.1665 -0.0319  0.3478
10153W        W26287  15.967  12.269   0.832 -0.2854  0.0436 -0.1016
10154W        W26288   8.137   8.473  10.902  0.1500 -0.3196 -0.2283
10155W        W26289  14.646  15.998   0.318  0.0906  0.0452  0.2742
10156W        W26290   3.093  15.968   4.719 -0.0278 -0.1325  0.0594
10157W        W26291   2.942  10.018  14.813  0.2692  0.0156  0.2279
10158W        W26292  11.372  11.355  13.663  0.3064 -0.0352 -0.1748
10159W        W26293   8.485   4.160  14.520  0.0922 -0.2041  0.1817
10160W        W26294  14.562  11.462   1.852 -0.1258  0.1355  0.0445
10161W        W26295   1.675  13.540  10.431  0.2511  0.2518 -0.3118
10162W        W26296  14.422   0.667   0.192 -0.0078  0.0621  0.1492
10163W        W26297  19.272   7.945   1.434  0.1067 -0.0413 -0.0340
10164W        W26298  10.400  12.359  11.452 -0.1784  0.0805  0.3451
10165W        W26299   9.979  18.236   4.528  0.2169 -0.1348  0.2948
10166W        W26300  12.502   5.923   2.329 -0.1458 -0.0367  0.3876
10167W        W26301   8.385  10.614  13.139  0.0539 -0.1070 -0.1726
10168W        W26302  15.279  12.251   2.642  0.1416  0.0741  0.1731
10169W        W26303   6.744   0.308  11.217  0.0958 -0.0452 -0.1474
10170W        W26304   9.190   6.030   4.069 -0.0686 -0.2137  0.2283
10171W        W26305  15.968  18.853   1.315 -0.1105  0.0137 -0.2240
10172W        W26306  18.742   3.544  12.962  0.0692  0.0022  0.0777
10173W        W26307   5.604   4.060  13.893 -0.1854  0.2047 -0.0918
10174W        W26308   6.955   6.651  14.335 -0.1570  0.6688  0.0208
10175W        W26309   2.118  13.401  10.515 -0.0373 -0.1702 -0.0323
10176W        W26310   9.642  11.710   0.696  0.0327  0.0674  0.1169
10177W        W26311   4.242   5.934   0.582  0.1411  0.0035  0.1256
10178W        W26312  17.016   6.184  11.754  0.1068  0.0767  0.1362
10179W        W26313   5.337  19.105  10.634 -0.1020 -0.0991 -0.0281
10180W        W26314  12.302   6.612  13.503 -0.0394 -0.2519 -0.2630
10181W        W26315  12.745  15.225   4.902 -0.1857  0.0297  0.2223
10182W        W26316   3.972  15.332   4.381 -0.0472 -0.2885  0.2359
10183W        W26317  13.428  12.364   2.791 -0.1248  0.0557  0.2380
10184W        W26318  10.164  13.480   3.076 -0.0456 -0.3678  0.2139
10185W        W26319   8.112   6.771   2.544  0.1669  0.0166 -0.1354
10186W        W26320   5.623  16.199  12.390 -0.2122 -0.1609 -0.0376
10187W        W26321   5.516   8.628   8.986 -0.1500 -0.0011  0.1852
10188W        W26322   1.416   4.532   9.411  0.1096  0.0033  0.1246
10189W        W26323  11.391   1.582  13.001 -0.1095 -0.1411  0.0999
10190W        W26324  10.763   4.492  14.241 -0.4245  0.1443 -0.0093
10191W        W26325  10.135   6.181   1.056 -0.1022 -0.2916 -0.0604
10192W        W26326  12.366  18.291  13.461  0.0211 -0.1066  0.0057
10193W        W26327   6.144  17.169   3.258 -0.2783  0.1510 -0.1929
10194W        W26328  15.192  19.320   3.617 -0.2918  0.0984  0.0708
10195W        W26329   9.220  16.078  10.802 -0.0577 -0.3435 -0.0620
10196W        W26330   8.005  18.837  12.468  0.2246 -0.3205  0.1300
10197W        W26331   3.423   7.727   2.407  0.2707  0.3275 -0.0940
10198W        W26332  10.662  16.237  11.076 -0.1891 -0.0416 -0.0158
10199W        W26333   8.332  18.559   5.527 -0.3122  0.3764 -0.2353
10200W        W26334  18.882   8.093  14.833 -0.0469  0.0006  0.0105
10201W        W26335   5.170  11.403  13.210  0.1266 -0.0230  0.0300
10202W        W26336   0.422  15.910  14.051 -0.1020  0.1369 -0.0139
10203W        W26337   0.243   1.071  11.792  0.0788  0.0010 -0.1000
10204W        W26338   3.618  10.038  13.668 -0.3621 -0.2149  0.0006
10205W        W26339  15.770  16.618   2.536  0.0768 -0.1861 -0.0547
10206W        W26340  15.266   3.578   5.323 -0.1135  0.0650 -0.1260
10207W        W26341   5.672   2.707  11.553 -0.0841  0.4016  0.1936
10208W        W26342   3.332   8.238   3.927  0.1607 -0.0292 -0.1275
10209W        W26343  11.117   0.197   0.418 -0.2933  0.0064  0.1224
10210W        W26344  15.807   4.783   0.092  0.2572  0.5147 -0.0285
10211W        W26345   5.144   1.703  12.818  0.0775  0.1233 -0.5328
10212W        W26346   0.804  19.230   4.986  0.1477  0.2510 -0.2428
10213W        W26347  14.601   4.932  11.547 -0.1187  0.3842 -0.3411
10214W        W26348   4.903   0.864   0.299 -0.1421  0.1906  0.0210
10215W        W26349  19.298  10.994   1.244  0.2236 -0.1344 -0.1984
10216W        W26350   9.683   7.862  14.488  0.1452 -0.2953  0.0395
10217W        W26351  17.642  18.985   2.115  0.3063  0.1902  0.1133
10218W        W26352  17.258   0.162  11.101  0.0065 -0.3027  0.1100
10219W        W26353  13.909  13.191   3.171 -0.1082 -0.0535  0.6552
10220W        W26354  17.056   0.414   2.946 -0.0133  0.3944 -0.3638
10221W        W26355   5.739   8.322   2.369 -0.0151 -0.0576  0.2841
10222W        W26356   1.032  16.700  10.467  0.4752  0.3251  0.0361
10223W        W26357   9.073   0.409  12.417  0.4317 -0.2514  0.3661
10224W        W26358  14.367  15.215  11.810 -0.2180 -0.0383  0.0769
10225W        W26359   7.765  12.210  14.083 -0.5089 -0.0092  0.0627
10226W        W26360  15.726   8.569  13.980  0.1736 -0.0130  0.3247
10227W        W26361   4.868  14.149   4.980  0.0510  0.0849  0.0165
10228W        W26362  13.137  18.299  11.986  0.1921  0.0214  0.1004
10229W        W26363  11.862   3.557   2.622  0.1573  0.0919 -0.3108
10230W        W26364   5.797   1.326  13.624 -0.1438  0.2319  0.1861
10231W        W26365  17.896   0.447   3.808 -0.1890 -0.0702 -0.2139
10232W        W26366   3.162  12.811  12.441  0.1535 -0.0477 -0.0168
10233W        W26367  11.521   4.900   3.909  0.3021  0.1614 -0.0771
10234W        W26368  18.090  13.102  14.014 -0.0798  0.1541 -0.1267
10235W        W26369   1.987   9.724   9.942  0.2844  0.2097 -0.0060
10236W        W26370   0.588   0.473  12.580 -0.1614 -0.0295  0.2237
10237W        W26371  14.561  15.767  12.709  0.0550  0.0520 -0.1422
10238W        W26372  13.241  17.044   4.872  0.0435 -0.2918  0.1104
10239W        W26373   1.800  18.142   2.162 -0.0851  0.1984  0.0476
10240W        W26374  15.941   1.078   0.504  0.1150  0.0221 -0.0550
10241W        W26375   7.797  15.147   5.032  0.1374 -0.0707 -0.0035
10242W        W26376  14.118  18.130   4.345  0.0106  0.2039 -0.2594
10243W        W26377   8.429  18.919  11.361  0.0162 -0.5252  0.1547
10244W        W26378  17.169  16.759  12.043  0.1131 -0.0254  0.2821
10245W        W26379  15.182  16.847   1.411 -0.1822  0.1116  0.0228
10246W        W26380  17.380  12.247  13.754 -0.1504  0.3169  0.2448
10247W        W26381  12.337   5.996   1.739 -0.0320  0.0531 -0.0135
10248W        W26382   5.420   3.744   9.619 -0.1921  0.1116  0.1677
10249W        W26383  18.728  12.411   1.044 -0.0744  0.4739  0.3114
10250W        W26384  10.732  17.009  10.580 -0.1803 -0.2843  0.3131
10251W        W26385   7.079   4.196  13.670 -0.1691 -0.0273 -0.5683
10252W        W26386   6.044   3.018   2.103  0.1006  0.1440  0.1857
10253W        W26387   8.110  11.319  14.882 -0.2682 -0.1106  0.0614
10254W        W26388  13.167   7.974  12.586  0.1680 -0.0707  0.4299
10255W        W26389  19.285   4.890  10.283 -0.1433  0.0678 -0.4385
10256W        W26390  10.201   0.793   1.266  0.2188  0.0640 -0.1404
10257W        W26391  14.713   2.992   9.852 -0.4318  0.2471  0.0978
10258W        W26392  14.439  14.507  14.851  0.0326 -0.1221 -0.2889
10259W        W26393  10.276   7.261  10.872  0.3347  0.0769  0.2212
10260W        W26394   3.417  19.028   3.163 -0.2517 -0.2938 -0.3458
10261W        W26395  18.725  15.254  13.044  0.2216 -0.0921 -0.1968
10262W        W26396  19.215  18.588   0.950 -0.4214  0.0618  0.0503
10263W        W26397  17.065   7.207  11.038  0.0865  0.1735 -0.3281
10264W        W26398  17.965  17.203   1.714  0.1080 -0.2494  0.0117
10265W        W26399  12.655  17.163   5.093 -0.0470  0.0614 -0.2326
10266W        W26400   6.149   4.593  11.029  0.1364 -0.0471  0.2163
10267W        W26401   1.378   8.061   3.316 -0.1702  0.0690  0.0049
10268W        W26402   2.525   8.855   1.544  0.2531 -0.0917 -0.0402
10269W        W26403   6.411  12.912  12.962  0.1062  0.0418  0.0083
10270W        W26404  12.620  11.339   1.120  0.1625 -0.0439  0.2374
10271W        W26405   7.933  12.365   4.434  0.0350  0.1619  0.2732
10272W        W26406  17.473   8.516   2.102  0.0820 -0.3319 -0.1822
10273W        W26407  10.747  11.074   3.510  0.3755 -0.0873  0.1155
10274W        W26408  15.438   3.622  13.040  0.1524 -0.0785 -0.0157
10275W        W26409  12.345  18.181   5.053  0.2036  0.1242  0.2180
10276W        W26410   8.188   7.526   9.266  0.1264  0.1604  0.3243
10277W        W26411   7.028   9.530  12.203  0.6275  0.2883 -0.4528
10278W        W26412   3.756  13.576  13.294  0.0903 -0.1777  0.0244
10279W        W26413  13.134  17.671   4.454  0.3616 -0.0648 -0.0367
10280W        W26414  18.944  17.898   9.638  0.2239 -0.1593 -0.1082
10281W        W26415  12.673   9.682   0.333 -0.0027  0.2591 -0.0317
10282W        W26416   8.988   3.894  14.594  0.0961  0.3506  0.0589
10283W        W26417  11.002  10.412   9.651  0.1968  0.3417  0.2255
10284W        W26418  13.108   1.910   2.236 -0.1537 -0.3749  0.0950
10285W        W26419  18.270   2.139   1.954  0.2208  0.2323 -0.4511
10286W        W26420  16.297   7.481   0.232 -0.0949 -0.2831  0.1616
10287W        W26421   1.003   2.013   4.895  0.2762 -0.1213  0.1264
10288W        W26422   4.190  16.473   1.936  0.2666  0.1814 -0.2349
10289W        W26423   5.688  19.038   0.077 -0.2863  0.0718  0.1460
10290W        W26424   6.067  17.886   4.341  0.0065  0.0717 -0.0564
10291W        W26425  16.702  13.996   5.412 -0.0850 -0.3472 -0.4187
10292W        W26426   5.610   7.307   1.713 -0.0461  0.0898  0.2051
10293W        W26427   5.179   9.077  11.357  0.0337  0.0300  0.3243
10294W        W26428  13.387   2.703  14.739  0.1662 -0.3264  0.1898
10295W        W26429  12.039   4.875   3.963  0.0278 -0.0053 -0.1184
10296W        W26430  11.587   2.903   0.198  0.3525 -0.2071  0.2174
10297W        W26431  17.873  18.861   4.830 -0.0883  0.2205  0.2584
10298W        W26432   5.782   8.487   9.961 -0.0442  0.1020 -0.0584
10299W        W26433  16.488   4.865  14.007 -0.1569  0.3545 -0.2040
10300W        W26434   9.399  13.902   5.107 -0.1649  0.0911  0.1780
10301W        W26435  17.813   7.061  13.268 -0.0559 -0.0997 -0.2405
10302W        W26436   0.558   1.069   1.600  0.3366  0.0987  0.2414
10303W        W26437   2.473   8.547   9.719  0.2539  0.2368 -0.1438
10304W        W26438   5.734  12.930   3.609  0.3584  0.2708 -0.2955
10305W        W26439  14.857  11.905  11.385  0.0771  0.2173  0.0364
10306W        W26440   5.137  13.502   0.124  0.0416  0.1317  0.3067
10307W        W26441   6.706   2.735  14.723  0.0141  0.0626 -0.0882
10308W        W26442   7.185   8.197  11.972 -0.1673  0.3848 -0.0168
10309W        W26443  18.064  15.203  10.170  0.2013 -0.1309 -0.1373
10310W        W26444  13.749   3.473   5.961  0.1232 -0.2273  0.1567
10311W        W26445   2.089  12.441   3.437  0.1097 -0.4120  0.2000
10312W        W26446   9.416   0.755  14.046 -0.0753 -0.2555 -0.2312
10313W        W26447   7.735  18.149  14.172 -0.0153 -0.0898  0.1149
10314W        W26448   8.835  17.866  10.147 -0.1938  0.1191  0.4999
10315W        W26449   9.367   1.688   1.073  0.2296  0.1667 -0.1538
10316W        W26450   1.532  15.096  11.588  0.2387 -0.1357 -0.0809
10317W        W26451   2.700   7.321  14.589 -0.1689 -0.1883 -0.0521
10318W        W26452   7.624   5.808  10.250 -0.0599 -0.2136  0.0043
10319W        W26453   9.262  15.570   4.507 -0.2367  0.0164 -0.4154
10320W        W26454   4.828  10.994  14.745 -0.1193 -0.2931 -0.2207
10321W        W26455   8.652   2.578   2.981  0.1200 -0.0227 -0.0653
10322W        W26456   3.593   8.367   1.910 -0.0197  0.1230  0.2171
10323W        W26457  11.353   6.129  10.380 -0.1801  0.0493  0.4090
10324W        W26458   7.849  11.566   3.256  0.0844  0.0454 -0.0926
10325W        W26459   3.682   2.280  12.816  0.1774 -0.0304  0.0830
10326W        W26460   8.047   1.365  12.504  0.0469 -0.0098 -0.4079
10327W        W26461   4.079  12.882  14.575 -0.0169 -0.1809  0.0682
10328W        W26462  19.226   3.581  10.457  0.5938  0.1344  0.4298
10329W        W26463  18.715  11.818  11.907  0.2451  0.0481  0.0490
10330W        W26464  13.272  15.568  14.325  0.0744  0.0483 -0.4194
10331W        W26465   1.755   5.395  13.426  0.2182 -0.0917  0.1165
10332W        W26466   3.377   2.794   3.476  0.1250 -0.0671 -0.0431
10333W        W26467  12.143   3.150   2.580  0.2484  0.0322 -0.1595
10334W        W26468   2.365   8.909   2.064  0.1194 -0.1815 -0.2131
10335W        W26469   3.790   5.048   0.423  0.0714  0.3822 -0.1735
10336W        W26470  11.334  16.152   3.372 -0.0534 -0.0827  0.1591
10337W        W26471  19.060  16.577   3.342 -0.2617 -0.2075 -0.1736
10338W        W26472   5.813   3.288   3.060 -0.0983 -0.1546  0.3150
10339W        W26473  14.804   6.762   4.323 -0.0260 -0.0658 -0.1747
10340W        W26474   5.788  17.028   1.470  0.1925 -0.0893  0.0829
10341W        W26475  11.211   5.426   0.595  0.0687 -0.0224  0.3525
10342W        W26476   3.249  17.141  10.066 -0.0841  0.0877  0.0551
10343W        W26477   4.114  10.794   1.711  0.0101 -0.1129  0.1135
10344W        W26478   2.678  17.649  13.308  0.0497  0.2147  0.1267
10345W        W26479   9.546   4.180   9.244  0.0595  0.0705 -0.0305
10346W        W26480   2.668  17.855   5.281 -0.1611  0.2071  0.1769
10347W        W26481  12.040   8.938  10.480 -0.2255 -0.1762 -0.2693
10348W        W26482  13.523   5.195   0.314 -0.3316  0.0304 -0.3574
10349W        W26483   4.843   2.567   3.780 -0.0352  0.1431 -0.2616
10350W        W26484   5.787   8.628  10.734  0.0081 -0.2451 -0.0614
10351W        W26485   1.380  10.163   1.465  0.1641 -0.0382  0.0344
10352W        W26486  17.015  16.833   3.745  0.4439  0.1083 -0.0629
10353W        W26487   9.209  11.478  11.951 -0.1318  0.4901 -0.1028
10354W        W26488  17.917   5.785   4.245 -0.0477 -0.2662  0.1425
10355W        W26489   8.152   2.597   3.989 -0.4347 -0.1092 -0.1019
10356W        W26490   4.516   3.338   1.281  0.0884  0.4412 -0.4468
10357W        W26491   0.510   6.011  11.513 -0.0393  0.0150  0.5529
10358W        W26492   4.628   9.344   3.779 -0.0357 -0.1201 -0.1880
10359W        W26493   9.717  16.828   3.199 -0.1177 -0.1360 -0.2129
10360W        W26494   2.744  13.117   2.353 -0.2375  0.2235 -0.1592
10361W        W26495   4.366  10.467  12.734 -0.0063 -0.2201 -0.1436
10362W        W26496  10.684  12.617  14.700  0.1512 -0.1579  0.0372
10363W        W26497  16.655   3.109   3.253  0.5312 -0.0049  0.0695
10364W        W26498   2.219  10.466   1.205  0.1023 -0.1261 -0.1034
10365W        W26499   1.065  12.229  10.256  0.0268 -0.1388  0.0766
10366W        W26500  13.202  11.778   3.581 -0.4278  0.1188  0.0088
10367W        W26501  12.275   8.962   3.724  0.0170  0.1097 -0.2574
10368W        W26502  17.070   9.400  12.883 -0.2835  0.0078  0.0417
10369W        W26503  17.547   4.421   4.527 -0.2043 -0.0373  0.2105
10370W        W26504  13.222   6.562   2.744  0.0343 -0.1222 -0.0350
10371W        W26505   4.613  12.178  12.332 -0.1310  0.1273  0.2147
10372W        W26506  14.849  19.178  14.157 -0.5307  0.0045  0.0512
10373W        W26507   4.862   6.602   2.066  0.0914  0.4340  0.3545
10374W        W26508  16.883  16.705   0.229 -0.1957 -0.0327 -0.2180
10375W        W26509   5.550   5.492  11.757  0.1475 -0.0189 -0.1269
10376W        W26510  15.438   1.541  12.754  0.1005 -0.2218  0.0210
10377W        W26511  14.532   0.908  11.435  0.1887  0.0469  0.0030
10378W        W26512  10.325   6.875  13.325 -0.0785  0.2343  0.0847
10379W        W26513   2.200  14.600   0.044  0.2143  0.5423 -0.1322
10380W        W26514   7.455   1.140  12.472  0.0320  0.2289 -0.2576
10381W        W26515  16.645   9.562   2.306 -0.1311  0.0312  0.0504
10382W        W26516   3.798  16.910   0.882 -0.1482  0.0632 -0.0238
10383W        W26517   1.295   9.448  14.063 -0.0430 -0.1869 -0.0924
10384W        W26518  14.593  18.616   0.356  0.0069  0.0998  0.0654
10385W        W26519   4.995   8.512  13.241 -0.1549 -0.0948  0.4571
10386W        W26520   7.810   9.445  10.589 -0.0265  0.3358 -0.0032
10387W        W26521  17.754  18.364   4.659  0.2477 -0.2248 -0.1293
10388W        W26522   2.362   4.333   3.275 -0.1747 -0.0981 -0.0313
10389W        W26523   3.148  17.896  12.395  0.0147  0.2615  0.4435
10390W        W26524  17.171   4.756   4.419 -0.0996  0.1374  0.2893
10391W        W26525  13.756  13.490   0.478 -0.1810 -0.0676  0.0466
10392W        W26526   8.056  13.050   9.603  0.2134 -0.1198  0.0558
10393W        W26527   3.832   9.470   1.139  0.1765  0.2857  0.0204
10394W        W26528   3.515  14.076  10.840 -0.1305 -0.1685 -0.0279
10395W        W26529   5.209   2.193  12.131 -0.1303 -0.1381  0.2303
10396W        W26530  10.426  15.362   4.229 -0.3183  0.0697  0.2998
10397W        W26531   9.821   7.180   3.539  0.0494 -0.0368 -0.0431
10398W        W26532   6.321   4.765  14.293 -0.1059 -0.1160  0.0617
10399W        W26533   1.624   1.924  12.262  0.1577 -0.1762  0.0685
10400W        W26534   7.570  17.526   0.909  0.1916 -0.0232  0.1412
10401W        W26535  13.898  15.049  14.671 -0.0801  0.0914 -0.0370
10402W        W26536  10.896   2.433   0.677  0.2619  0.0473  0.2130
10403W        W26537  11.879   6.650   4.489 -0.0135 -0.0664  0.0478
10404W        W26538  17.288  17.539   5.166  0.0706 -0.1237 -0.1820
10405W        W26539  17.768  13.680   1.476  0.0337 -0.2269  0.4424
10406W        W26540  18.115   0.669  12.176  0.3414 -0.2822 -0.2402
10407W        W26541  10.887  13.315  14.027  0.0129  0.0026 -0.0618
10408W        W26542  16.917  18.464   4.014  0.1043 -0.1603  0.3413
10409W        W26543   4.039   8.472  14.543  0.2650 -0.0894  0.0768
10410W        W26544  12.608   4.929   1.639  0.1521 -0.1197  0.1499
10411W        W26545  10.050   5.199  12.628  0.0111 -0.1864  0.4346
10412W        W26546   8.948   2.027   3.750  0.2639 -0.2611 -0.0359
10413W        W26547   2.669  13.053   4.592 -0.1945 -0.0504  0.0759
10414W        W26548   2.347   8.208  12.921 -0.0539 -0.2310  0.0863
10415W        W26549   3.086   7.746  12.495  0.1269 -0.1890 -0.1426
10416W        W26550   5.460  17.828  12.192 -0.0901 -0.3052  0.1576
10417W        W26551  11.606  15.706  12.361 -0.0740  0.3858  0.0201
10418W        W26552   4.833   2.223   0.313 -0.1075  0.1270 -0.0178
10419W        W26553  15.359   7.787  11.978  0.2929  0.1448  0.4185
10420W        W26554  10.435   6.850  12.779 -0.1183  0.2224 -0.0674
10421W        W26555  12.022   6.249   2.836  0.0203 -0.2480  0.2109
10422W        W26556  15.961  17.037  13.809  0.1875 -0.0657 -0.2313
10423W        W26557   3.516  15.369   2.249  0.0982 -0.1946  0.3007
10424W        W26558  16.032  17.058   6.036  0.0145 -0.1291  0.0219
10425W        W26559  16.533  11.048  11.716 -0.0038 -0.3125 -0.1769
10426W        W26560  18.240   6.113   5.351  0.2200 -0.1282 -0.3516
10427W        W26561  16.041   8.990   0.180  0.3028 -0.2057 -0.1169
10428W        W26562   0.882  19.294  14.286  0.2331 -0.2116  0.0040
10429W        W26563   8.987   9.136   2.685  0.0684 -0.2505  0.0079
10430W        W26564  11.574  17.558  11.868 -0.0806 -0.2025  0.1220
10431W        W26565  12.474   2.191   0.231 -0.5974  0.6616  0.0878
10432W        W26566  14.872  16.191  13.570  0.0639 -0.0211  0.0315
10433W        W26567  11.071   9.017  14.441  0.2399  0.3528  0.1600
10434W        W26568   0.300   1.735  12.079 -0.4457  0.1253  0.1440
10435W        W26569   5.776  11.171  12.271  0.0912  0.2506  0.0833
10436W        W26570  15.576   2.108   4.735 -0.2062 -0.0172  0.2874
10437W        W26571  17.149  10.723  14.426 -0.0533 -0.3795  0.0859
10438W        W26572   2.056  19.251   0.954  0.1063 -0.0279  0.1320
10439W        W26573   8.834  11.157  11.270 -0.0596 -0.3956 -0.2845
10440W        W26574  19.280   0.267   2.699 -0.2084  0.1681 -0.0967
10441W        W26575  14.460   1.042  12.099 -0.2275 -0.2940 -0.2776
10442W        W26576  16.247  18.629   0.421  0.2403 -0.0253  0.2430
10443W        W26577   4.821  17.069  11.515 -0.0380  0.4973 -0.3214
10444W        W26578   3.469   7.237  14.029 -0.3848 -0.2283  0.0390
10445W        W26579  13.755   2.632   1.828 -0.2543  0.0113  0.0615
10446W        W26580   8.008  17.121   4.183  0.0045  0.1739 -0.2406
10447W        W26581  16.755   2.993   5.160 -0.0994 -0.1597 -0.0792
10448W        W26582  10.388   9.750  14.479 -0.0986 -0.1934  0.1433
10449W        W26583  15.478   7.802  11.111  0.1122  0.1347  0.0555
10450W        W26584  16.760  12.267   0.153 -0.0983 -0.5144  0.1091
10451W        W26585   8.235  11.681  11.663 -0.2522 -0.2857 -0.0170
10452W        W26586  18.792  11.957  12.509 -0.1887 -0.0820 -0.2369
10453W        W26587   0.365   6.687  13.505 -0.0433  0.3115  0.2962
10454W        W26588   5.116  15.607   1.392 -0.0583  0.1714 -0.2428
10455W        W26589  13.358   6.853  13.119  0.1832 -0.1066 -0.2357
10456W        W26590  10.024   6.389  13.533 -0.1689  0.3903 -0.0497
10457W        W26591  11.742   7.613  12.994 -0.4108  0.2488  0.1925
10458W        W26592  17.373  16.523   3.261  0.3735  0.2581  0.1306
10459W        W26593   7.736   4.296   3.946  0.3018  0.1061 -0.1766
10460W        W26594  17.291   7.189  13.010 -0.0160  0.0666  0.0336
10461W        W26595   3.204  13.194   3.251 -0.2910  0.1855  0.0418
10462W        W26596   1.012  15.271   3.824 -0.1745 -0.2735 -0.0905
10463W        W26597   5.671   3.795  12.520 -0.0150  0.2029  0.0327
10464W        W26598  13.724   6.432   0.011 -0.2792  0.2561  0.0398
10465W        W26599  11.190  16.566  12.293 -0.1002  0.1483  0.3158
10466W        W26600  12.456  14.808   2.248 -0.1289  0.2265  0.1341
10467W        W26601  17.461  16.270  13.366 -0.1707 -0.0197  0.1516
10468W        W26602  13.359   0.251  11.644  0.0293  0.0251 -0.3295
10469W        W26603   6.176  18.517  14.112 -0.1698  0.1317  0.1606
10470W        W26604   9.253  10.287   1.098  0.2506  0.3862  0.3713
10471W        W26605   3.535   3.105  14.178 -0.1780  0.0668  0.1445
10472W        W26606  17.536   3.248   4.302  0.1211  0.0132 -0.1255
10473W        W26607   5.288   5.522  10.680  0.2394  0.1844  0.2438
10474W        W26608  14.049   5.561   0.746  0.1421  0.1150 -0.2051
10475W        W26609   5.219   3.005   2.456 -0.1723  0.0431  0.1703
10476W        W26610  14.756   9.705   0.851  0.4144  0.2066  0.1963
10477W        W26611  13.106   0.237   9.849  0.1829 -0.0822 -0.1602
10478W        W26612  15.123   3.115  10.993 -0.0727  0.1957 -0.0558
10479W        W26613  13.743   3.062   4.801 -0.1450 -0.0897  0.0759
10480W        W26614  10.510  18.994  14.252  0.2603  0.0545  0.0395
10481W        W26615   7.232  16.912   1.661 -0.1649  0.0982 -0.0678
10482W        W26616   7.814  12.802   4.682  0.0277  0.0428 -0.1611
10483W        W26617   1.111   1.598  12.446  0.2517 -0.1650 -0.2267
10484W        W26618   4.832   0.934  12.399  0.0375  0.1262 -0.2581
10485W        W26619   2.783   9.080   3.593  0.1492 -0.0156  0.1492
10486W        W26620  11.240   7.921   2.107 -0.1573 -0.0006 -0.1227
10487W        W26621  13.561  18.803   4.703 -0.3736 -0.0204 -0.0306
10488W        W26622   9.997   9.840   5.023  0.2379  0.0920  0.5410
10489W        W26623   6.331  16.943   1.511  0.0562  0.1066 -0.2240
10490W        W26624   0.421  13.097   0.172  0.4896 -0.0712  0.2617
10491W        W26625  13.956  14.270  11.416  0.3560  0.3657  0.2917
10492W        W26626   9.841   6.322  14.037 -0.1274  0.0043  0.1160
10493W        W26627  19.323   1.378  13.582  0.3359  0.1260 -0.1571
10494W        W26628   8.317  11.412  14.297  0.0238  0.0987 -0.3056
10495W        W26629   8.665  11.125   4.745  0.0496  0.0604  0.1997
10496W        W26630   9.353  12.284   4.096  0.1045 -0.2285  0.1589
10497W        W26631  14.065  10.224   2.596 -0.0198 -0.4819 -0.0403
10498W        W26632   6.476  13.118   2.505 -0.0140 -0.0854  0.2592
10499W        W26633  18.847  14.362   0.383  0.1704 -0.0654  0.3262
10500W        W26634   1.312  12.113   0.397  0.1957 -0.1729  0.2148
10501W        W26635   2.331   7.327  10.620 -0.1672  0.2303 -0.2933
10502W        W26636   3.193  13.563   0.279 -0.2133 -0.1420  0.4148
10503W        W26637  14.708  11.255  14.464 -0.0726 -0.0112  0.1622
10504W        W26638   2.524   8.231   0.002  0.0598 -0.0509  0.6442
10505W        W26639   6.776   2.148  13.445  0.0292 -0.1790 -0.0021
10506W        W26640  17.813   9.629  11.295 -0.0953 -0.3687 -0.0992
10507W        W26641  12.105  17.650  12.569  0.1621  0.1399  0.1957
10508W        W26642  13.489   2.995   3.722 -0.2269 -0.0847 -0.0184
10509W        W26643  13.993   4.927  12.870  0.0510 -0.1281  0.0108
10510W        W26644  17.726  15.300   4.124  0.1434  0.0683  0.1246
10511W        W26645   8.496   5.023  11.229  0.0846 -0.1044  0.0334
10512W        W26646   3.191  13.539   0.967 -0.3094 -0.3783  0.4250
10513W        W26647   8.142  18.541  14.890 -0.6288  0.1494 -0.2671
10514W        W26648  18.366  13.729   2.210  0.1397  0.1474  0.0770
10515W        W26649  18.641   4.805  10.104 -0.2158 -0.1095  0.0443
10516W        W26650   5.020   9.483   9.144 -0.1368 -0.0408  0.0046
10517W        W26651  14.191   3.720   9.865 -0.0099 -0.1226 -0.1266
10518W        W26652  16.898   1.945  13.442 -0.4459  0.2210 -0.1776
10519W        W26653  13.543   9.681  13.449 -0.2252 -0.0544  0.2239
10520W        W26654   0.785  17.589   3.812  0.0816  0.1039  0.2358
10521W        W26655   2.089  15.462  14.810 -0.3364  0.1789  0.1080
10522W        W26656   7.125   3.280  14.502  0.2481 -0.1825  0.1021
10523W        W26657  12.866   4.879   2.097  0.0169 -0.0652  0.0119
10524W        W26658  15.544  14.700   1.235 -0.1259  0.3219  0.1187
10525W        W26659   2.555  18.694  13.447 -0.1031 -0.0523  0.0714
10526W        W26660  10.718  14.332   2.318  0.0899 -0.5151 -0.1503
10527W        W26661  16.068  15.485   4.847 -0.2570  0.1710 -0.2624
10528W        W26662  18.810  17.866  13.986  0.1037 -0.0610  0.3434
10529W        W26663   6.946  11.101  13.439 -0.0859  0.3840  0.0774
10530W        W26664   3.661  10.651   3.154 -0.1216 -0.0578  0.2542
10531W        W26665   7.215  16.444  10.028 -0.0409 -0.0091  0.0336
10532W        W26666   6.795   3.199   1.527 -0.2924  0.1228 -0.1737
10533W        W26667   1.723  18.559  11.163 -0.2418  0.1418  0.0061
10534W        W26668  12.465  12.833  10.767 -0.1749  0.2485  0.1440
10535W        W26669   8.880  15.924  13.272 -0.0659 -0.2728  0.3611
10536W        W26670   7.336   2.243   9.921 -0.0323 -0.3509 -0.2847
10537W        W26671   3.200   0.532   0.864 -0.1084  0.0516  0.0077
10538W        W26672   8.438  15.377   0.415 -0.2170  0.1478  0.0876
10539W        W26673   2.989  18.751   3.038  0.0274 -0.0593  0.2104
10540W        W26674  11.646   3.789   5.145 -0.0532 -0.0480  0.2867
10541W        W26675   3.779  12.386  14.406  0.2059 -0.2693 -0.1368
10542W        W26676  13.272   6.125   0.302 -0.0083 -0.1472  0.3993
10543W        W26677  19.253   1.792   3.965 -0.0986 -0.4522  0.1929
10544W        W26678   8.759   0.537  11.531  0.1382  0.1220 -0.2429
10545W        W26679   5.200  16.262   2.935 -0.1983  0.1998 -0.0693
10546W        W26680  15.842   9.702  11.553 -0.0640  0.5361  0.2174
10547W        W26681   9.115  14.101  13.949  0.3071 -0.0266  0.0026
10548W        W26682  12.609   2.021   5.291 -0.2923  0.3163  0.1083
10549W        W26683   7.641   6.858  10.111  0.0064 -0.3819 -0.0018
10550W        W26684   5.096  10.570  10.377  0.1822 -0.2172 -0.0667
10551W        W26685   5.599  13.833  11.164  0.0643 -0.4143 -0.0567
10552W        W26686   8.011   1.100   2.232  0.3901  0.1899 -0.0302
10553W        W26687   5.441   7.958  12.405  0.2918 -0.1411  0.0725
10554W        W26688   1.709   0.876   5.485 -0.1702  0.3028  0.0672
10555W        W26689   0.259  11.738  13.406  0.0940  0.5283  0.2252
10556W        W26690  17.261   2.717  12.039  0.4954 -0.1479  0.0073
10557W        W26691  11.936  12.779  14.155 -0.1065  0.1583  0.3136
10558W        W26692  10.216  13.374  10.244  0.0125  0.1811  0.3455
10559W        W26693   8.889  17.926   1.605 -0.2336  0.2826  0.2314
10560W        W26694  12.281   8.553  11.467 -0.0808 -0.1646 -0.1714
10561W        W26695   7.813   4.584   4.952 -0.1557 -0.2282  0.2029
10562W        W26696   3.533   5.429  11.864 -0.1431  0.0995 -0.2509
10563W        W26697  14.821   9.311  11.434  0.2346  0.0262  0.1272
10564W        W26698  10.132  17.108  11.787  0.0478  0.3323 -0.0391
10565W        W26699  17.688  15.202  14.300  0.1551  0.1334 -0.1861
10566W        W26700  17.092   2.035   3.056  0.2208  0.0368 -0.1217
10567W        W26701   4.516   2.480   1.355  0.0367 -0.1505 -0.0772
10568W        W26702  19.204   6.952  13.321 -0.0175  0.0628  0.0523
10569W        W26703  11.437   0.773   0.786 -0.0787 -0.1691 -0.0020
10570W        W26704  10.455  14.873  11.304 -0.0693 -0.0093  0.2866
10571W        W26705  13.735  12.026   0.201  0.0417 -0.2619 -0.0718
10572W        W26706   7.383   5.440  14.488 -0.1070 -0.1327 -0.0641
10573W        W26707  15.302   7.857  10.340 -0.0096 -0.2689 -0.1545
10574W        W26708   6.863  14.064   1.699 -0.3192  0.3808 -0.2133
10575W        W26709   6.873  12.831   9.169  0.2369 -0.0591 -0.1421
10576W        W26710   4.176   1.822   1.987  0.1435  0.1673  0.0149
10577W        W26711   8.071   9.513  14.859  0.0262 -0.1016  0.0581
10578W        W26712   6.580  18.575   4.026 -0.0474  0.1373 -0.1043
10579W        W26713  13.321  17.234   0.845 -0.0067  0.1333 -0.2036
10580W        W26714  16.378   3.536   0.274  0.2628 -0.2738  0.0877
10581W        W26715  16.808   9.686  13.385  0.2006 -0.0770  0.2933
10582W        W26716   9.859  13.218  11.394  0.0758 -0.0056  0.3294
10583W        W26717  19.057   2.011  11.619 -0.2481 -0.1832  0.2251
10584W        W26718   5.131  16.431   2.477  0.0792 -0.0819  0.0173
10585W        W26719   1.815  15.655   4.890  0.1599  0.2552  0.0038
10586W        W26720  11.081   9.815   2.499 -0.1674 -0.1869 -0.1034
10587W        W26721   7.926   8.559   0.252 -0.0210  0.0019  0.2396
10588W        W26722  14.107  17.804  13.113 -0.0684  0.0637  0.0824
10589W        W26723   0.537   5.744  10.452  0.1056  0.0600  0.2091
10590W        W26724   2.041  16.502   1.365 -0.1861 -0.0311 -0.1238
10591W        W26725   5.478   8.644  14.604  0.0262  0.0067  0.3061
10592W        W26726  18.822  16.234  10.662 -0.0472 -0.2954  0.1946
10593W        W26727   2.080   8.896   9.514 -0.4780  0.1763  0.0681
10594W        W26728  15.629   5.152   9.740  0.0280  0.0777 -0.4441
10595W        W26729   2.000   6.894  13.708 -0.0032  0.1552  0.2572
10596W        W26730  16.570  17.176  12.147  0.0058 -0.0416 -0.5489
10597W        W26731  12.923   6.487  11.016 -0.0883 -0.1139  0.0091
10598W        W26732  13.039  12.083  12.999 -0.1895  0.1176  0.2949
10599W        W26733  12.287   8.946  13.827 -0.3210  0.1028 -0.0781
10600W        W26734  17.955   2.522   3.554 -0.2059 -0.1518  0.2019
10601W        W26735   4.511   8.723   3.464 -0.0580  0.3478 -0.3195
10602W        W26736  17.300  15.939   5.434  0.1004  0.2699  0.2890
10603W        W26737   5.065   8.169  11.545 -0.0304  0.2466  0.0390
10604W        W26738  10.415  18.893   1.306 -0.3219 -0.1547  0.2088
10605W        W26739  12.946  15.866   1.953  0.0462 -0.0834 -0.4033
10606W        W26740   7.821   6.057   4.433  0.4538  0.1593  0.1280
10607W        W26741  14.621  16.313   5.461 -0.1644  0.1895 -0.0256
10608W        W26742  19.292  15.364  14.341 -0.1344 -0.4223  0.3401
10609W        W26743   3.794  13.082  13.466 -0.2363  0.0636  0.2639
10610W        W26744   2.827   2.480  11.942 -0.0092  0.2469 -0.0371
10611W        W26745  13.865   1.514   5.499  0.2964  0.1083  0.3329
10612W        W26746   0.910  16.544  14.117  0.6333 -0.3824  0.1538
10613W        W26747   3.581  18.005   1.316  0.1978 -0.1886 -0.1010
10614W        W26748   9.440  14.731   2.343 -0.0960 -0.0900 -0.1636
10615W        W26749   9.275   3.119   2.111 -0.1891 -0.0121  0.0372
10616W        W26750   0.375   3.611   9.588 -0.0068 -0.0081  0.0872
10617W        W26751  14.055  14.381   0.278 -0.1579 -0.2533 -0.0602
10618W        W26752  13.696   5.389   2.111  0.3017 -0.1146 -0.0125
10619W        W26753   5.940  10.987   3.219  0.0086 -0.1209 -0.0961
10620W        W26754   7.141  12.620   9.507 -0.1864 -0.1259  0.0375
10621W        W26755  13.441  15.166  11.026  0.3726  0.0307  0.1823
10622W        W26756  15.961   7.953  11.137 -0.2794 -0.1307  0.0953
10623W        W26757   5.797  13.565   4.839 -0.1183 -0.2348  0.0455
10624W        W26758  18.070  17.980  12.979  0.0551 -0.1604 -0.4117
10625W        W26759  11.792   4.836  12.178 -0.1958  0.3426 -0.2079
10626W        W26760  15.059  11.811   1.508  0.0709  0.1600 -0.0143
10627W        W26761   4.812   0.682  11.867 -0.1107 -0.1131 -0.0957
10628W        W26762   4.110   5.359   2.568  0.1840  0.1171  0.1749
10629W        W26763  16.643   9.385  11.621  0.0082 -0.2672 -0.0810
10630W        W26764  16.368   7.928  11.406  0.1214  0.1872 -0.2277
10631W        W26765  13.721  12.798   1.578  0.3523 -0.0037 -0.1843
10632W        W26766  17.987   0.884   2.984  0.2153  0.0865  0.5170
10633W        W26767  14.985  15.357  14.953 -0.1633  0.0019 -0.0018
10634W        W26768  19.054  16.973  10.541 -0.1897 -0.0310 -0.1269
10635W        W26769  11.559   0.153  12.997  0.4092 -0.2835  0.1510
10636W        W26770   6.500  10.885   3.779 -0.1512  0.3635 -0.0297
10637W        W26771  15.640   6.935  12.154  0.0615  0.0565  0.0902
10638W        W26772  11.141   3.401  11.365 -0.1562 -0.0190  0.0874
10639W        W26773  17.904   9.546   1.500  0.3647 -0.0328 -0.1093
10640W        W26774   6.606  13.872   4.065  0.0599 -0.1105  0.0786
10641W        W26775   0.110  14.421   2.700 -0.2127 -0.1950  0.2272
10642W        W26776   6.899   0.765   0.981 -0.0954  0.3621  0.0185
10643W        W26777   8.399   2.249   0.876  0.2437  0.2501  0.1009
10644W        W26778  15.221  18.075  11.828 -0.1467  0.1027 -0.3433
10645W        W26779  10.962  10.940  12.475 -0.0910 -0.0836  0.2119
10646W        W26780   1.092  16.838  13.649  0.0026 -0.1153  0.2088
10647W        W26781   1.373   4.928  11.077  0.0957 -0.1067 -0.1927
10648W        W26782   7.146   4.007  14.260  0.0784 -0.0442  0.2726
10649W        W26783   7.915  11.766   0.056  0.0917  0.1588 -0.2252
10650W        W26784  18.646   7.956   3.380  0.0923 -0.0925  0.0445
10651W        W26785   8.413  18.423   3.209  0.1480 -0.1671  0.3509
10652W        W26786  16.868  12.402   4.259  0.0204 -0.1988  0.2764
10653W        W26787   6.840  11.528  12.977  0.1905  0.2210 -0.0709
10654W        W26788  12.930   2.297   4.881 -0.1183  0.0071 -0.2586
10655W        W26789  11.535  16.896   1.856 -0.1341  0.2364 -0.0167
10656W        W26790   9.315  16.848   1.773 -0.2330 -0.2760 -0.0858
10657W        W26791  17.270  11.656  10.005  0.0472  0.0091  0.1792
10658W        W26792  11.074  11.591   5.238  0.0646 -0.0136  0.1559
10659W        W26793  17.342   1.699  13.523 -0.0001  0.1338  0.3054
10660W        W26794  19.268  19.142   4.503 -0.1583 -0.1108  0.1695
10661W        W26795   4.345   4.010  13.173 -0.1282 -0.0962  0.3393
10662W        W26796  15.775   9.387  14.790 -0.3248  0.3696 -0.0419
10663W        W26797  14.883  11.023  11.066  0.0634  0.1922  0.1240
10664W        W26798   2.752  10.174   3.478 -0.4954 -0.0995 -0.3259
10665W        W26799  15.210  16.119  11.629 -0.3360  0.0420  0.3487
10666W        W26800   9.718  11.416   1.786 -0.0123 -0.2646 -0.0893
10667W        W26801   1.854   2.749  13.511 -0.1782  0.0493  0.0135
10668W        W26802  14.966  19.249  12.140  0.3357  0.0797 -0.1736
10669W        W26803   3.171  15.495  14.924  0.1200  0.2241 -0.2755
10670W        W26804   7.740  17.969   4.565 -0.1571  0.3178  0.1229
10671W        W26805   4.229   7.247  13.315 -0.1135 -0.1576  0.3213
10672W        W26806   4.882   3.796  13.163 -0.3545  0.1991  0.2647
10673W        W26807   1.301   9.680  13.105 -0.3600 -0.0138 -0.0980
10674W        W26808  11.953  13.347   1.374 -0.2361 -0.1553  0.1504
10675W        W26809   3.202   2.841   5.337 -0.0206 -0.1504 -0.1277
10676W        W26810   1.697   5.745   3.072  0.0742  0.1938 -0.0664
10677W        W26811  11.959   3.192   0.514 -0.4119 -0.2120 -0.1843
10678W        W26812  18.123   7.237   9.326  0.0645 -0.0250  0.2139
10679W        W26813   4.680  19.318  10.624 -0.1359 -0.0832 -0.0346
10680W        W26814  15.033   2.702   4.010 -0.2080 -0.2481 -0.1966
10681W        W26815  15.468  18.844   0.055  0.4384  0.1096  0.2213
10682W        W26816  19.097  18.851   9.883  0.3874 -0.2378  0.1162
10683W        W26817   4.105   1.198  12.353  0.0375 -0.3172 -0.0809
10684W        W26818   4.380  12.974   1.925 -0.2869 -0.2589 -0.1995
10685W        W26819   5.309   4.925  13.529  0.0293 -0.0927  0.2336
10686W        W26820  11.651  16.056  14.212 -0.0133  0.0752  0.0753
10687W        W26821   3.175  11.085   0.676  0.1532  0.0227 -0.0645
10688W        W26822  16.181  10.257  11.256 -0.2901  0.4295  0.1580
10689W        W26823   2.363  14.354  14.134 -0.2387 -0.0411 -0.2587
10690W        W26824   1.001  10.302   0.322 -0.1781 -0.1939  0.3971
10691W        W26825   1.576  18.571   1.477 -0.0731 -0.0466  0.0820
10692W        W26826   9.618  17.155   0.886  0.0329  0.1642 -0.0673
10693W        W26827   3.186  11.989  11.936  0.1628 -0.2869  0.2817
10694W        W26828  19.008   3.846   4.192 -0.0610 -0.0486 -0.1223
10695W        W26829  14.255   3.431  11.428  0.0346  0.2595  0.1127
10696W        W26830  13.849  17.099   0.572 -0.1001  0.0822  0.2667
10697W        W26831  14.918   0.265  12.548  0.5738 -0.0298  0.1184
10698W        W26832   1.800   0.672   4.653  0.0555  0.0456 -0.0041
10699W        W26833   2.174   1.152   9.795 -0.2017  0.4012 -0.0649
10700W        W26834  17.223  15.817  14.646  0.3101  0.1355  0.1257
10701W        W26835  16.460  18.278  14.719 -0.1595  0.2299  0.2090
10702W        W26836  13.075   0.616   0.677  0.1421 -0.3669  0.1528
10703W        W26837   0.258  10.520  10.130 -0.1426  0.1821 -0.1861
10704W        W26838   0.913  18.416   4.450 -0.0028 -0.1618 -0.0688
10705W        W26839  11.999   8.937   1.164 -0.0874  0.0362 -0.3000
10706W        W26840   9.381   9.104   0.408  0.0506 -0.0821 -0.1878
10707W        W26841  14.866   5.098   0.341  0.0505 -0.0788 -0.1369
10708W        W26842  13.090   7.776   2.498 -0.3168 -0.1359  0.0798
10709W        W26843   8.151   9.374   4.119  0.0357  0.1508  0.1137
10710W        W26844   4.153   3.137   2.538 -0.0494  0.2129 -0.1003
10711W        W26845   0.639  15.233  13.584 -0.0695 -0.1714 -0.3458
10712W        W26846   2.020  18.276   0.459 -0.2286 -0.1955  0.1702
10713W        W26847  15.249  14.705   4.776 -0.1927 -0.0723 -0.3138
10714W        W26848  16.804  15.083  14.470  0.0558 -0.0078  0.1156
10715W        W26849  14.209   6.601   4.515  0.2062  0.1843 -0.0328
10716W        W26850  15.920   9.157   1.213  0.1136 -0.1685  0.1182
10717W        W26851   9.128  13.306  12.901  0.0566  0.1748 -0.1748
10718W        W26852   0.044  17.308   2.071  0.1335 -0.0619 -0.2271
10719W        W26853   0.789  16.920   2.453  0.0840  0.0770  0.0401
10720W        W26854  10.851  16.961  14.885  0.0441  0.0299  0.2257
10721W        W26855   5.902  16.855   2.911  0.0458 -0.1719 -0.2963
10722W        W26856  11.567   1.937   0.014 -0.3243  0.3236 -0.2496
10723W        W26857   1.209   8.020  14.021  0.0861  0.0430 -0.2010
10724W        W26858   5.154   5.815   9.052  0.0146 -0.0141  0.2705
10725W        W26859   9.107  14.423   5.232  0.3276  0.3692 -0.0964
10726W        W26860  14.380   0.683   3.981 -0.2121 -0.2972  0.1545
10727W        W26861   5.529  11.681  11.398 -0.0886  0.1141  0.2047
10728W        W26862  16.643   2.587   5.469  0.1095 -0.0904 -0.1749
10729W        W26863   4.640  13.726   1.353 -0.0128 -0.3022  0.4188
10730W        W26864   5.330   3.299   4.955 -0.0116 -0.0082  0.1753
10731W        W26865  10.300   3.711   0.418  0.0510  0.2591  0.1311
10732W        W26866  17.581   3.613   3.953  0.1593 -0.0814  0.0047
10733W        W26867   1.302  12.679   2.132 -0.2358  0.0706 -0.1669
10734W        W26868   6.990  15.728   3.994  0.2100  0.3286 -0.4112
10735W        W26869   7.795   4.818  12.341  0.2494  0.0343 -0.3414
10736W        W26870   7.354   4.486  12.182 -0.2720  0.0510 -0.3393
10737W        W26871  16.362  16.141   5.167  0.2993  0.4682  0.1635
10738W        W26872   1.412  18.892   0.993  0.1604 -0.1997 -0.0900
10739W        W26873  12.643   9.666  11.293  0.1832  0.0538  0.1684
10740W        W26874  10.100  11.964   4.057 -0.0891 -0.3169  0.4570
10741W        W26875  16.773   5.292   5.672 -0.1765  0.0806  0.0287
10742W        W26876  18.839  17.396  13.847  0.0430 -0.1097  0.1184
10743W        W26877  12.730   1.049  11.770  0.1730 -0.3172  0.1119
10744W        W26878   4.013   6.927   3.325 -0.1793  0.1160  0.1020
10745W        W26879   0.886  13.877   9.855 -0.0408 -0.2782 -0.2261
10746W        W26880   1.098  19.144  14.736  0.0656  0.2738  0.0526
10747W        W26881   5.788  15.497  12.700  0.1063 -0.0781  0.2327
10748W        W26882   3.929  17.714   3.110 -0.3163  0.2049 -0.3640
10749W        W26883  18.316   0.095   1.703  0.2940 -0.0341  0.1131
10750W        W26884   6.837   2.039   1.981 -0.1816 -0.0621 -0.0807
10751W        W26885  12.124  18.365   0.127 -0.0686 -0.5399  0.3013
10752W        W26886  10.665   9.713   4.083 -0.0077  0.3314  0.1679
10753W        W26887   8.199  10.396   4.488  0.0438 -0.0902 -0.2420
10754W        W26888  13.976  16.912   5.097  0.1808  0.0010 -0.3263
10755W        W26889   3.096   1.156   1.841  0.1865 -0.0051 -0.1186
10756W        W26890   0.727  13.091  13.243  0.3019 -0.2574 -0.1254
10757W        W26891   8.838  11.967   4.310  0.2437 -0.5183  0.2801
10758W        W26892  12.014  19.030   4.729 -0.0996  0.1265  0.1633
10759W        W26893  17.948  12.685  10.077  0.0638  0.0657  0.0296
10760W        W26894   3.005  14.434  13.269 -0.0061 -0.3368 -0.3222
10761W        W26895  15.536   3.452   3.313 -0.0763 -0.0339  0.1412
10762W        W26896   8.621  16.985   9.940 -0.0302 -0.3982 -0.0849
10763W        W26897  11.085   2.577   4.044  0.0236  0.4155  0.0938
10764W        W26898  15.745   2.871   5.185  0.0434  0.1593  0.0530
10765W        W26899  10.104  16.548   1.300  0.1295  0.1291  0.2332
10766W        W26900  17.197  11.553   4.277  0.0880 -0.0529 -0.1757
10767W        W26901  14.916  18.901   4.413 -0.0590  0.2411 -0.3023
10768W        W26902  14.932   0.053   4.116  0.2245 -0.0942 -0.0832
10769W        W26903   3.018   7.679   4.909 -0.0461 -0.2010  0.1471
10770W        W26904  18.235  11.777  11.978  0.3757 -0.0315  0.1743
10771W        W26905   4.483   5.247   2.016  0.4530 -0.0083  0.0625
10772W        W26906  16.868  18.147   1.239  0.1853  0.1444 -0.1553
10773W        W26907   6.250   8.306  11.808 -0.0374 -0.1333 -0.0271
10774W        W26908   2.061  14.694   1.851 -0.0295  0.0111 -0.0450
10775W        W26909   6.754   5.558   0.283  0.0300 -0.2595 -0.3522
10776W        W26910   3.829  11.197   4.287  0.5744 -0.3808 -0.0209
10777W        W26911  12.764   2.672  10.940 -0.2847 -0.1321  0.0108
10778W        W26912  18.735   0.974   0.219  0.1442 -0.2003  0.1218
10779W        W26913   8.266   3.715   1.453 -0.0789  0.3171 -0.1063
10780W        W26914  13.559  15.377   5.317  0.2768  0.0418 -0.0649
10781W        W26915   1.247  13.149   0.678 -0.3213 -0.0131  0.1473
10782W        W26916  18.544  13.355  12.711 -0.1251  0.0387 -0.4416
10783W        W26917   1.134   8.293   0.181  0.0462 -0.1384 -0.0206
10784W        W26918   4.467   6.791   5.117  0.6207  0.2214  0.1515
10785W        W26919   2.396  16.851  14.424  0.0770  0.1392  0.4027
10786W        W26920  18.276  13.251   0.289 -0.0448 -0.4213 -0.4164
10787W        W26921  13.433  18.588  13.869 -0.1173  0.2474 -0.1861
10788W        W26922  17.626  12.674   4.841 -0.1411 -0.1436  0.1799
10789W        W26923  11.509   2.693   3.841 -0.2258  0.1093 -0.2125
10790W        W26924  11.580   8.498  12.236 -0.1302  0.0705  0.0313
10791W        W26925   7.218  12.933   5.198 -0.2614 -0.3088  0.1523
10792W        W26926  10.398   1.002   3.957 -0.1090 -0.1310 -0.4805
10793W        W26927   0.752  13.904   3.103 -0.1218 -0.0512 -0.0731
10794W        W26928   2.900   9.987   1.627  0.4875 -0.0503 -0.2314
10795W        W26929  11.014   1.733   2.310 -0.1636 -0.3434 -0.2452
10796W        W26930   6.294   3.564  10.756 -0.3394 -0.3065 -0.0573
10797W        W26931  15.747  17.973  14.714 -0.1925 -0.2529 -0.0825
10798W        W26932   4.211  13.453   4.488 -0.0944 -0.0449  0.1542
10799W        W26933  18.351  11.308   0.241  0.2585 -0.2766  0.0587
10800W        W26934   8.617   3.439   0.398  0.0728 -0.0244 -0.2002
10801W        W26935  13.661  16.014  11.066 -0.2522  0.1418 -0.0725
10802W        W26936  12.233   0.274  10.811 -0.0540 -0.1738  0.0762
10803W        W26937  14.720   2.550   5.085  0.1467  0.1397  0.0268
10804W        W26938  17.211   7.594  11.512 -0.3387  0.0857 -0.1882
10805W        W26939  16.799  10.333   3.390  0.1485 -0.1017  0.0985
10806W        W26940  14.178   3.956   0.014 -0.2497 -0.0430 -0.3314
10807W        W26941  18.965  16.600   2.407 -0.0615  0.0922  0.3075
10808W        W26942   4.123  18.780  13.611 -0.2627 -0.0218  0.4861
10809W        W26943   5.173   0.445   1.071 -0.1493 -0.1423 -0.0996
10810W        W26944   5.248   9.364  12.825  0.3031  0.2194  0.1848
10811W        W26945  14.825  13.257  10.957  0.0774  0.0626  0.0252
10812W        W26946  10.939   2.668   5.090 -0.1897 -0.1834 -0.0911
10813W        W26947   0.967  10.379   9.685  0.1128 -0.3512  0.0914
10814W        W26948  16.982   0.328   2.154 -0.0635  0.2239  0.0453
10815W        W26949  15.158   1.434  11.856  0.0630  0.1801  0.3203
10816W        W26950   9.499  18.093   5.647 -0.0180  0.1274  0.1007
10817W        W26951   0.869   3.827  11.280 -0.0753 -0.1464 -0.0408
10818W        W26952  12.078   4.003  14.160  0.3070  0.0949 -0.0098
10819W        W26953   3.622   3.252   0.666 -0.0606 -0.0310  0.2036
10820W        W26954   0.029  15.286  10.077 -0.4222  0.3634 -0.3729
10821W        W26955  18.733   8.934   3.093 -0.2550  0.2691 -0.2085
10822W        W26956  16.850   0.520  14.213 -0.4793  0.0492  0.0945
10823W        W26957   0.072   4.794   2.328  0.5940 -0.1627  0.1447
10824W        W26958   8.336   9.066   1.300 -0.0712 -0.0188 -0.1781
10825W        W26959   5.634   0.948  14.929  0.4816 -0.1588 -0.0639
10826W        W26960  14.842  15.193  12.028  0.2793 -0.1542  0.1847
10827W        W26961   6.541  17.124   2.881 -0.0628  0.1746 -0.0953
10828W        W26962  17.720  15.899   0.539 -0.3533 -0.1631  0.1903
10829W        W26963  11.914   9.433   2.022  0.0031  0.0972  0.1929
10830W        W26964  14.380   7.749   1.853 -0.0532 -0.4580 -0.2408
10831W        W26965  16.586   5.748   0.471 -0.3034 -0.3891 -0.1206
10832W        W26966  13.595  13.200  12.809  0.4542  0.1252  0.0899
10833W        W26967  14.503  13.706  14.193 -0.1657 -0.0684 -0.1115
10834W        W26968   2.919  16.704  13.091 -0.3296 -0.2490 -0.0030
10835W        W26969  19.142   2.450  11.386 -0.0155 -0.0961 -0.0950
10836W        W26970   1.803   5.356  12.877 -0.0549 -0.1803  0.1121
10837W        W26971   0.101   0.443   5.981  0.2978 -0.0026  0.1024
10838W        W26972   2.807  11.703   2.096  0.2959  0.1355 -0.3344
10839W        W26973  14.782   7.546   4.350 -0.0552  0.2725  0.0831
10840W        W26974  17.880   0.244  12.234 -0.2155 -0.0881 -0.0382
10841W        W26975   3.612   7.075  10.469 -0.0453 -0.0055  0.1025
10842W        W26976   7.597   1.283   4.275  0.0175 -0.0001 -0.1283
10843W        W26977   0.223   0.635   2.842  0.0722 -0.1671  0.1965
10844W        W26978   2.660   2.470  10.478  0.0021  0.0524 -0.1554
10845W        W26979  11.122  17.658   2.303  0.0830  0.0588  0.2726
10846W        W26980  12.556   6.831  11.150  0.0141 -0.0556  0.2098
10847W        W26981  12.463   3.198   3.323 -0.1674  0.1181  0.1706
10848W        W26982   3.567   9.964  14.440 -0.0895  0.1236  0.0006
10849W        W26983  16.615  15.115   1.914 -0.3202 -0.1314 -0.2161
10850W        W26984  16.168  18.067  11.945  0.0135  0.2461 -0.1583
10851W        W26985   0.711  16.880  14.477 -0.1209  0.3762 -0.0749
10852W        W26986  12.625  14.719   2.695 -0.1948 -0.0044 -0.1202
10853W        W26987   2.612  14.171  11.268 -0.1024 -0.0872 -0.0588
10854W        W26988  16.030  11.473  14.345  0.4404  0.2275  0.2671
10855W        W26989   9.884  17.855  12.214 -0.2970  0.2985  0.0506
10856W        W26990  10.539  15.487   5.775  0.1075  0.2865 -0.0090
10857W        W26991   4.458   3.201   1.805 -0.4873 -0.2554  0.1278
10858W        W26992  15.925   9.431  10.619 -0.3479  0.0197  0.0936
10859W        W26993   8.937  12.057  14.473 -0.1408 -0.2693  0.1013
10860W        W26994  15.064   1.589  13.835  0.1962 -0.1160 -0.0079
10861W        W26995  10.539   8.420  10.309  0.3741 -0.1420  0.1108
10862W        W26996  13.164   3.168  14.050  0.0879 -0.0560 -0.0995
10863W        W26997   9.137   3.944   4.259  0.0784 -0.0880  0.2348
10864W        W26998  16.187  18.059   1.535 -0.0085 -0.1411 -0.1858
10865W        W26999  12.010  10.191  10.638 -0.0723  0.1061  0.0136
10866W        W27000  18.321  14.445   4.082 -0.1606  0.0113 -0.0352
10867W        W27001   9.273  17.582   5.343  0.0729  0.0688 -0.1709
10868W        W27002   2.860  17.168  12.970  0.0630  0.0839  0.1523
10869W        W27003   2.257  19.162  13.429  0.1340 -0.1733  0.1437
10870W        W27004   1.003  17.070  14.081 -0.2367  0.0217 -0.2377
10871W        W27005  13.364  10.550  14.056  0.1853 -0.0550  0.0657
10872W        W27006  10.845   1.259   2.045  0.0756 -0.2998  0.1872
10873W        W27007  15.315   9.449  13.304 -0.0079 -0.0170  0.0629
10874W        W27008  13.663   7.207  13.470 -0.4401  0.1134 -0.4380
10875W        W27009  15.714   7.775   4.281 -0.0974 -0.0976 -0.1357
10876W        W27010  10.793   7.051   0.819 -0.0369  0.1485  0.4056
10877W        W27011   1.572  19.121  12.146  0.0230  0.2211  0.1139
10878W        W27012  15.178  15.514  12.209  0.0656  0.0949 -0.0771
10879W        W27013   3.161  14.525  10.346 -0.1007  0.1160  0.0685
10880W        W27014   9.726   7.915  12.115 -0.0170 -0.1211 -0.0465
10881W        W27015   8.191   5.100  12.188 -0.2667  0.2218  0.0324
10882W        W27016   6.245   5.367   0.125 -0.2365  0.0479 -0.0605
10883W        W27017  15.659  18.806  11.696 -0.2450  0.0636  0.2510
10884W        W27018  11.590   4.612  11.759 -0.0430 -0.0242  0.1704
10885W        W27019   6.076   0.230  13.376 -0.0464  0.1255  0.7658
10886W        W27020  15.627  14.061  11.300 -0.1200 -0.2277 -0.1999
10887W        W27021  10.548  14.259  13.106 -0.2176 -0.3447  0.1446
10888W        W27022  16.330   9.094  12.185  0.0607  0.1889 -0.2471
10889W        W27023  13.911  15.984   1.311 -0.0524  0.0103  0.3227
10890W        W27024  16.074   1.109   1.681  0.2796  0.0771 -0.1434
10891W        W27025  12.044  11.862  13.131  0.2569  0.2496 -0.1202
10892W        W27026  13.236   5.480   4.250  0.2088 -0.1079  0.0391
10893W        W27027  17.053  17.053   1.827 -0.0770 -0.0418  0.0511
10894W        W27028  16.488   4.512  11.080  0.1555 -0.1595 -0.0452
10895W        W27029   7.408  14.395   0.298 -0.0416  0.1796  0.0407
10896W        W27030   2.811   0.755   3.356 -0.0098 -0.0569 -0.1962
10897W        W27031   4.002   3.405   4.291 -0.4786 -0.0106  0.1607
10898W        W27032  13.805   4.733   2.595 -0.2412  0.3089  0.1686
10899W        W27033   4.936  10.985   1.866 -0.1467  0.0577 -0.1390
10900W        W27034  15.788   7.437  10.304 -0.1286 -0.0220 -0.0623
10901W        W27035   4.475  10.805  11.304  0.0342 -0.0372 -0.0690
10902W        W27036   2.026  17.301   3.427 -0.2109  0.0236 -0.1842
10903W        W27037   4.588   8.161  12.765  0.0068  0.2765  0.0991
10904W        W27038  13.985  14.605   4.047 -0.1138  0.0636 -0.2486
10905W        W27039  14.317   3.269   0.119  0.0319 -0.1277 -0.0965
10906W        W27040   7.949   0.697  14.635  0.1462 -0.1702  0.2076
10907W        W27041   0.378  10.107   3.097  0.0822 -0.4142  0.1107
10908W        W27042   9.974  10.813   0.778  0.1598  0.1020  0.0429
10909W        W27043  10.774   3.104   1.769  0.0736 -0.4797  0.0098
10910W        W27044  15.037   3.003   4.828 -0.4109  0.1626  0.0673
10911W        W27045  10.277   4.463   2.914 -0.2630  0.2698  0.0289
10912W        W27046  11.470  11.655   1.372 -0.2224 -0.1307 -0.2942
10913W        W27047   3.405   7.346  12.091  0.0111  0.0845  0.1191
10914W        W27048   6.940   6.499   4.094 -0.0629 -0.1420 -0.1291
10915W        W27049   7.676   9.043  14.966  0.1445  0.2060  0.4963
10916W        W27050   4.792   3.396   3.430 -0.1783  0.1141 -0.1102
10917W        W27051   2.029   0.215   3.262  0.0163  0.1718 -0.0511
10918W        W27052  16.536  17.747   1.353 -0.1478 -0.0248  0.1401
10919W        W27053  16.743  16.386   4.952  0.0297 -0.1765  0.0985
10920W        W27054   1.986  10.397   0.251  0.2608 -0.0638  0.1794
10921W        W27055   0.440   5.202  11.159  0.0648  0.0659 -0.3107
10922W        W27056   6.690  13.846  10.325 -0.0930 -0.0803  0.2034
10923W        W27057   1.568   1.457  10.702 -0.2614 -0.0912 -0.1359
10924W        W27058   3.176   4.346   9.644 -0.1655  0.2112 -0.0279
10925W        W27059  17.320   5.313  14.285  0.2078 -0.1187  0.0550
10926W        W27060   8.250  11.372   2.140 -0.0556 -0.1848 -0.1005
10927W        W27061   6.548   7.236   4.020  0.1789 -0.0676  0.1024
10928W        W27062   0.615  14.756  10.626  0.0190 -0.1721 -0.3635
10929W        W27063  13.359  10.785   4.858  0.3504  0.0128  0.1232
10930W        W27064   8.893   5.327  12.366  0.0771 -0.2796  0.1166
10931W        W27065   4.865   3.536  14.092  0.0231  0.3290  0.0217
10932W        W27066   6.038  18.574   3.052  0.1163  0.0943 -0.0121
10933W        W27067  12.299  12.644   3.132 -0.0132  0.4322 -0.1530
10934W        W27068  13.328   4.591   2.503 -0.4447  0.0171 -0.0037
10935W        W27069  14.994  10.331   4.575  0.3586 -0.1327  0.0556
10936W        W27070  10.493  18.957  11.155 -0.1131  0.1378  0.0184
10937W        W27071   4.687   4.180   9.809  0.5204 -0.0618 -0.0861
10938W        W27072  17.469  13.696   2.869 -0.6892 -0.1224 -0.1635
10939W        W27073  16.070   8.343   4.284 -0.0316  0.2281  0.2210
10940W        W27074   0.461   9.234  14.351  0.0525 -0.1086 -0.2029
10941W        W27075   2.814   3.863  10.926 -0.0107 -0.0157 -0.0447
10942W        W27076  13.127  15.473   4.601  0.2850  0.0504 -0.2104
10943W        W27077   4.596  15.449   3.054  0.3498  0.2438  0.1039
10944W        W27078  19.334  13.965  12.685  0.0187  0.2163  0.1728
10945W        W27079   9.243   8.592   2.741  0.0007 -0.1614  0.0696
10946W        W27080  18.963  16.176  13.346  0.0359  0.3032  0.1063
10947W        W27081  14.090   6.072   5.428  0.2810 -0.1334  0.1832
10948W        W27082  18.571   8.322  13.883 -0.0139 -0.2369 -0.3208
10949W        W27083   7.923  10.097  12.185  0.0337  0.1366 -0.2121
10950W        W27084  15.560   6.117   9.509  0.1509 -0.1044  0.0722
10951W        W27085   1.662   5.765   3.612  0.0120 -0.0509  0.0756
10952W        W27086   4.238   3.159   4.746  0.0366  0.0751  0.0146
10953W        W27087   9.692  16.842   4.665  0.1678 -0.0004 -0.1905
10954W        W27088   7.223   5.019  10.819 -0.0267  0.0692 -0.0561
10955W        W27089  11.541  14.192   3.178 -0.0831  0.1374 -0.1320
10956W        W27090   9.729   5.461   4.425 -0.1978  0.1441  0.4165
10957W        W27091  13.466   1.475   3.184  0.1134 -0.0741  0.1738
10958W        W27092  15.901  10.394   5.596  0.1368  0.1580  0.0163
10959W        W27093   8.451   5.520   4.560 -0.2300 -0.0867  0.0346
10960W        W27094  11.893  14.145   0.074  0.2667 -0.0474 -0.4835
10961W        W27095   8.670  13.556   2.053 -0.1762 -0.2284  0.0051
10962W        W27096  12.243   1.966   3.605 -0.0756 -0.1260  0.0283
10963W        W27097  15.454  12.911   9.883 -0.0536  0.0626 -0.0431
10964W        W27098   6.662  13.131   1.125  0.0984 -0.1774 -0.3920
10965W        W27099   4.491   4.493  11.940  0.2299 -0.0165  0.0722
10966W        W27100   1.869  10.766   1.959 -0.3688  0.0056 -0.1385
10967W        W27101   4.273  13.727   4.955 -0.0503  0.2740 -0.1501
10968W        W27102   5.210  15.362  11.196  0.0478 -0.1212  0.0621
10969W        W27103  14.141   1.343  14.584  0.1559  0.2279 -0.0382
10970W        W27104  15.312  18.447  14.753 -0.1283 -0.2236  0.2257
10971W        W27105   2.904   4.102   4.002  0.1447  0.0185  0.1947
10972W        W27106  12.852  13.116   2.979  0.0047 -0.2325  0.0501
10973W        W27107  12.881   0.851   1.734  0.0391 -0.2185 -0.1087
10974W        W27108   2.861  15.576  13.149 -0.1213 -0.0173  0.0845
10975W        W27109  18.084   9.915  13.896  0.2423  0.1756  0.0989
10976W        W27110  12.594   3.233  14.696  0.0203 -0.1943  0.1569
10977W        W27111  16.996   5.050  11.705 -0.2952 -0.0747  0.3101
10978W        W27112  12.667  18.923   2.421  0.4514  0.0800  0.2541
10979W        W27113   2.927   2.643   0.178  0.1963  0.0434 -0.0651
10980W        W27114  10.522   9.848   2.615 -0.1348 -0.1898  0.3430
10981W        W27115   1.092   0.096   0.306  0.1271 -0.0285  0.3683
10982W        W27116   7.556   3.224   3.205 -0.1524  0.1522  0.1232
10983W        W27117   9.630  13.415  10.922 -0.1915 -0.0119  0.0337
10984W        W27118   1.134  13.835  11.527 -0.1757  0.3292  0.2074
10985W        W27119   5.590  10.285  14.527  0.2493  0.1375  0.1711
10986W        W27120  12.551   5.043  14.742  0.1111 -0.5082 -0.1861
10987W        W27121   3.782   3.596   3.839  0.0939 -0.1316 -0.0956
10988W        W27122   6.822  10.665   5.209  0.0915  0.2041 -0.0861
10989W        W27123   4.048   4.625   0.401  0.2792 -0.1636  0.1740
10990W        W27124   1.636  12.366   3.261  0.1758  0.1465  0.4771
10991W        W27125   5.407   5.108  10.390  0.0538  0.2424  0.3847
10992W        W27126  18.417   7.464  11.250  0.0745 -0.2275  0.0584
10993W        W27127  19.109   5.226  12.544 -0.0982  0.1845  0.1324
10994W        W27128   1.097  11.171  13.326  0.1136  0.1485 -0.1517
10995W        W27129  17.776   6.795  10.264  0.1947  0.3332  0.0684
10996W        W27130  18.817   8.912   4.216 -0.0786  0.1142  0.0522
10997W        W27131  16.812   4.495  13.698 -0.2864 -0.0395 -0.0190
10998W        W27132  13.155  10.195   4.723  0.0510 -0.0924  0.0021
10999W        W27133   2.309  17.840   2.939  0.1515 -0.2965 -0.1472
11000W        W27134  18.076   6.432   3.633 -0.1155  0.1348 -0.3876
11001W        W27135  10.078   9.269  10.084  0.0478  0.2376 -0.2100
11002W        W27136  16.213   7.593  14.259  0.2177 -0.1424 -0.1231
11003W        W27137   2.558   6.233  11.247 -0.1123 -0.0830  0.1356
11004W        W27138  16.344   7.495   2.209  0.0318  0.0221  0.0200
11005W        W27139  11.673   3.810  10.586  0.0359 -0.0924  0.0719
11006W        W27140  10.673   4.312  12.749  0.0822 -0.2223 -0.1591
11007W        W27141   4.381   1.304   0.233 -0.3099  0.1035  0.0327
11008W        W27142  15.854  18.512  13.848 -0.0725 -0.0022  0.3034
11009W        W27143   2.871   4.467  12.014  0.0634 -0.3906 -0.1127
11010W        W27144   6.697   1.452  11.189 -0.1835 -0.1668  0.2348
11011W        W27145   7.074   4.742   1.229  0.2244 -0.1981  0.0998
11012W        W27146   8.295  11.175   1.285 -0.2743 -0.0259 -0.1945
11013W        W27147  15.650  16.410   2.053 -0.0391  0.1131 -0.2304
11014W        W27148  17.632   3.099   5.410 -0.2207 -0.1261  0.1748
11015W        W27149  10.703  14.870  11.735 -0.1155 -0.1602 -0.0466
11016W        W27150  10.933   0.133  13.672  0.0689  0.1515  0.1141
11017W        W27151  18.978  13.923  14.313  0.2722  0.1613  0.1001
11018W        W27152  11.422  16.617   3.518 -0.0000  0.0687  0.0535
11019W        W27153  17.576   1.015   2.420  0.1984 -0.2580  0.1717
11020W        W27154  13.239  12.332   4.065 -0.0870  0.0742  0.1052
11021W        W27155  13.217  13.776   6.120 -0.1448 -0.1061  0.1794
11022W        W27156  15.125  16.700   0.889 -0.1791 -0.0300 -0.3502
11023W        W27157  19.136  15.077   0.262 -0.3475 -0.3039  0.0659
11024W        W27158   8.166   3.239   1.219 -0.0067  0.2015 -0.1767
11025W        W27159   2.352  15.017  14.736 -0.1049 -0.2045 -0.1833
11026W        W27160   5.168   6.014   0.793 -0.1730  0.1573 -0.5293
11027W        W27161   5.435   8.445  12.526 -0.2244 -0.1049 -0.2140
11028W        W27162   1.598   1.775  13.271 -0.2104 -0.2217  0.0040
11029W        W27163  13.083   7.302  14.305 -0.1977  0.1611 -0.0730
11030W        W27164   7.667  16.373   0.585  0.0992  0.3786 -0.0500
11031W        W27165  11.924  18.160   5.312 -0.3316  0.2146 -0.2683
11032W        W27166   1.417  18.944   1.788 -0.3975 -0.2625 -0.1210
11033W        W27167  10.428   3.860   1.720 -0.0553 -0.3670  0.3319
11034W        W27168   7.392  10.782  14.080  0.1015 -0.0426  0.0107
11035W        W27169   0.609   9.277   3.007 -0.1824  0.1584 -0.1012
11036W        W27170   2.181  15.842   2.360  0.0276 -0.0740  0.2305
11037W        W27171  16.351  14.798   3.282 -0.2519 -0.1603 -0.5271
11038W        W27172   4.394   5.500  14.848  0.0389  0.0471  0.1481
11039W        W27173   4.015   6.904  10.013  0.0487 -0.1478  0.3668
11040W        W27174   2.144   8.150  13.335  0.3555 -0.3647  0.3579
11041W        W27175   3.521   3.278  12.618  0.0421 -0.0915 -0.2344
11042W        W27176  10.583  18.277   1.154 -0.0418 -0.4144  0.1665
11043W        W27177  19.350  16.951   2.447  0.1803  0.0520 -0.1817
11044W        W27178   3.772  11.795  12.971  0.0489  0.4965  0.3456
11045W        W27179   9.346   2.043   4.765  0.0613  0.2036  0.1358
11046W        W27180  14.346   3.608  13.755  0.2749 -0.1946 -0.0836
11047W        W27181   8.569   7.331  11.411  0.1984  0.0833 -0.0847
11048W        W27182   0.923   0.230   0.780  0.1631  0.0990  0.0748
11049W        W27183   8.529  14.983  11.173  0.2898  0.1091 -0.3028
11050W        W27184  13.753  12.912   3.746  0.4759  0.0470  0.4906
11051W        W27185  18.963   3.265  10.751 -0.0387 -0.2552 -0.0517
11052W        W27186  17.846  13.494  14.273 -0.0800  0.2576 -0.0594
11053W        W27187  11.918  13.656  12.449  0.1656  0.0626  0.0301
11054W        W27188  12.938  13.455   4.320  0.0314  0.1705  0.0011
11055W        W27189  17.308   8.216   3.690  0.0955  0.2777 -0.0953
11056W        W27190   4.736  17.650  13.414  0.3314 -0.0846  0.0213
11057W        W27191   6.328  13.487   1.069 -0.4422 -0.0474 -0.0773
11058W        W27192  17.470   4.063  12.847 -0.0300 -0.0650  0.0327
11059W        W27193  11.971  10.032  12.478 -0.2670 -0.0599 -0.0308
11060W        W27194   8.626   1.446   5.720 -0.1684 -0.0512  0.2196
11061W        W27195  16.187   5.662  12.743 -0.3068  0.0610 -0.0187
11062W        W27196  10.006  16.141   2.891 -0.3394  0.0525 -0.0828
11063W        W27197   6.589   0.546   4.991  0.1277  0.1214 -0.0586
11064W        W27198  18.827  13.562  13.057  0.0047 -0.0619 -0.0325
11065W        W27199  10.950  17.571   1.315 -0.2085 -0.2922  0.2320
11066W        W27200   8.607  14.341   2.325  0.1899 -0.4651 -0.2806
11067W        W27201   8.146  14.833  12.437  0.0614 -0.0663  0.0491
11068W        W27202  16.385   9.164   2.839  0.2179  0.2020  0.0269
11069W        W27203   2.617  16.487  11.720  0.2146 -0.0785 -0.0384
11070W        W27204   2.319   1.367   3.978 -0.1822 -0.0226  0.0215
11071W        W27205   6.369   8.415  14.513  0.1459 -0.0621  0.1367
11072W        W27206   8.584  10.591  11.750  0.0327 -0.1313 -0.1083
11073W        W27207   6.546   5.285  11.612 -0.3882  0.1583 -0.1784
11074W        W27208   9.117  14.779   1.498  0.3168 -0.0936  0.0714
11075W        W27209   1.293  18.259   4.737 -0.0428 -0.1559 -0.0952
11076W        W27210   7.536  11.746  14.147 -0.1759 -0.0485  0.0204
11077W        W27211   3.182   9.231  10.396 -0.1013  0.1948 -0.2309
11078W        W27212   2.058   6.595  12.206 -0.4041  0.2296 -0.1692
11079W        W27213   4.192  19.252  13.733  0.5902 -0.0394  0.2946
11080W        W27214  12.623  17.076  12.254  0.3139 -0.1282 -0.2169
11081W        W27215   3.071  15.352  10.447  0.3174  0.1196 -0.1772
11082W        W27216   1.348  16.243   4.135 -0.2521  0.0996  0.1394
11083W        W27217  15.334  15.290   0.366 -0.1094 -0.0189  0.0631
11084W        W27218  11.041  14.359   3.063  0.0871 -0.1739  0.0392
11085W        W27219  12.649  18.890  12.513 -0.1010  0.3805 -0.2603
11086W        W27220  10.819  13.763   1.653  0.2869 -0.0320  0.3883
11087W        W27221   1.279   7.814  10.783  0.1247 -0.1533 -0.1449
11088W        W27222   4.763  13.838  14.969 -0.0584 -0.5718  0.2561
11089W        W27223   0.308  15.268   2.753  0.1135  0.2475  0.1723
11090W        W27224   6.335  16.461   3.067  0.1523 -0.0115  0.7329
11091W        W27225  16.202   7.181  13.914  0.0705  0.2644  0.0521
11092W        W27226  15.223   5.847   0.441  0.1060  0.0868  0.0963
11093W        W27227  16.277  16.486  12.145  0.1005 -0.2606 -0.1371
11094W        W27228  18.163   3.264   0.216 -0.2862 -0.0037  0.4901
11095W        W27229  10.997  10.501  14.220 -0.1258  0.0034  0.4268
11096W        W27230   2.434   9.726  14.659 -0.3892 -0.0838 -0.1091
11097W        W27231   5.322   5.438  12.757  0.1312  0.0997  0.1506
11098W        W27232  13.371  10.921   0.631  0.0304  0.0894  0.1320
11099W        W27233  13.012  18.120   4.457  0.3004  0.0293  0.2701
11100W        W27234  10.618   5.304   4.166  0.2366 -0.1573  0.1267
11101W        W27235   4.345   4.281   2.923  0.0220  0.1838  0.0045
11102W        W27236  11.227  15.257   3.202 -0.1533 -0.1157 -0.0528
11103W        W27237   1.075  15.948   2.654  0.0248 -0.0683  0.1515
11104W        W27238   4.900   5.693  13.183  0.0334  0.0646  0.1400
11105W        W27239   8.241   4.302  10.808  0.2413  0.2362 -0.0380
11106W        W27240  12.114   5.825   0.892 -0.1757  0.1564  0.2056
11107W        W27241   4.165   4.781   2.187  0.2639  0.0490  0.2230
11108W        W27242  16.641   1.788   2.714 -0.0562 -0.0181 -0.3774
11109W        W27243   4.668   3.870  13.770  0.2437 -0.3830 -0.0192
11110W        W27244  15.137  12.554   0.505  0.0958 -0.4534 -0.0852
11111W        W27245   5.259   1.050  11.528 -0.1817 -0.1617 -0.0100
11112W        W27246  13.184  19.218   1.900  0.3025 -0.0387 -0.1000
11113W        W27247   7.409   9.965  14.049  0.2056 -0.4533 -0.0169
11114W        W27248  11.984   9.822   2.455  0.1764  0.2497  0.3486
11115W        W27249   6.063   8.877  10.247 -0.3635  0.2061  0.3142
11116W        W27250   9.275  18.288  13.437  0.1380  0.1994 -0.1049
11117W        W27251  13.218   7.859  10.663  0.0305 -0.0874 -0.1946
11118W        W27252   4.207  16.828  13.417  0.1684 -0.0728  0.2122
11119W        W27253   7.878  19.044   1.970 -0.0829 -0.0238  0.3491
11120W        W27254   5.857   2.301   2.665 -0.0185  0.0962 -0.1544
11121W        W27255  18.959  15.579  10.339  0.0557  0.1404  0.2620
11122W        W27256  12.412   3.157   5.056 -0.1180 -0.1616 -0.0370
11123W        W27257   8.936   7.412  10.681  0.2840  0.4243  0.1176
11124W        W27258  10.868   9.374  10.975  0.3815 -0.2710 -0.0404
11125W        W27259   9.375  11.822  11.208 -0.4121 -0.0471  0.3803
11126W        W27260   9.467  17.056   5.541  0.2776 -0.3164  0.1407
11127W        W27261  12.689  15.115  11.751  0.0810 -0.1821  0.0930
11128W        W27262   6.054  19.115  11.662 -0.0344  0.0160  0.2517
11129W        W27263  15.104   1.223   1.166 -0.0953 -0.0320 -0.0734
11130W        W27264   1.645  17.380   4.286 -0.3085 -0.2886 -0.1295
11131W        W27265  10.353   2.680  14.410  0.2346  0.0561 -0.1843
11132W        W27266   2.147  17.875  11.511  0.1029 -0.3152 -0.1530
11133W        W27267  16.291  11.497  11.660  0.2161 -0.2012 -0.4447
11134W        W27268  15.132   9.799  11.382 -0.0421 -0.1157 -0.1366
11135W        W27269   3.225  18.758  11.345  0.1184 -0.2947 -0.0770
11136W        W27270  10.653  11.766   2.926  0.2103 -0.0180  0.3195
11137W        W27271   9.997  18.995   3.709  0.1812 -0.0706 -0.0237
11138W        W27272   3.730   8.195  14.231  0.1445  0.0730 -0.1742
11139W        W27273   0.895  15.857  11.431  0.1418  0.0823 -0.0271
11140W        W27274  10.473  19.031   0.712  0.0640 -0.0737 -0.5026
11141W        W27275   1.605   8.168  14.717 -0.3641  0.2227 -0.3547
11142W        W27276   3.123   3.258  13.134  0.0451 -0.6963 -0.0883
11143W        W27277   3.046  18.616   5.031 -0.3511  0.1441  0.3789
11144W        W27278   6.124   3.421   0.406  0.1383 -0.0989 -0.3170
11145W        W27279   2.187  17.540  13.587  0.0774 -0.0611  0.3857
11146W        W27280   8.051   7.549   2.245 -0.1576 -0.0797  0.0873
11147W        W27281  10.991   1.893   1.434 -0.0577  0.0465 -0.1233
11148W        W27282  10.278  11.662   9.616  0.0543 -0.1582 -0.0972
11149W        W27283  14.559   8.017   3.815 -0.3152  0.1660 -0.1642
11150W        W27284   2.735  15.537   2.931  0.1975 -0.1587  0.0781
11151W        W27285  14.314  17.863   6.017  0.0838  0.2353  0.0393
11152W        W27286   0.624  17.793  14.613  0.0202  0.1321  0.1299
11153W        W27287   9.310   0.339   4.991  0.4814  0.3320 -0.0144
11154W        W27288  12.328  14.306   2.504  0.0045  0.0307  0.1420
11155W        W27289  14.451   5.964  13.937  0.2400  0.6633 -0.0869
11156W        W27290  17.311  18.540   3.268 -0.0183 -0.2718 -0.0178
11157W        W27291   3.869   6.406  10.022  0.0301 -0.1301  0.1228
11158W        W27292  18.123  12.038   4.026 -0.0416  0.1234 -0.3069
11159W        W27293   8.629  14.987   1.418 -0.0250  0.0526 -0.0105
11160W        W27294   1.085   8.985  12.153  0.2220 -0.0991  0.0421
11161W        W27295   8.043   5.723  13.233  0.0983 -0.1380 -0.2758
11162W        W27296  12.469   0.978  13.514 -0.3546  0.2192  0.1012
11163W        W27297   0.160  12.237   3.434  0.2695 -0.0017 -0.0447
11164W        W27298   7.038   9.459  11.124  0.1945 -0.1852  0.1982
11165W        W27299   8.959  17.575   1.250 -0.2195 -0.3159 -0.2046
11166W        W27300   0.062   6.115   3.443 -0.0949 -0.0154 -0.0084
11167W        W27301   4.307  10.970  12.727  0.1034 -0.1758  0.3898
11168W        W27302  14.644  11.410   3.461  0.1099  0.2198 -0.1303
11169W        W27303  18.994   2.796   0.646 -0.2412 -0.1514  0.4361
11170W        W27304  13.166  17.874   0.428 -0.0507 -0.0774 -0.0168
11171W        W27305  12.471  16.290  12.592  0.4349  0.3474 -0.4082
11172W        W27306   3.631  10.619   9.916  0.2114 -0.4392  0.2629
11173W        W27307  12.264  15.847  12.930 -0.2327  0.2431  0.1493
11174W        W27308   4.176  17.631   3.599  0.0978  0.4503  0.1408
11175W        W27309   3.497   4.445   9.203  0.0685 -0.3080  0.0693
11176W        W27310   9.645   9.345  11.324 -0.0583 -0.0716  0.3459
11177W        W27311  14.678  13.707   2.058 -0.0572 -0.2185  0.1449
11178W        W27312  15.896  17.235  12.568 -0.2091 -0.0558 -0.0167
11179W        W27313  14.512  18.849   1.878  0.2608  0.2386  0.0835
11180W        W27314  18.751   1.402   2.747  0.0094 -0.0152 -0.1618
11181W        W27315   6.833  18.655   1.120  0.1443 -0.3482 -0.0648
11182W        W27316   9.216   4.568   4.800  0.2015 -0.2531  0.0182
11183W        W27317  17.419  18.476  14.965 -0.0577 -0.2468 -0.0741
11184W        W27318   2.769  12.760  10.261  0.0058 -0.1532  0.0078
11185W        W27319  17.048   0.716   1.803  0.3798  0.2430 -0.0604
11186W        W27320   9.928  18.496   4.965  0.0290 -0.1708 -0.0727
11187W        W27321  15.196   3.300  12.661 -0.0132 -0.0817  0.0935
11188W        W27322   5.305  14.721   5.381 -0.1331  0.0413  0.1615
11189W        W27323   0.976   0.468   5.039  0.1465 -0.2205  0.1047
11190W        W27324   7.333  12.972  11.963  0.1734  0.1571 -0.2342
11191W        W27325   2.206  11.774  10.627 -0.0463 -0.1159 -0.0336
11192W        W27326  10.653   7.651   3.362  0.1107  0.3810  0.2119
11193W        W27327   3.150  11.123  11.748 -0.0617 -0.1204  0.1802
11194W        W27328   6.027   0.289   3.066  0.2172  0.0330 -0.1903
11195W        W27329   0.878   7.574  14.755 -0.2688 -0.0483 -0.3155
11196W        W27330  18.991   8.991   4.764  0.1594  0.0748 -0.0275
11197W        W27331  13.386   0.219  14.222  0.1044 -0.1472  0.0921
11198W        W27332   5.143  14.354   0.057  0.0926 -0.0188  0.0358
11199W        W27333   7.708   0.898   1.314  0.2238  0.2167 -0.1047
11200W        W27334  15.153   7.150   0.872  0.1206 -0.2143 -0.0826
11201W        W27335  17.751  10.677  10.574 -0.2153 -0.3923  0.1844
11202W        W27336  17.901   9.957  12.220 -0.2089 -0.1553  0.0871
11203W        W27337   2.143  14.006  12.061  0.1425 -0.1339  0.2643
11204W        W27338  12.936  10.902  12.173 -0.1596 -0.0820 -0.1889
11205W        W27339   4.595  17.146  11.984 -0.2654  0.2095  0.0131
11206W        W27340  10.181  12.711   5.513  0.2948  0.1415 -0.3465
11207W        W27341  13.782   0.758  13.249 -0.0955 -0.0321  0.2075
11208W        W27342  13.033  10.371  11.304 -0.1361 -0.1382 -0.1402
11209W        W27343   2.621  12.327   5.192  0.1592  0.1254  0.0516
11210W        W27344  16.402  16.538   2.901 -0.1458  0.1090 -0.0523
11211W        W27345   1.969   6.176  14.030 -0.0073  0.1111  0.1686
11212W        W27346   8.862  10.777   0.249  0.0154 -0.0838  0.2799
11213W        W27347   5.391   8.066   9.744  0.0950  0.3253  0.0246
11214W        W27348   3.243  11.110   4.132 -0.0712  0.0527 -0.0626
11215W        W27349  16.005   6.136  14.491  0.0928 -0.4942 -0.0163
11216W        W27350  12.408   7.342  12.288 -0.1231 -0.0906 -0.0926
11217W        W27351  11.464  16.039   1.698 -0.3376 -0.1825  0.0707
11218W        W27352   2.309   7.147  11.437  0.3642 -0.0070 -0.2713
11219W        W27353   8.793   2.518  11.021  0.4805  0.1283 -0.1052
11220W        W27354  18.128   8.536  13.594  0.0260 -0.1854  0.2092
11221W        W27355   7.542  14.024   4.304  0.1999  0.1456 -0.0614
11222W        W27356   8.094   1.889  12.671 -0.0852  0.1209 -0.1481
11223W        W27357  12.307   3.813  11.753 -0.3057 -0.2915 -0.1012
11224W        W27358  16.437   5.883   2.515  0.0827  0.2799 -0.1631
11225W        W27359   8.567  15.367   4.087  0.2748 -0.1153  0.3338
11226W        W27360   0.972   8.450  11.862 -0.2314 -0.0960  0.2531
11227W        W27361   8.221  13.990  11.823  0.2065  0.0741  0.0361
11228W        W27362  15.001  12.022   0.000 -0.0078  0.2312  0.0567
11229W        W27363  15.642   7.691   4.833  0.1433 -0.0168 -0.0349
11230W        W27364  12.596   7.963   2.123  0.3494 -0.0652 -0.0770
11231W        W27365  14.883  19.044  10.518 -0.2678  0.1893 -0.2576
11232W        W27366  13.737  17.689  11.349 -0.0865 -0.1689 -0.1174
11233W        W27367   4.886  11.853  12.078 -0.0210 -0.1019  0.0001
11234W        W27368  19.085  15.967   2.223  0.1966  0.0325 -0.1118
11235W        W27369   6.787   7.208  14.742  0.0565  0.1674 -0.0375
11236W        W27370  13.072   4.754   3.939 -0.0295 -0.0790 -0.1844
11237W        W27371  10.163  15.290   0.385  0.1164 -0.1993  0.0572
11238W        W27372  11.690   1.527   3.622 -0.1142 -0.0864 -0.0949
11239W        W27373   7.108   3.045  11.147 -0.2704  0.0697 -0.1216
11240W        W27374  10.604  14.437   5.449  0.2351 -0.3816  0.2562
11241W        W27375  13.991  18.344  12.875 -0.1559 -0.2206 -0.0380
11242W        W27376   7.795  11.740   1.752  0.2171  0.1064 -0.1905
11243W        W27377   0.403   7.869  12.348 -0.1302  0.3115 -0.0100
11244W        W27378  11.732   3.431   3.605  0.1121 -0.0252 -0.2470
11245W        W27379   6.559   9.369  13.320 -0.1807  0.2594  0.1614
11246W        W27380   9.946   9.679  14.916  0.2408  0.4331  0.1094
11247W        W27381  14.482   7.519  13.422  0.1116  0.2518  0.0293
11248W        W27382   5.634   0.711   5.845 -0.1705  0.0020  0.0348
11249W        W27383   9.553  13.807   0.903 -0.2547 -0.0125  0.3472
11250W        W27384   4.974   1.213  14.450 -0.4089  0.0788 -0.0343
11251W        W27385  12.477  16.221   5.464 -0.0140  0.1803 -0.3067
11252W        W27386  13.340   5.650  14.507 -0.1039  0.0912  0.0285
11253W        W27387  17.675   7.049  12.219  0.0616  0.1196  0.2862
11254W        W27388  18.948   8.417   1.371  0.1768 -0.0290 -0.0021
11255W        W27389   4.000   2.975  12.014 -0.1418  0.1900  0.1397
11256W        W27390  12.306  14.515   3.617 -0.0982 -0.1888  0.1531
11257W        W27391   6.136  12.468  12.150 -0.0760 -0.0915  0.3051
11258W        W27392  15.866   4.610  13.304  0.1490  0.3070 -0.0649
11259W        W27393   1.945  18.237   1.650  0.0134 -0.0013  0.1564
11260W        W27394   8.478  14.416  10.186  0.0561  0.2063  0.2359
11261W        W27395  16.033   7.045  12.516 -0.1274  0.0778  0.0874
11262W        W27396   9.434  17.857  12.712 -0.1202  0.0399  0.2884
11263W        W27397  12.308   0.499   1.119 -0.0645  0.2991  0.2505
11264W        W27398   7.555   9.895  12.644 -0.3281  0.0190  0.2106
11265W        W27399  15.244   2.060  14.574 -0.0023  0.0128 -0.1671
11266W        W27400  14.288   1.022  10.999  0.2915  0.2117 -0.1307
11267W        W27401  12.109   6.963   1.412  0.0011  0.0628 -0.0526
11268W        W27402  16.229   3.540  13.877  0.2967  0.1003 -0.0154
11269W        W27403  17.997  19.308   4.800 -0.1279 -0.1582 -0.2685
11270W        W27404   1.870   5.575   4.065  0.0258  0.0681  0.2923
11271W        W27405   4.292  16.133   0.622 -0.0256  0.4490 -0.3484
11272W        W27406   7.139   2.486   1.896  0.0995 -0.1878 -0.2199
11273W        W27407   0.283   7.345   0.249  0.0490 -0.0075 -0.0865
11274W        W27408  12.963   0.948   5.188  0.3256  0.1359  0.2290
11275W        W27409  17.278   6.242  12.657  0.1095 -0.0095 -0.1671
11276W        W27410  11.573  14.000  11.575  0.1406 -0.0881  0.2518
11277W        W27411  10.675   2.393   0.082 -0.1495  0.3597  0.1875
11278W        W27412  13.257   8.816  13.913  0.1856 -0.1535 -0.0863
11279W        W27413  17.512   4.081   4.121 -0.1283 -0.0085 -0.0957
11280W        W27414   4.235  15.569   5.235 -0.2540 -0.0591 -0.1597
11281W        W27415   9.363  12.956   2.146 -0.0876  0.0448  0.4162
11282W        W27416  17.100  14.710  13.602  0.0384 -0.0676  0.1496
11283W        W27417  17.513   8.892   3.387 -0.0172  0.2477 -0.1253
11284W        W27418  10.247   8.849  11.873  0.0380 -0.2052  0.1783
11285W        W27419   5.347   1.818   2.672  0.0244 -0.0772  0.1663
11286W        W27420   3.813   6.677  14.138  0.0060 -0.2854  0.1425
11287W        W27421   1.933  10.510  10.570  0.0329  0.1465  0.0990
11288W        W27422  15.340  10.735   0.800 -0.1414 -0.0746 -0.3784
11289W        W27423   8.365   7.437   0.984  0.1593  0.1193  0.2215
11290W        W27424  10.995  12.948   4.756  0.0360  0.1750 -0.2351
11291W        W27425  12.414  15.813   1.211  0.1689  0.3585  0.0359
11292W        W27426   9.967   3.819   0.785 -0.1222  0.2510  0.4442
11293W        W27427  15.061   6.790  12.905 -0.1391  0.3101 -0.0341
11294W        W27428  16.798   0.660  12.654 -0.1887  0.0274 -0.0528
11295W        W27429  11.291  18.621   0.193  0.0174 -0.1951  0.0213
11296W        W27430  11.182   5.577   4.658 -0.4843  0.2580 -0.0398
11297W        W27431   8.642   3.286   9.287 -0.1679 -0.1171 -0.3351
11298W        W27432   6.254  17.063  12.214  0.1346  0.1425  0.1288
11299W        W27433   0.357   6.890  13.057  0.1622 -0.0004 -0.1231
11300W        W27434  12.441  15.791   0.177  0.1557 -0.1982 -0.0624
11301W        W27435   4.205  10.000   0.392  0.1728  0.1932  0.0471
11302W        W27436  16.493  16.014   3.717 -0.2494  0.2891 -0.0487
11303W        W27437  10.691   7.916  10.345 -0.1308 -0.1667 -0.0868
11304W        W27438   2.277  11.102  11.345  0.0093  0.1980  0.0277
11305W        W27439   5.549   4.713   0.560  0.1221  0.1456 -0.2772
11306W        W27440  18.514  11.765   0.214  0.3211 -0.4473  0.0670
11307W        W27441   5.054  15.547   3.359  0.0863  0.0393  0.3337
11308W        W27442   2.469  16.726  13.927 -0.1051  0.0122  0.0600
11309W        W27443   4.200  14.432  12.425 -0.1512  0.2044 -0.0380
11310W        W27444  13.651  11.454  13.393  0.1686  0.0426  0.0515
11311W        W27445   0.270  15.038   4.960 -0.0212  0.1403  0.1364
11312W        W27446   6.752   8.069  14.151 -0.1675  0.0178 -0.0640
11313W        W27447  15.797  11.747   5.448 -0.0574 -0.0950  0.0448
11314W        W27448   9.645   4.004  12.729  0.1714 -0.0999 -0.2410
11315W        W27449   7.248   1.610   9.538  0.0751 -0.1318  0.1060
11316W        W27450  18.897  15.270   1.080  0.0091 -0.1209 -0.0335
11317W        W27451  17.936  17.617  12.639  0.1917  0.0828  0.2407
11318W        W27452   9.003   1.362   1.612  0.1819 -0.0450 -0.0428
11319W        W27453   1.253   2.324  10.434 -0.0657  0.2772  0.2317
11320W        W27454  16.478   7.411  14.670  0.1200  0.0407  0.3571
11321W        W27455   4.623   2.145   0.718  0.0818  0.2021  0.1917
11322W        W27456  17.754  17.679   1.956 -0.0644  0.3143 -0.0946
11323W        W27457  13.094  18.422   1.220 -0.1686  0.0808 -0.0556
11324W        W27458  17.884   2.672  10.520 -0.1188 -0.2287  0.1858
11325W        W27459  14.608   6.474   4.760  0.3326  0.2987 -0.2180
11326W        W27460  17.470   1.314   1.217  0.1541 -0.0117  0.0777
11327W        W27461  19.240   8.675   3.913  0.1647 -0.2507  0.1734
11328W        W27462  17.696  10.367   0.611  0.1180  0.2197  0.1897
11329W        W27463   6.320   6.210  12.064 -0.0460 -0.1334  0.0118
11330W        W27464  18.633   9.870   0.054  0.1047  0.0130  0.0021
11331W        W27465  13.683   6.237   3.177  0.1628 -0.0167  0.0832
11332W        W27466   5.377  14.287  11.273 -0.1058  0.0240 -0.2974
11333W        W27467   1.637   3.710   4.201  0.2534  0.0987  0.0632
11334W        W27468  17.432  11.171  13.900 -0.1541 -0.0500 -0.0859
11335W        W27469   7.678  16.318   4.222  0.0745  0.1288  0.0520
11336W        W27470   9.042  17.428  10.782 -0.0612  0.0545  0.0236
11337W        W27471  17.753  12.657   1.298  0.1064  0.0198 -0.0754
11338W        W27472  17.230  11.809   3.804  0.2238 -0.0933 -0.1122
11339W        W27473  16.981  11.567   4.735  0.3413  0.5859  0.0025
11340W        W27474  18.927   8.269  10.818 -0.2220 -0.0946 -0.1193
11341W        W27475  16.209   1.000  13.588 -0.0188  0.4034 -0.3154
11342W        W27476  14.241   4.330   5.249  0.4435 -0.0498  0.2050
11343W        W27477  12.513   8.900   2.427 -0.3668 -0.1076 -0.2833
11344W        W27478   8.751  17.934   4.833 -0.2612  0.4113  0.1906
11345W        W27479  16.504  18.751   0.877 -0.2633  0.2063  0.0040
11346W        W27480  17.831   5.382   3.018  0.0270 -0.1409 -0.0481
11347W        W27481  14.798  13.570   4.542 -0.1962 -0.0444 -0.1356
11348W        W27482  15.159   9.606   1.375 -0.0327 -0.1650 -0.2116
11349W        W27483   6.697  16.167  14.825 -0.1105  0.2827  0.1564
11350W        W27484  18.893   1.496   5.120  0.3545  0.3061  0.1596
11351W        W27485   1.251  12.565  14.337  0.0133  0.1510  0.0186
11352W        W27486  13.086  13.667   0.816  0.0476 -0.0517  0.0882
11353W        W27487   3.105   8.368  10.798  0.0025 -0.2039 -0.1385
11354W        W27488   2.215   7.718   0.981  0.1612  0.2257  0.0154
11355W        W27489  10.337   2.387   0.473 -0.5711  0.0214 -0.1337
11356W        W27490  18.156   1.717   9.661 -0.2323  0.1871  0.1934
11357W        W27491   6.625  16.293  11.222  0.2664  0.0989  0.0741
11358W        W27492  11.912  11.034   5.061  0.2893  0.0342  0.0845
11359W        W27493  18.804   1.473   1.105  0.0286 -0.4879  0.0845
11360W        W27494  18.614   2.109   4.542 -0.0734  0.2151  0.1577
11361W        W27495  18.322   7.306  14.448 -0.1931 -0.3020 -0.0173
11362W        W27496   5.385  11.955   1.169  0.0227  0.1170 -0.1348
11363W        W27497   4.001   8.531  13.961  0.1256 -0.2506  0.2676
11364W        W27498  15.638  11.860  13.885  0.3855 -0.1958 -0.4782
11365W        W27499   6.656  10.566   1.244 -0.3922 -0.1230  0.2680
11366W        W27500   0.240   5.619  11.403  0.0183  0.2010  0.2173
11367W        W27501  17.507  12.369   1.587 -0.0096 -0.0629  0.2773
11368W        W27502  18.018   4.843   1.583  0.2278  0.1090  0.0310
11369W        W27503   9.719  19.016  12.741  0.1229 -0.1400  0.1262
11370W        W27504   2.775  14.009   4.961  0.0215 -0.4032 -0.2344
11371W        W27505  16.093  18.915  13.153 -0.1314 -0.0356  0.0715
11372W        W27506   1.591  16.390   4.584  0.1009 -0.0736 -0.1657
11373W        W27507  19.143   1.375   9.821  0.0713  0.1276  0.1997
11374W        W27508  14.043   6.390   0.402  0.0316  0.2483 -0.1131
11375W        W27509   1.664  16.248   3.193 -0.1573  0.0926 -0.0684
11376W        W27510   4.444   7.872   2.691  0.1992  0.1472 -0.1488
11377W        W27511   5.131   2.444  11.069  0.1689  0.0566 -0.1684
11378W        W27512   1.992   2.856   4.562 -0.0270  0.3324  0.0909
11379W        W27513  12.243   8.648  10.851 -0.2828  0.1510  0.1448
11380W        W27514   7.585  13.870   0.205  0.1356 -0.2306 -0.0912
11381W        W27515  11.407  18.051  11.880  0.4212  0.0429 -0.0509
11382W        W27516   2.616  16.232   3.093 -0.0775 -0.2864  0.0793
11383W        W27517  16.892   4.278   3.568  0.2630  0.2333  0.1061
11384W        W27518  17.786  10.770   3.263 -0.0359  0.1898 -0.1409
11385W        W27519   6.913  11.108   3.657 -0.1979  0.2142  0.2706
11386W        W27520  12.390  10.652   4.638 -0.1040 -0.0056  0.2907
11387W        W27521  11.684  18.052  13.826 -0.0689  0.0380  0.2136
11388W        W27522  15.949  14.194   3.797  0.0848 -0.0642 -0.1175
11389W        W27523  16.507   1.679  14.902 -0.2294 -0.1061 -0.0974
11390W        W27524   9.027   9.820  11.898 -0.3248  0.2858 -0.0888
11391W        W27525   6.344   1.082   4.462  0.2646  0.1115 -0.1972
11392W        W27526   5.120   2.627   9.654 -0.0354 -0.1148 -0.2053
11393W        W27527   0.744  14.468  10.251  0.1317  0.1990 -0.0230
11394W        W27528   0.426   8.618   0.931 -0.1323 -0.1887  0.1550
11395W        W27529   1.841   7.671   4.634 -0.0832  0.0752 -0.0166
11396W        W27530   4.613  10.353   1.021  0.2812 -0.0391  0.1595
11397W        W27531  18.792  18.954   2.979 -0.0127  0.0378 -0.1930
11398W        W27532   7.660  17.597   1.471 -0.0063  0.1185  0.1448
11399W        W27533  10.125   4.225   2.402 -0.0231 -0.1409  0.0939
11400W        W27534  12.104   5.776   2.799  0.3650  0.2875 -0.0785
11401W        W27535  12.739   1.403   2.884 -0.1069  0.4874  0.1963
11402W        W27536   8.246  18.045  14.602  0.1330  0.1077  0.2077
11403W        W27537   7.054  10.203   3.886  0.2003 -0.1239 -0.1086
11404W        W27538   0.966   5.677  11.809 -0.1075  0.1196  0.0762
11405W        W27539   1.463  13.625   0.766 -0.2267 -0.2255 -0.2111
11406W        W27540   6.320  16.962  13.303  0.1879  0.1748 -0.0593
11407W        W27541  17.975   8.219  14.599  0.3404 -0.0081 -0.1586
11408W        W27542  12.575  11.119   1.543 -0.0926 -0.4023  0.0122
11409W        W27543   3.559  14.287  14.605  0.1205 -0.3904  0.0816
11410W        W27544  17.664   0.309   4.389 -0.4391  0.1807  0.0220
11411W        W27545   6.548  15.161  12.075 -0.4031  0.2581 -0.2921
11412W        W27546  17.615  14.156  10.275 -0.1019  0.0252 -0.0667
11413W        W27547   4.882  18.101  13.545 -0.1810  0.1749 -0.3007
11414W        W27548   6.206  13.349  13.341  0.1093  0.1791  0.0822
11415W        W27549   6.886  15.691   3.449 -0.0574 -0.1539  0.0298
11416W        W27550  13.198  16.267  14.663 -0.0858  0.3552 -0.0865
11417W        W27551   2.469   3.814   1.082 -0.1232  0.0226  0.1918
11418W        W27552  18.588  18.622   5.388  0.1428 -0.0589  0.0459
11419W        W27553  16.263   8.338  10.867  0.2252  0.2033 -0.0224
11420W        W27554   1.713   3.804   2.253  0.1784 -0.0354 -0.1700
11421W        W27555   7.726  13.862  12.036  0.0710 -0.0231  0.1144
11422W        W27556   4.375   7.468  13.762 -0.2230  0.0774  0.1800
11423W        W27557   0.464   8.652   4.089  0.1435 -0.0220  0.1607
11424W        W27558  17.179  13.610  11.320 -0.2934  0.0819 -0.1318
11425W        W27559   1.035   2.746   1.492 -0.4712  0.0383 -0.2879
11426W        W27560  14.968   8.460   9.522 -0.0790 -0.4559 -0.2618
11427W        W27561  18.873  10.951   2.491  0.3062  0.1036 -0.5049
11428W        W27562   7.181  17.908  13.231  0.0992 -0.2812 -0.0324
11429W        W27563  18.780  17.434  12.215 -0.1789 -0.1306 -0.1120
11430W        W27564  10.900   4.045   1.815  0.0334 -0.0527  0.1296
11431W        W27565  12.581  16.454  11.735  0.0698  0.0890 -0.2236
11432W        W27566  11.792   9.338  11.811  0.0389  0.0922  0.3643
11433W        W27567  13.551   2.357  13.832  0.0388 -0.1260  0.0266
11434W        W27568   8.707   5.034  14.296 -0.0386  0.3723 -0.0996
11435W        W27569  16.824   0.182  11.866 -0.4310 -0.0348  0.4514
11436W        W27570  16.169  15.084   4.552 -0.3457 -0.1822 -0.1305
11437W        W27571  17.264  16.002   3.332  0.0103 -0.2118  0.2921
11438W        W27572   8.380   7.223   2.491 -0.0725 -0.0754 -0.0622
11439W        W27573   5.663  14.363  14.706 -0.0267  0.1796 -0.0829
11440W        W27574  16.896   2.361  14.292  0.0520  0.0646  0.1638
11441W        W27575   2.290   9.659   5.307 -0.0579 -0.2850  0.0185
11442W        W27576  18.823   0.242  13.505  0.0070 -0.1226  0.0808
11443W        W27577   4.713   0.028   3.273 -0.1606  0.2547  0.0601
11444W        W27578   3.494  13.267   4.243 -0.3241 -0.0200 -0.0660
11445W        W27579   7.124   9.825   5.186  0.0649 -0.2540 -0.0000
11446W        W27580   4.007   4.806  13.085 -0.3227 -0.1854  0.0836
11447W        W27581   4.099   0.950  11.333 -0.1136 -0.1329 -0.1688
11448W        W27582   1.435   1.392   4.274  0.2254  0.2993 -0.2821
11449W        W27583   5.951   0.798  13.609  0.1473  0.1979 -0.0576
11450W        W27584   2.332  15.062  11.113  0.2215  0.1401 -0.1626
11451W        W27585  10.537  15.833   2.116 -0.5704 -0.1090 -0.3526
11452W        W27586  13.887   1.829  14.928  0.0245 -0.0346 -0.2120
11453W        W27587   7.690   2.502  14.360  0.0012 -0.0631  0.1153
11454W        W27588   5.819   5.610   0.167 -0.1361  0.2093  0.2135
11455W        W27589   9.755   0.846   2.669 -0.1524 -0.2262  0.2782
11456W        W27590  15.636  17.043   9.771  0.2716  0.1071  0.3471
11457W        W27591  12.466   5.442  11.673  0.1848 -0.2852 -0.0727
11458W        W27592   3.847   2.565  12.396 -0.0839 -0.2045 -0.3109
11459W        W27593   0.693   8.527   0.462 -0.2016 -0.3404 -0.2381
11460W        W27594   9.645   6.321  13.182  0.0400  0.3099  0.1689
11461W        W27595  14.010   4.587   1.943 -0.1567  0.5210  0.1314
11462W        W27596  10.203   5.584   4.399  0.2107  0.2232 -0.1325
11463W        W27597  15.429  17.134   0.330 -0.0822  0.1151  0.2166
11464W        W27598   7.207   3.718   3.655  0.2136 -0.0929  0.1966
11465W        W27599  13.695   1.312   4.606  0.0551  0.1867  0.2109
11466W        W27600  16.185  14.643   3.855 -0.0472 -0.1273 -0.0244
11467W        W27601   1.386  12.286   5.153 -0.1127  0.1521 -0.4634
11468W        W27602   9.779   3.259  14.897 -0.0512  0.1148  0.1184
11469W        W27603  10.587   2.085  12.610 -0.1939 -0.1170  0.0962
11470W        W27604   9.895   0.135   1.983  0.0289 -0.1575  0.0963
11471W        W27605   6.793  15.073   4.523  0.2208  0.0692 -0.3728
11472W        W27606  11.755   9.657  13.244 -0.2365 -0.1364  0.1186
11473W        W27607  12.881  13.626  13.474  0.0709 -0.2935  0.1269
11474W        W27608  12.927   3.386   3.151 -0.0617  0.0126  0.3471
11475W        W27609   4.142  18.460   4.106 -0.0304  0.1191  0.2376
11476W        W27610   4.026   2.875   3.056  0.1850  0.0465  0.1568
11477W        W27611  11.772  11.870   3.935 -0.2255 -0.1326 -0.0180
11478W        W27612   2.502   2.576  14.796  0.1097  0.0675 -0.0856
11479W        W27613  15.421   5.297   1.481  0.0241 -0.2210 -0.0140
11480W        W27614   6.510  17.595   5.605  0.1535  0.0502  0.1081
11481W        W27615  10.225   8.462  11.523 -0.0462  0.0236  0.2768
11482W        W27616   0.750  14.857   0.750 -0.0273 -0.2069 -0.0008
11483W        W27617  16.261   4.757  11.447 -0.1080 -0.0703  0.2635
11484W        W27618   8.858   5.328  13.697 -0.0590  0.1781 -0.1015
11485W        W27619  17.046   0.764   5.480 -0.0533  0.1488 -0.0549
11486W        W27620   5.417   8.004   0.845  0.0787 -0.0289 -0.3214
11487W        W27621   9.541   2.551  13.629  0.0606  0.2928 -0.0186
11488W        W27622   3.156  17.520  13.506  0.1012  0.0912 -0.0089
11489W        W27623   7.663   4.395  11.256  0.1359 -0.0959  0.0682
11490W        W27624   3.527  14.109   2.591  0.0098 -0.1989 -0.1316
11491W        W27625   5.809  11.985  12.190 -0.2433 -0.1046  0.1745
11492W        W27626   4.904  14.168  10.279  0.2156 -0.0800  0.0353
11493W        W27627  19.150   1.881   1.580  0.2381  0.0302  0.0094
11494W        W27628   3.599   0.070   1.878  0.0722 -0.0228 -0.1414
11495W        W27629   4.357   0.691  12.072 -0.0021  0.1050 -0.2195
11496W        W27630   7.784  19.190   4.955  0.1620 -0.1974 -0.1629
11497W        W27631  18.225  16.375  10.536 -0.4264 -0.1213  0.2448
11498W        W27632   7.536   1.717  10.840 -0.2007 -0.4388 -0.0291
11499W        W27633   5.221   0.353   1.651 -0.1770 -0.1020 -0.2087
11500W        W27634   0.818   9.208   2.009 -0.0415 -0.3443 -0.0087
11501W        W27635  17.059   0.327   5.666 -0.1520 -0.1373 -0.3455
11502W        W27636   8.765   4.726  11.567  0.1194 -0.2767  0.0036
11503W        W27637   9.558   6.589  12.757 -0.2858  0.5668  0.3417
11504W        W27638  10.171  17.938   1.425 -0.1994  0.1891  0.1880
11505W        W27639   4.816   8.523  14.751  0.1126  0.1876  0.0223
11506W        W27640   7.848   3.478   0.815 -0.1139  0.2957  0.1743
11507W        W27641   6.488  17.020  12.657 -0.2082 -0.2687 -0.0207
11508W        W27642  17.422  12.304   0.851 -0.3917 -0.2431 -0.1024
11509W        W27643  11.286  16.129   3.862 -0.2434  0.0250 -0.2789
11510W        W27644  10.721   9.300  11.954 -0.4437 -0.1854 -0.2410
11511W        W27645  18.063   8.384  12.593  0.0336 -0.2276  0.0643
11512W        W27646   1.511  15.439   1.923  0.1911 -0.0281  0.0082
11513W        W27647  12.626  18.476   0.052  0.2025  0.0411 -0.0874
11514W        W27648  17.600   2.463  13.126 -0.1029  0.0526  0.0822
11515W        W27649  10.996  10.406   1.761 -0.1889  0.2786  0.1127
11516W        W27650   0.403   3.967   1.887  0.0921  0.2777  0.2211
11517W        W27651  12.356  10.940   0.478  0.0073 -0.4384  0.6246
11518W        W27652  15.649   0.121  13.008 -0.1890  0.2072  0.0722
11519W        W27653  18.860  14.840  11.246  0.0164  0.1118  0.0495
11520W        W27654  17.220  12.390  10.678  0.3138 -0.1146 -0.2074
11521W        W27655  13.492  16.679   5.159 -0.1795 -0.3354  0.1480
11522W        W27656   2.349   4.009  14.303 -0.0603  0.0178  0.0182
11523W        W27657  10.743  10.535   0.238  0.2309  0.0021  0.0678
11524W        W27658   9.477  18.196   0.278 -0.1533  0.1906 -0.4522
11525W        W27659  18.594   5.666   0.234 -0.1671 -0.2003  0.1644
11526W        W27660   7.170   6.381   1.857 -0.0460 -0.0093 -0.3987
11527W        W27661   2.254   9.864   0.561 -0.1445 -0.2110 -0.0356
11528W        W27662   8.974  18.659   6.254 -0.3946 -0.3085 -0.1224
11529W        W27663  13.580  15.936  14.523 -0.3784 -0.2235  0.3712
11530W        W27664   6.879   6.530   9.037 -0.0106  0.3335  0.0061
11531W        W27665   2.788   4.173   2.415 -0.0283 -0.1502 -0.1265
11532W        W27666  10.436  18.023  12.102 -0.0573  0.0800  0.4866
11533W        W27667  13.030  14.376  14.491  0.1304  0.0017 -0.1933
11534W        W27668  12.178  16.171  12.027 -0.1547  0.1213  0.1616
11535W        W27669   4.281   1.832  11.146  0.1411 -0.1482 -0.2832
11536W        W27670   9.105   0.072   4.017  0.0937  0.0425 -0.2056
11537W        W27671  18.418  12.239   4.395 -0.1733  0.0188 -0.1612
11538W        W27672   6.186  18.160  11.586  0.2017  0.2395 -0.1254
11539W        W27673   2.639  12.745  13.644  0.3850  0.2286 -0.1364
11540W        W27674   3.074   2.050  11.868 -0.4646 -0.1328 -0.2793
11541W        W27675   5.430  10.403   4.241 -0.1796  0.2253  0.1249
11542W        W27676   4.138  18.742  14.097  0.0650 -0.1618  0.0476
11543W        W27677   5.996  18.108   1.061 -0.0467 -0.1091 -0.0371
11544W        W27678  13.681  10.795   0.244  0.2213  0.2009 -0.1497
11545W        W27679  10.499  10.376  14.089 -0.8256 -0.1553  0.0003
11546W        W27680   6.690  15.124  11.114  0.1217 -0.1111 -0.0969
11547W        W27681  13.452   0.954   0.161 -0.0331 -0.2927  0.0295
11548W        W27682   5.299   3.530  10.333 -0.0851  0.0432 -0.1733
11549W        W27683   9.484   4.151   1.623 -0.2330  0.2375  0.2036
11550W        W27684   7.305  15.154   3.931  0.4633 -0.1541 -0.2127
11551W        W27685  17.642  17.446   0.284 -0.0500  0.0605 -0.1690
11552W        W27686  14.711   8.798  11.617  0.0897  0.2597 -0.0627
11553W        W27687  16.693  18.172  14.181  0.0062 -0.1111  0.3077
11554W        W27688  18.305   6.594  13.334  0.1068  0.0551 -0.0196
11555W        W27689   4.159  16.551  10.409  0.2178  0.1506  0.5404
11556W        W27690  14.436   6.061  14.455 -0.1713 -0.0817  0.0900
11557W        W27691  17.597   3.768   0.693  0.1682 -0.2742 -0.2287
11558W        W27692   3.243  18.842   4.411 -0.1017 -0.0775 -0.1269
11559W        W27693   6.424  13.453   4.012 -0.1073  0.0796 -0.2527
11560W        W27694   7.871   8.913  10.766  0.1262 -0.2406 -0.0059
11561W        W27695  18.556  11.154   2.967  0.2426 -0.0986  0.1029
11562W        W27696   4.267   2.190  11.513  0.0070 -0.2601  0.2139
11563W        W27697   7.529   9.380   3.561  0.1642  0.1438 -0.2266
11564W        W27698   1.814  19.050  14.379  0.0966 -0.1577  0.0255
11565W        W27699  18.092   8.906  11.365  0.2129 -0.1290 -0.3181
11566W        W27700  17.210  18.637  11.946  0.0241  0.0351  0.2228
11567W        W27701   5.545  15.299   1.426  0.1114  0.0145 -0.1522
11568W        W27702   0.959   3.920  10.198  0.0636  0.0495  0.2134
11569W        W27703   5.093  12.888  13.007 -0.0723  0.0601  0.1697
11570W        W27704   1.333  11.503  11.256  0.4443 -0.0114 -0.1987
11571W        W27705   0.163   2.683   4.412 -0.2563 -0.0722 -0.1838
11572W        W27706   9.556   6.249   3.129  0.0791  0.0149  0.1491
11573W        W27707  18.901  18.286  13.293  0.3258  0.0631  0.0919
11574W        W27708   5.959  15.601  14.773  0.3361  0.1344 -0.1288
11575W        W27709  12.513  11.574  14.696  0.4137  0.1630 -0.0756
11576W        W27710  15.264   7.275  12.061 -0.0091 -0.0248 -0.0454
11577W        W27711  18.378   0.503   2.861  0.0767  0.0556  0.1986
11578W        W27712  18.440   1.428   3.851 -0.1751 -0.2781  0.1283
11579W        W27713  17.951  12.517  12.627  0.0383  0.1043 -0.1893
11580W        W27714   6.161  11.500   0.364  0.0010 -0.1753  0.0934
11581W        W27715  14.711   4.202   4.179  0.1705  0.1572 -0.1999
11582W        W27716   9.298  11.921   1.025 -0.0239  0.1429 -0.1844
11583W        W27717   3.534   6.763  13.452 -0.0217 -0.1235 -0.0378
11584W        W27718  11.465   7.454   1.334  0.2853 -0.0820  0.0042
11585W        W27719  18.187   3.540   3.675  0.3191  0.0463  0.1345
11586W        W27720  11.337  19.154   1.873 -0.0513  0.1049 -0.1243
11587W        W27721   0.101  15.927  13.594  0.3641 -0.2528  0.0275
11588W        W27722  16.226   1.400   0.325 -0.1095 -0.0949  0.1304
11589W        W27723   6.698   7.634   2.259  0.2381 -0.3099  0.1439
11590W        W27724   8.031   6.329   2.697 -0.0776  0.0324 -0.2045
11591W        W27725  10.638  10.336   2.872 -0.0406 -0.0912  0.0101
11592W        W27726  10.012   4.027   0.127  0.1469  0.0084 -0.0402
11593W        W27727  16.881   1.457   1.708  0.0275  0.1411 -0.0850
11594W        W27728   1.899  12.064   1.595  0.1085 -0.1151  0.0707
11595W        W27729   2.184   8.628   2.475  0.1310 -0.2365  0.1100
11596W        W27730   0.699   4.078   1.432 -0.0443 -0.0697 -0.2534
11597W        W27731   3.812  16.922  13.071 -0.1012 -0.2401  0.0911
11598W        W27732  16.333   8.362   3.209 -0.2103  0.0686  0.0509
11599W        W27733   2.039   3.762   0.297 -0.0512  0.4073 -0.1415
11600W        W27734   8.006   2.141  11.585 -0.2579  0.3295  0.3445
11601W        W27735   8.635  14.186   3.950 -0.3081  0.1260 -0.0588
11602W        W27736   9.335  14.053  11.824 -0.1777  0.0434 -0.0118
11603W        W27737  15.241   8.035  14.550 -0.0480 -0.2779 -0.1565
11604W        W27738  14.542  10.033   2.579  0.1065  0.0297  0.4037
11605W        W27739   2.060   2.296   2.655 -0.1290  0.1373 -0.0379
11606W        W27740   0.578  14.585  11.940  0.0231  0.1910  0.2626
11607W        W27741   9.522  10.477  11.550  0.1324  0.0371 -0.1855
11608W        W27742  16.528   7.705   1.428  0.0726  0.0284 -0.2223
11609W        W27743  10.224  19.338  12.632 -0.2232 -0.2151 -0.1683
11610W        W27744  14.840   3.023   1.215  0.0338 -0.0150 -0.0065
11611W        W27745  15.712   2.411  13.879  0.1730  0.2557 -0.2214
11612W        W27746  19.247   2.242  13.971  0.1996  0.1110  0.1905
11613W        W27747   5.157  15.807   4.213  0.0215  0.1750 -0.1810
11614W        W27748  17.985   4.776  14.925 -0.1730  0.0599 -0.1577
11615W        W27749   5.141   9.756  14.743  0.0697 -0.3315  0.2258
11616W        W27750  17.121   4.071   0.303  0.1174  0.1976  0.0409
11617W        W27751  12.161  12.882   2.105  0.1361  0.1838 -0.2173
11618W        W27752   2.809   8.624  11.591  0.1636  0.2970  0.1584
11619W        W27753   6.961   9.858  14.868  0.0630 -0.1100  0.2296
11620W        W27754   3.026   6.188   0.636  0.4693  0.0162  0.0351
11621W        W27755   9.201   6.123  13.486 -0.0332  0.2112 -0.0757
11622W        W27756   8.785   6.361  11.497  0.1261 -0.3188 -0.1315
11623W        W27757   2.531  18.554  12.875  0.1662 -0.3401  0.2345
11624W        W27758   5.641   0.990   0.567 -0.1550  0.1377  0.0342
11625W        W27759   2.578  17.756   4.814  0.0188  0.1606 -0.2950
11626W        W27760   4.830  11.253   1.323  0.2023 -0.1833 -0.4628
11627W        W27761  13.828   9.248  11.088  0.1776 -0.1908 -0.2431
11628W        W27762   6.466   1.928  14.480 -0.1883 -0.1743  0.4805
11629W        W27763  11.058  10.099   1.155 -0.0771 -0.0666 -0.0361
11630W        W27764   1.396  18.905   0.460  0.2432  0.0621 -0.1549
11631W        W27765  15.682   6.710  12.639  0.0024 -0.1039  0.1200
11632W        W27766   5.516   0.379  12.498  0.1155  0.2212  0.0854
11633W        W27767  19.265   8.467  14.704  0.0336  0.1005 -0.0209
11634W        W27768   0.423  15.944   3.339 -0.4070  0.2475 -0.1512
11635W        W27769   4.230  14.012   3.840 -0.0595  0.2978  0.1414
11636W        W27770  17.429   8.402  10.137 -0.0993  0.1457 -0.1672
11637W        W27771   4.034  18.625  12.027  0.3157 -0.2723 -0.4167
11638W        W27772  18.881  11.992  14.861 -0.1738  0.1788 -0.1555
11639W        W27773   3.710  15.196   0.754  0.1466 -0.1463 -0.1316
11640W        W27774   5.851   7.752   9.653 -0.1172 -0.0045  0.1462
11641W        W27775   8.501   1.895  11.636 -0.0238 -0.2844 -0.3290
11642W        W27776   5.843  17.743  14.700  0.4019 -0.1145  0.1707
11643W        W27777   0.066  10.605   4.465 -0.0094  0.1025 -0.2591
11644W        W27778   4.179   7.400   1.496 -0.1716 -0.0572 -0.0188
11645W        W27779   1.141   7.552   2.375 -0.2749 -0.0173  0.1413
11646W        W27780   0.256   0.746   1.912 -0.0842 -0.0231 -0.0174
11647W        W27781   6.086   4.500  13.416  0.1569  0.0048  0.1941
11648W        W27782   4.025   7.784   1.153  0.0395  0.0888  0.0628
11649W        W27783  12.166  12.280   5.165 -0.0144 -0.0241  0.0088
11650W        W27784  12.776  11.449   0.124 -0.3536 -0.0079  0.0549
11651W        W27785   3.159   8.448   0.799 -0.0461  0.0560  0.1771
11652W        W27786  16.737   2.363  11.974 -0.2812 -0.2421 -0.2505
11653W        W27787   6.009  16.251  13.680 -0.0650 -0.0091 -0.1843
11654W        W27788  11.688   6.311  13.947  0.1091  0.3013  0.2043
11655W        W27789   6.790   5.769   9.457  0.1483 -0.2801 -0.0977
11656W        W27790  14.957  14.160   5.300 -0.2238  0.2138 -0.0243
11657W        W27791  12.315  11.913   2.255 -0.0430 -0.0632  0.2960
11658W        W27792   1.872  12.145  11.918  0.1974 -0.0077  0.0819
11659W        W27793  18.861  15.271  13.872 -0.1654  0.0228 -0.2048
11660W        W27794  15.554  18.468   0.789  0.1405  0.0189  0.1073
11661W        W27795   5.831   1.156   1.014  0.0391  0.0947 -0.1635
11662W        W27796  14.228   3.094  12.886  0.1942 -0.2723 -0.1435
11663W        W27797  15.689  15.250  14.678  0.0006 -0.2403  0.0549
11664W        W27798   2.489   5.679   9.712 -0.2046 -0.0316  0.1457
11665W        W27799  14.366   6.117  11.478  0.0428  0.1921 -0.2886
11666W        W27800   4.103   8.974  12.950  0.3686 -0.2218 -0.0158
11667W        W27801   6.652  18.741   2.491 -0.1364 -0.2941  0.2106
11668W        W27802  12.538   5.004  14.263  0.1507  0.2771 -0.0830
11669W        W27803  15.318  12.922  14.133 -0.0124  0.3247 -0.1734
11670W        W27804   4.992  13.304   4.841 -0.0155 -0.1517  0.1907
11671W        W27805   5.230   0.299  13.778  0.3885  0.0813  0.0610
11672W        W27806   4.240   1.319   1.071 -0.0298 -0.2400 -0.2377
11673W        W27807  13.982   2.655  13.807 -0.3007  0.1753 -0.1133
11674W        W27808  13.366   3.345   4.040 -0.1810  0.1227  0.1335
11675W        W27809  16.948   7.905   1.008 -0.0208  0.0905  0.4249
11676W        W27810   7.418  17.265  11.188 -0.0727  0.0604  0.0123
11677W        W27811   9.500   9.571  14.561  0.3633 -0.4108  0.0107
11678W        W27812   2.813   4.099  10.468 -0.1254 -0.4961 -0.1947
11679W        W27813  15.304  19.009   2.265 -0.2839 -0.3446 -0.0314
11680W        W27814   4.893  12.469   3.253  0.1426  0.1212 -0.1082
11681W        W27815   4.759   2.567  14.281 -0.1793  0.1269  0.2825
11682W        W27816  18.261   5.650  14.829  0.0648 -0.0026 -0.2776
11683W        W27817  18.496  15.867   3.045 -0.2856  0.2756 -0.0282
11684W        W27818   7.355  11.788   3.200 -0.1335 -0.0539  0.2289
11685W        W27819   2.319  18.949   3.177 -0.2188 -0.0965  0.1346
11686W        W27820  11.559   6.525  14.888  0.7251  0.2757  0.4004
11687W        W27821  14.352  11.037   1.498 -0.4360  0.1025  0.0670
11688W        W27822   1.366   7.719  14.432  0.2198 -0.0169  0.1969
11689W        W27823   3.806   5.539   9.951  0.1137 -0.4744 -0.5083
11690W        W27824  10.371  18.720  13.360  0.1639  0.1004 -0.1262
11691W        W27825  18.160   5.325  11.658  0.1654 -0.2999 -0.2572
11692W        W27826   0.711   1.676   0.068 -0.0938  0.0963 -0.0629
11693W        W27827   0.508   2.546   9.792  0.0133 -0.1574 -0.0162
11694W        W27828   4.787   4.960   3.016  0.1699 -0.1733  0.1463
11695W        W27829   5.384   0.212   2.113  0.1155 -0.0276 -0.0028
11696W        W27830  12.962  13.944   0.045  0.2823 -0.2335 -0.4599
11697W        W27831  18.668  16.803  11.446  0.0618  0.0225  0.1205
11698W        W27832   8.446  16.043   1.097 -0.3089 -0.2445 -0.1592
11699W        W27833  14.915  18.658  14.946 -0.0943  0.0177  0.2192
11700W        W27834  15.537  16.162   3.233 -0.3964  0.3610 -0.0444
11701W        W27835  16.586  13.866   0.663  0.0415 -0.1028 -0.1714
11702W        W27836   0.159   6.141  12.666 -0.0952 -0.0134  0.1555
11703W        W27837  17.833  17.042   0.425 -0.3722 -0.1075  0.1694
11704W        W27838   6.806   7.640  10.709 -0.0645 -0.0165 -0.0004
11705W        W27839  18.986  15.249   8.887  0.3011 -0.1514 -0.1268
11706W        W27840   5.028  15.929   2.529  0.3072 -0.0177 -0.0380
11707W        W27841   6.975   7.463   2.613 -0.0461  0.2357 -0.2380
11708W        W27842  16.532   3.254  10.361 -0.0853 -0.2065  0.0372
11709W        W27843   1.347   6.849  14.820 -0.1617  0.1792 -0.0785
11710W        W27844  16.303  16.364  12.616  0.1784  0.1420 -0.1312
11711W        W27845  10.730   6.820   0.283  0.3750  0.1110 -0.2213
11712W        W27846  10.340   5.539   2.425 -0.1608 -0.0162 -0.2231
11713W        W27847  16.064   2.580  13.529  0.1519 -0.0993 -0.0590
11714W        W27848   3.767  12.208  13.852 -0.0512 -0.0976  0.1423
11715W        W27849   5.288   1.269   0.765 -0.4196  0.1537  0.0257
11716W        W27850   3.430   4.856  10.287 -0.0792  0.0531 -0.0622
11717W        W27851   8.618   1.388   0.390  0.3178  0.2170  0.2471
11718W        W27852  18.757  10.872  11.513 -0.2034  0.0236  0.0614
11719W        W27853   9.994  11.444  12.635  0.1262 -0.0155 -0.0985
11720W        W27854  13.373   6.532  14.428  0.2098 -0.3527 -0.0175
11721W        W27855  18.659  10.511  10.279  0.0489 -0.1123  0.1643
11722W        W27856   9.806  18.935   0.828 -0.0945  0.1642  0.0998
11723W        W27857  17.682  16.039  14.683  0.1469  0.0107  0.3635
11724W        W27858   5.807   6.684   9.937 -0.1278  0.0576 -0.2459
11725W        W27859   7.684  18.495   3.962  0.0906  0.0415  0.0036
11726W        W27860  17.849  12.104   9.623 -0.1345  0.3709 -0.2298
11727W        W27861  11.019  19.102  12.449  0.0752 -0.1103  0.1199
11728W        W27862   2.166   4.673   0.795 -0.0545  0.0159 -0.0783
11729W        W27863   4.362  17.954  13.718  0.1813 -0.0232  0.2532
11730W        W27864   1.140  14.191  14.827  0.2249  0.2621 -0.0488
11731W        W27865  11.002   6.526  14.926  0.3562 -0.1382 -0.0116
11732W        W27866   6.688  14.699  12.433 -0.1185  0.0846 -0.3149
11733W        W27867  18.256   9.849   0.800 -0.3301  0.2665 -0.0477
11734W        W27868  15.385  10.379   5.321  0.0355  0.1885  0.4338
11735W        W27869  18.800  12.362  10.084 -0.2041  0.4554 -0.4207
11736W        W27870   4.047   6.181   8.598 -0.2350  0.2070  0.1794
11737W        W27871  16.686   6.178   0.694 -0.1737  0.2007 -0.2527
11738W        W27872  12.248  12.963   1.598  0.3020 -0.0092  0.2261
11739W        W27873   1.776   9.273   2.892  0.0604  0.1650  0.1078
11740W        W27874  19.010  16.157   2.727  0.0730  0.2680  0.1757
11741W        W27875  16.640   1.934  12.228  0.0877  0.1707 -0.2623
11742W        W27876   9.931  11.439  13.253  0.0033  0.2776 -0.0362
11743W        W27877  13.499  17.644   5.523 -0.0300  0.0369 -0.1780
11744W        W27878   3.562   9.463   4.012 -0.0685  0.0554  0.1361
11745W        W27879   0.108   0.260  10.571  0.1249  0.1714  0.2682
11746W        W27880   7.107  15.594   5.331 -0.0233 -0.3809  0.0472
11747W        W27881  15.029  12.918   2.585  0.0022 -0.2230 -0.2317
11748W        W27882  18.882  18.932   4.788 -0.1630  0.1425  0.2560
11749W        W27883  14.316   2.488  14.330  0.3079  0.1463  0.2019
11750W        W27884  11.974  14.999  12.579 -0.1585 -0.1324 -0.0790
11751W        W27885  15.741   3.823  14.510  0.1292 -0.4255  0.1260
11752W        W27886  13.169  17.132   4.328 -0.2302 -0.3612 -0.2588
11753W        W27887   6.686  12.916   1.861  0.5615  0.1005  0.0770
11754W        W27888   3.774  14.953   1.441 -0.1201  0.1416 -0.0676
11755W        W27889   0.270  15.089   3.227 -0.1690  0.5130  0.0050
11756W        W27890  11.674   6.169  12.924 -0.0436 -0.0115 -0.0769
11757W        W27891   6.619  13.357   1.595  0.1002  0.3614 -0.0383
11758W        W27892   8.869  12.441   2.693  0.1627  0.0050  0.0109
11759W        W27893  14.142   4.289   2.499 -0.2043 -0.3059 -0.0053
11760W        W27894  15.168  16.832   4.018  0.1779  0.1604  0.0751
11761W        W27895  16.259   7.378  11.563 -0.1397  0.1318 -0.4734
11762W        W27896   2.108   4.938   3.495 -0.1445 -0.1020  0.1352
11763W        W27897   8.910  15.207  13.571  0.1289 -0.3279 -0.3277
11764W        W27898   1.652   8.238   1.696 -0.0558 -0.0086  0.2750
11765W        W27899  11.239  11.134   1.098  0.0607  0.0466  0.1179
11766W        W27900  19.001  16.994   0.929  0.1234 -0.0014 -0.0644
11767W        W27901   5.237  17.380  13.980  0.2798 -0.1709 -0.0033
11768W        W27902   6.486   1.828  12.150  0.1582 -0.2295  0.2147
11769W        W27903  12.107   9.930  12.974 -0.1159  0.2244 -0.0196
11770W        W27904   1.915   1.270   1.310  0.2729  0.0102  0.1656
11771W        W27905  13.071   2.861   3.938  0.1932  0.0532  0.0313
11772W        W27906   0.773  17.259   1.304  0.0842 -0.0966  0.1562
11773W        W27907   1.575   9.325   3.792  0.2590 -0.0840 -0.3325
11774W        W27908   5.437  11.350   1.329  0.3972  0.0783  0.0296
11775W        W27909  12.222   6.035   3.941 -0.1791  0.2742  0.1406
11776W        W27910   9.421   4.186  10.870  0.0486  0.1612 -0.0968
11777W        W27911  14.427   1.442  12.498 -0.3580 -0.0326  0.1320
11778W        W27912   8.002   8.772   0.878  0.1603  0.0619  0.2242
11779W        W27913  15.858   5.620   9.292  0.1075  0.0952 -0.0818
11780W        W27914  10.080  15.500  14.449 -0.2304  0.2409  0.0117
11781W        W27915   8.455  16.010   2.849  0.0324  0.1193 -0.1198
11782W        W27916  16.386  13.721  10.329  0.1555  0.0876 -0.1903
11783W        W27917   5.231   7.078  12.383 -0.0402  0.1542 -0.0729
11784W        W27918   0.402   4.767  13.995 -0.0049 -0.1399 -0.0162
11785W        W27919   7.824  11.360  13.435 -0.1289  0.2584  0.1027
11786W        W27920   2.516   0.635   1.011  0.0230  0.3684 -0.2634
11787W        W27921   8.944  15.080  10.387 -0.0749 -0.0209 -0.0418
11788W        W27922  17.214   9.025   1.981 -0.3002 -0.1863 -0.1014
11789W        W27923  19.251   0.369  13.742 -0.0184 -0.1377 -0.2252
11790W        W27924   7.671   3.173  10.397 -0.0841 -0.0305  0.3357
11791W        W27925   3.512   2.201   2.861  0.1456  0.0238  0.1791
11792W        W27926  16.621   6.056  11.396 -0.1991 -0.4101 -0.2255
11793W        W27927  15.183  14.343   0.923 -0.0121 -0.0250 -0.0703
11794W        W27928   1.141  11.001  11.791  0.0589  0.3753  0.2284
11795W        W27929  16.275  14.061   1.770  0.2303 -0.1376  0.0406
11796W        W27930   2.115  18.742   4.705  0.0663  0.0854  0.1288
11797W        W27931  15.921  17.439   0.579  0.1621 -0.1313  0.0592
11798W        W27932   0.651  10.477  14.410 -0.0472  0.1035  0.1317
11799W        W27933   3.311   2.154   8.964 -0.1703  0.3203 -0.0625
11800W        W27934   0.706   6.437  11.747  0.1286  0.3084  0.0870
11801W        W27935  10.895   2.299  13.896 -0.0659 -0.4367 -0.1183
11802W        W27936  13.533  15.094   2.112 -0.3323  0.1257 -0.2233
11803W        W27937  16.575   1.785   0.553 -0.0370  0.0853 -0.3003
11804W        W27938   3.949  14.665  14.582  0.4096  0.0022 -0.1773
11805W        W27939  15.150  12.121  10.248  0.1474 -0.1457  0.0609
11806W        W27940   5.469   6.396  11.241  0.0281 -0.0157  0.1843
11807W        W27941   2.691   0.729  10.777  0.0105 -0.2365 -0.1606
11808W        W27942  18.936  12.197  12.105  0.2572  0.0528 -0.1295
11809W        W27943   8.797  11.223   2.115  0.2941 -0.3080  0.1600
11810W        W27944   7.751  12.017   2.129  0.0736  0.2722 -0.0255
11811W        W27945   5.687   6.047   5.081  0.0967 -0.1571 -0.0399
11812W        W27946  14.108  18.887   0.235 -0.2415 -0.0891  0.1927
11813W        W27947   0.903  18.648  13.037  0.2959 -0.1936  0.2270
11814W        W27948  12.433  12.633  14.319 -0.2557  0.2367  0.0490
11815W        W27949  15.898  14.129   2.574  0.2051 -0.2847  0.2163
11816W        W27950   8.289  12.887   1.070  0.2081 -0.1472 -0.0604
11817W        W27951   9.853  15.999  13.595  0.3120  0.2235 -0.1863
11818W        W27952  16.155  12.212   3.097 -0.0094  0.0495 -0.3519
11819W        W27953   7.949  13.914   1.893 -0.1626  0.2245 -0.1204
11820W        W27954  17.987  16.301  13.370  0.3461 -0.0350 -0.1175
11821W        W27955   6.463   0.610   3.606 -0.0446  0.0580 -0.0524
11822W        W27956   9.780   8.821  10.244  0.1161 -0.1309  0.0844
11823W        W27957   4.653  16.962   3.186 -0.0961 -0.0831 -0.0707
11824W        W27958   4.703   6.346  14.584  0.0240  0.2044 -0.1146
11825W        W27959   2.933   7.570  10.505 -0.1121  0.3244 -0.2384
11826W        W27960   5.360   4.658  14.061  0.0781 -0.1059 -0.0026
11827W        W27961  14.124   3.632   0.436  0.2636  0.1427  0.3436
11828W        W27962  16.634  19.106   0.255 -0.2281  0.2446  0.0164
11829W        W27963   3.495  16.477   0.145  0.1404  0.1839 -0.0423
11830W        W27964  18.363  17.196   3.924  0.0471 -0.1821  0.1027
11831W        W27965   9.539   0.072   3.441 -0.0678  0.3815  0.1929
11832W        W27966  15.491   5.624   1.011  0.5624 -0.0677  0.2456
11833W        W27967   5.997   1.201  11.514 -0.0672 -0.0467  0.1203
11834W        W27968   3.873  17.723  13.607  0.3007 -0.1968 -0.0206
11835W        W27969   5.401  16.983  13.549 -0.0232 -0.0449 -0.2266
11836W        W27970   4.725  18.002   5.081  0.6095  0.3059 -0.0691
11837W        W27971   0.471  15.783   0.233 -0.0114 -0.0341 -0.3327
11838W        W27972   8.091   5.812   4.804  0.4198  0.3297 -0.1562
11839W        W27973  10.008  18.507   3.528  0.2499 -0.0290  0.0419
11840W        W27974   4.392   9.791  13.311  0.1508 -0.1622  0.1640
11841W        W27975   5.894   1.483   4.412 -0.0180  0.3068 -0.0714
11842W        W27976  16.578   6.737  10.677 -0.1812 -0.2928 -0.0064
11843W        W27977  11.301  18.206  13.486 -0.0421 -0.5044 -0.3279
11844W        W27978   4.566  12.692   4.262  0.0160 -0.0672  0.2267
11845W        W27979  14.236   7.586  10.668 -0.0289  0.0349  0.2906
11846W        W27980  19.326   7.014  13.834  0.0089  0.2133  0.1258
11847W        W27981  16.841  16.896   9.810 -0.0600 -0.1550  0.4727
11848W        W27982   0.536   0.141   2.208  0.0235  0.3138  0.1234
11849W        W27983   7.578  12.271   1.553  0.0695 -0.5156  0.1412
11850W        W27984  10.623  10.770  14.541 -0.0815  0.0541  0.0418
11851W        W27985  11.509   6.463   2.831 -0.0161  0.0133 -0.1950
11852W        W27986   3.794   1.359   4.722  0.4036 -0.0738 -0.1119
11853W        W27987   0.723   2.245   2.382  0.1810  0.0290 -0.0049
11854W        W27988   2.301   3.431   3.904  0.0399 -0.0733 -0.0596
11855W        W27989  19.184   8.519   4.907 -0.2669  0.0688 -0.0673
11856W        W27990   7.313  16.678   5.355  0.2234 -0.2077  0.2777
11857W        W27991  15.407  11.198  12.778 -0.1315 -0.0590 -0.3611
11858W        W27992   7.550   6.556   1.134  0.0769  0.1140 -0.0882
11859W        W27993  16.570  15.470   3.633 -0.4372  0.1768  0.3491
11860W        W27994   9.823  17.564   0.680  0.0011 -0.1078  0.2838
11861W        W27995   2.197   4.762   3.045  0.2046  0.2833  0.0624
11862W        W27996  19.284  11.617   0.999 -0.1620 -0.1130 -0.1054
11863W        W27997  18.673   3.468   4.999 -0.3953 -0.2746 -0.1768
11864W        W27998  10.099  12.906   0.591 -0.1960 -0.1775  0.1965
11865W        W27999  17.759  14.892   4.527 -0.3042 -0.2092  0.0483
11866W        W28000  18.266   7.599  13.145  0.0099 -0.0445  0.1529
11867W        W28001   3.349  16.694  12.877  0.2583 -0.2876 -0.0013
11868W        W28002   3.577  15.010  12.191 -0.0886 -0.0094 -0.3667
11869W        W28003   0.939   0.109   1.316 -0.1477 -0.1242  0.3077
11870W        W28004  13.913   5.266  11.105  0.2016  0.0928  0.0514
11871W        W28005   1.772   3.551  10.307 -0.0427  0.4560  0.1549
11872W        W28006   0.055  17.304  10.092  0.1080  0.0117  0.4769
11873W        W28007   8.605   5.137  11.972  0.0549  0.3043  0.0504
11874W        W28008  15.933   3.823  11.780 -0.1155 -0.1227 -0.2745
11875W        W28009  12.521  15.547  11.434 -0.1725  0.4749  0.0702
11876W        W28010   4.807  13.108  13.880 -0.0364 -0.0800 -0.0036
11877W        W28011   4.563   9.085  13.305  0.1198  0.3489 -0.0587
11878W        W28012   2.795   9.238   1.949 -0.2780 -0.1352 -0.0990
11879W        W28013  18.245  17.537  13.117 -0.1872 -0.1471  0.2364
11880W        W28014  11.446   4.045  11.657  0.1757  0.0945 -0.0309
11881W        W28015  17.910  11.600   2.330 -0.0646 -0.1738  0.4753
11882W        W28016  16.764   9.788  10.443 -0.2785 -0.4462  0.0412
11883W        W28017  18.422  18.086  11.512  0.1654 -0.1014 -0.1633
11884W        W28018   7.515   8.840  12.396  0.1085 -0.3401  0.2305
11885W        W28019   6.968  17.076   2.652  0.0422  0.1376 -0.1664
11886W        W28020  13.510  11.223  10.637 -0.2374  0.0269  0.4448
11887W        W28021   4.511  13.146   2.460 -0.1100 -0.2006  0.0958
11888W        W28022  17.917   6.337   4.955 -0.1343  0.1934 -0.0948
11889W        W28023   6.833  18.720   1.606  0.0585 -0.5138 -0.1941
11890W        W28024  14.961   5.209  11.416 -0.0868  0.1538  0.0648
11891W        W28025  15.576  18.880   4.503  0.0029 -0.0024 -0.1743
11892W        W28026  12.645   2.259   2.357  0.0842 -0.0043 -0.0588
11893W        W28027  11.495   7.976  10.806  0.1512 -0.0355 -0.0678
11894W        W28028   9.163   8.611   5.132 -0.3467 -0.0148 -0.2044
11895W        W28029  14.924  18.477   3.504 -0.0642  0.0718 -0.0587
11896W        W28030  16.459  12.476  13.926 -0.3174 -0.0904  0.1646
11897W        W28031  16.870   5.434   2.203 -0.0686 -0.1648 -0.0401
11898W        W28032  13.212   1.073   4.683 -0.1771  0.2993  0.0564
11899W        W28033  12.448  10.288   3.970  0.0784  0.0385 -0.0091
11900W        W28034  10.395   0.976  14.421  0.0239  0.2679  0.0114
11901W        W28035   5.715  19.238  12.863 -0.1320 -0.1921  0.0751
11902W        W28036   3.260   8.708   2.193  0.1120 -0.2705  0.2518
11903W        W28037  18.887   4.952  10.533 -0.1001  0.0721  0.1553
11904W        W28038  13.026  14.752   1.012 -0.2422 -0.1740  0.1088
11905W        W28039   6.243  13.035   1.486  0.2328 -0.1590  0.0596
11906W        W28040   4.777  18.473   0.477 -0.1700 -0.4068 -0.2392
11907W        W28041  11.239   4.085  12.158  0.3988  0.0523 -0.2285
11908W        W28042   8.159   0.147   1.094  0.1262 -0.0178 -0.0725
11909W        W28043   8.543   0.197   2.491 -0.3120  0.0847 -0.3151
11910W        W28044   2.466  18.194  11.887 -0.0608  0.0943  0.0394
11911W        W28045   1.437  11.882   2.420  0.1584  0.0800  0.3602
11912W        W28046  10.795   7.983   3.859 -0.0151  0.0175  0.1586
11913W        W28047   0.159   6.070   0.886  0.2593 -0.0414  0.2363
11914W        W28048  17.900  11.595  10.556  0.1647 -0.1097  0.1494
11915W        W28049  10.259   5.108   1.547  0.3012  0.1233  0.1817
11916W        W28050   6.544   8.018   1.328  0.2196  0.1488  0.1903
11917W        W28051  16.584   9.941   4.235  0.0488 -0.3511  0.1216
11918W        W28052  14.572   1.537  13.793 -0.2951  0.1972 -0.0116
11919W        W28053   5.480   5.673  13.172  0.2350  0.2429  0.0169
11920W        W28054  16.446   9.973  14.239 -0.1186 -0.0087  0.1108
11921W        W28055  14.369   7.930  14.485 -0.2488  0.2028 -0.0266
11922W        W28056  14.473   1.587   0.938  0.0075  0.2122  0.1799
11923W        W28057   9.900   2.193  11.597  0.2595 -0.1612  0.1592
11924W        W28058  12.203  19.349   2.011  0.0048  0.1614 -0.4198
11925W        W28059   1.513  12.372  11.547 -0.0779  0.1559 -0.0610
11926W        W28060   5.790  12.234  14.183 -0.1703 -0.1864 -0.3163
11927W        W28061   4.907   4.910  13.892  0.0728 -0.2849  0.0491
11928W        W28062   4.106  15.190   2.914  0.2054 -0.0848  0.0828
11929W        W28063   5.482   9.713  11.424 -0.2712 -0.3121 -0.2539
11930W        W28064   8.543   5.678  14.215 -0.3011 -0.0115 -0.0025
11931W        W28065   7.321  11.963  13.264  0.0490 -0.0786 -0.0369
11932W        W28066   2.330  16.776   3.263 -0.0663 -0.2561 -0.0284
11933W        W28067  14.886  17.897  13.944  0.0547  0.0041  0.3487
11934W        W28068   6.803   8.998  11.905  0.2883  0.3267 -0.3553
11935W        W28069  11.520  11.893  13.762 -0.0003  0.0455  0.0840
11936W        W28070  18.147  15.471  10.616 -0.1491  0.1326 -0.0082
11937W        W28071   4.620   8.907   2.948  0.2560  0.0897 -0.0206
11938W        W28072  14.169   6.610  11.644 -0.4152 -0.0014  0.0545
11939W        W28073   4.335  11.130   4.065  0.1323 -0.0861  0.2041
11940W        W28074  10.006   8.121  14.236  0.1567  0.1633  0.0048
11941W        W28075  11.038  10.180  10.791 -0.0741 -0.4016  0.0154
11942W        W28076  16.787   8.668   1.316 -0.0060 -0.1097  0.0302
11943W        W28077   6.276   1.366  10.325  0.1432 -0.0041  0.2697
11944W        W28078   3.735   7.800   3.252  0.2620 -0.0592 -0.0145
11945W        W28079   2.916   8.137   3.664  0.3062  0.1500 -0.3923
11946W        W28080  16.718  11.391   0.860  0.3222 -0.2382  0.0765
11947W        W28081  11.051  12.668   4.331  0.0078 -0.1944 -0.1731
11948W        W28082   5.129   3.807  11.497  0.0961  0.0357  0.1840
11949W        W28083   0.658   7.859  11.330  0.0345 -0.1007  0.0804
11950W        W28084  17.506   9.471  10.901  0.0442 -0.1293  0.0259
11951W        W28085  10.044   6.990  11.222 -0.2855  0.5035  0.1595
11952W        W28086  14.173  17.716   5.151  0.2229 -0.3326  0.2836
11953W        W28087  17.361  15.710  13.459  0.1445 -0.0044  0.3789
11954W        W28088  10.408  16.221   4.929 -0.0361  0.1356  0.3387
11955W        W28089  18.798   0.215   1.496 -0.0236 -0.0818 -0.3757
11956W        W28090   9.650   4.890  12.890  0.1716 -0.1579 -0.0935
11957W        W28091  18.253   0.606   1.933  0.0540 -0.1263 -0.0809
11958W        W28092  12.639   0.073   2.209 -0.6293 -0.0548  0.3418
11959W        W28093  19.197  16.605  11.008  0.2554 -0.0397 -0.0474
11960W        W28094  18.778   1.529   1.968 -0.0263  0.0683 -0.0685
11961W        W28095   0.921   7.489  11.023 -0.0429 -0.5859 -0.0256
11962W        W28096   0.510   0.516  13.102  0.3982  0.3507  0.0002
11963W        W28097  12.728   1.375   0.421 -0.3199  0.0393 -0.0123
11964W        W28098   5.184   6.231   2.528  0.4197  0.0569  0.0056
11965W        W28099  16.069  16.174  14.054  0.1179 -0.2542  0.2444
11966W        W28100   8.982  12.614   2.215 -0.0393  0.1427  0.3253
11967W        W28101   6.744   8.201  12.281  0.2739  0.0836  0.0036
11968W        W28102  13.206  14.937  11.918  0.1186 -0.2989 -0.2962
11969W        W28103  16.892  17.240   0.887  0.0857 -0.0327 -0.2811
11970W        W28104  17.515   2.632   3.843 -0.3105  0.2551 -0.0321
11971W        W28105  18.395  10.829   5.255  0.2833  0.1088 -0.3287
11972W        W28106  18.140   7.149   5.013 -0.3324  0.2010  0.1638
11973W        W28107   0.068   9.708  14.042  0.1456 -0.0548  0.3030
11974W        W28108  14.449  15.422   4.159 -0.1319 -0.2001  0.0651
11975W        W28109   3.382  10.390   2.291 -0.1532  0.0695 -0.0816
11976W        W28110   8.432  11.147  11.670 -0.2194 -0.3319 -0.1368
11977W        W28111  16.403  14.745  10.176 -0.1408  0.1309 -0.0221
11978W        W28112   3.733   3.601  11.759  0.1884 -0.0257  0.3761
11979W        W28113  17.487  14.356   1.973  0.1281  0.2053  0.1441
11980W        W28114   9.609   7.804   0.564  0.0764  0.1037  0.1323
11981W        W28115  14.164   9.482   5.477  0.0798  0.1497  0.0999
11982W        W28116  19.299  11.204   2.435  0.0768 -0.0186  0.1983
11983W        W28117  14.159  15.998  13.095  0.2297  0.0772 -0.3156
11984W        W28118   2.502   6.719  13.901 -0.1370  0.3121 -0.0263
11985W        W28119   1.728   3.444  11.761  0.1049 -0.0781  0.2213
11986W        W28120  10.652   0.095   1.755 -0.0218 -0.1556  0.2382
11987W        W28121  11.072   7.175   4.877 -0.0426 -0.0272  0.3399
11988W        W28122   2.957   1.914  11.369  0.2258 -0.1676  0.2305
11989W        W28123   4.087  17.054  11.882  0.1094  0.0563 -0.1061
11990W        W28124   3.986  14.438  10.706  0.0139 -0.0550  0.0228
11991W        W28125  12.803   6.395   5.657 -0.1581 -0.0415 -0.0204
11992W        W28126   8.673   4.710  10.535 -0.2501 -0.0775 -0.0976
11993W        W28127   5.508   4.577  10.772 -0.3633 -0.0565  0.0641
11994W        W28128   6.618   3.185  13.283  0.1991  0.0189 -0.0091
11995W        W28129  10.466   8.290  11.957  0.0110 -0.2978  0.1759
11996W        W28130  18.066  13.382  14.777  0.2930 -0.2470  0.0630
11997W        W28131   2.973   5.295  12.649  0.4846  0.0085  0.2712
11998W        W28132  11.722  17.946   0.557  0.1965 -0.2408 -0.0019
11999W        W28133   4.674   1.990   1.353  0.2833 -0.1231 -0.1702
12000W        W28134  15.379   0.268   4.074  0.0884  0.1068 -0.0441
12001W        W28135   2.873   1.146  13.702 -0.2984 -0.2217 -0.1136
12002W        W28136  11.630   1.365   2.452 -0.2957  0.0174  0.0424
12003W        W28137   2.533  12.463   1.427  0.2929 -0.3851  0.1447
12004W        W28138  16.361   9.735   9.654  0.1475 -0.3878  0.0270
12005W        W28139   7.434  16.511   1.407 -0.0123 -0.3336  0.1274
12006W        W28140   4.972   8.814  12.149  0.0941  0.0620  0.2067
12007W        W28141   3.378  17.606  14.610 -0.1875 -0.0066  0.0737
12008W        W28142   0.324   2.970  14.679 -0.1023  0.1135  0.0001
12009W        W28143   4.555   8.456   2.058 -0.0717 -0.1538  0.1640
12010W        W28144   0.911  10.525   1.343  0.2101 -0.1719 -0.0537
12011W        W28145  17.798   5.197  14.149 -0.4939  0.4346  0.0237
12012W        W28146   3.675  12.012   1.448  0.1513  0.2912 -0.0824
12013W        W28147  13.216   4.163   3.330 -0.2791 -0.3932 -0.0076
12014W        W28148   8.066  18.705  13.880 -0.1518 -0.4444 -0.0141
12015W        W28149  15.633   2.782  14.501 -0.4308 -0.3163 -0.0823
12016W        W28150   1.162  12.848   1.705  0.1741 -0.0791 -0.1080
12017W        W28151  11.677  11.649  10.830  0.0627 -0.1119  0.1264
12018W        W28152  13.944   3.664  10.864  0.1454 -0.2605 -0.0492
12019W        W28153  17.003  11.586  12.973 -0.1272  0.0768  0.0529
12020W        W28154   9.753  11.613   2.766  0.0720  0.1727  0.1789
12021W        W28155   3.095  10.671   1.015 -0.0493  0.3262 -0.2323
12022W        W28156   3.569   6.886  14.682 -0.1400 -0.0081 -0.1427
12023W        W28157   3.794   9.009  13.807  0.1132 -0.0177  0.0252
12024W        W28158  14.958   8.840   5.208 -0.0005 -0.0777  0.0613
12025W        W28159   3.794  17.792  11.236  0.0711 -0.0973 -0.0962
12026W        W28160  14.326  11.204  11.017  0.0771  0.4322 -0.1411
12027W        W28161   5.867   5.808  14.274 -0.2295 -0.1086  0.1535
12028W        W28162   9.110  17.725   2.319  0.0134  0.2153 -0.0166
12029W        W28163   3.772   1.782   0.792  0.2324  0.1146  0.0055
12030W        W28164  18.590  17.760  11.112  0.0776  0.1562 -0.0766
12031W        W28165  13.891  14.334  11.882  0.0175 -0.2778 -0.3052
12032W        W28166   1.764  14.099  11.730  0.2761 -0.1984  0.2613
12033W        W28167  10.213  16.958   0.911 -0.0359  0.0337 -0.2170
12034W        W28168   8.908   1.433   3.577  0.0049  0.2706 -0.0052
12035W        W28169   4.474   5.343   1.177 -0.1529  0.2555  0.0873
12036W        W28170  13.311   7.537   0.416 -0.2700  0.2743 -0.0089
12037W        W28171   6.811   2.562   1.465 -0.2647 -0.1537  0.0444
12038W        W28172   3.575  11.178  10.898  0.2027  0.0376  0.4237
12039W        W28173  19.029  14.964  14.328 -0.0669  0.1451  0.3569
12040W        W28174   4.107   1.703  11.645  0.0375  0.0472 -0.0077
12041W        W28175   8.363   0.811  14.868 -0.1849 -0.2720  0.1171
12042W        W28176  14.931  17.357  10.357 -0.3147  0.2238 -0.0869
12043W        W28177   9.405  16.532  10.148 -0.0658 -0.3896 -0.0447
12044W        W28178   5.342   9.926  14.281 -0.3968  0.3942  0.2244
12045W        W28179   2.988  17.431  10.857  0.0768  0.2923  0.3239
12046W        W28180  12.499  15.700   2.249 -0.4460 -0.1385  0.0264
12047W        W28181  13.935  10.390   0.265  0.5438 -0.1353 -0.1986
12048W        W28182  17.608   5.619  14.013 -0.2681 -0.1036 -0.0994
12049W        W28183   5.606  12.844   3.037  0.1336  0.0873 -0.0527
12050W        W28184   3.230  14.761  13.581 -0.0857  0.0943  0.2644
12051W        W28185  18.851   1.360   3.347 -0.0001  0.2145  0.2869
12052W        W28186  14.697   8.540  13.466  0.3638 -0.3932 -0.0453
12053W        W28187  10.649  17.047  11.600 -0.0347  0.0430  0.0295
12054W        W28188   1.121  16.148   3.646 -0.0689 -0.0426  0.1367
12055W        W28189  13.886   0.062  14.031 -0.2449  0.0033 -0.1145
12056W        W28190  12.544   6.044   3.544  0.0352  0.1300 -0.1590
12057W        W28191  13.143  13.015  14.590  0.2892 -0.4741 -0.0515
12058W        W28192   0.182  16.848  13.103  0.0030  0.1862 -0.1014
12059W        W28193   9.296   5.190  10.872 -0.2573 -0.0035  0.0656
12060W        W28194   6.452  10.096  12.672 -0.4251  0.0289 -0.3604
12061W        W28195  15.253  14.252  11.594  0.0866 -0.3492  0.0349
12062W        W28196  18.298   0.250   0.345 -0.4487  0.1785 -0.0226
12063W        W28197  17.136   6.999   3.179  0.0806 -0.2249 -0.3352
12064W        W28198  16.659  17.848   0.093 -0.0124 -0.0380  0.0562
12065W        W28199   0.473  11.188  12.403 -0.4325  0.0807 -0.1852
12066W        W28200  11.163   8.787  12.373 -0.0032 -0.0358  0.3327
12067W        W28201  12.233  16.135   3.939 -0.0664  0.1361  0.1945
12068W        W28202   8.303   6.636   1.236 -0.0671 -0.4098 -0.0390
12069W        W28203  15.917  18.348   2.314 -0.2589 -0.0228 -0.1021
12070W        W28204   1.313   0.468   0.576 -0.2158  0.0506  0.0377
12071W        W28205  19.301  16.138   3.130  0.3510  0.0654  0.1808
12072W        W28206   6.870  11.475  12.109 -0.0570  0.0838  0.0517
12073W        W28207  17.008  17.230   2.327 -0.6128  0.4245 -0.0561
12074W        W28208  17.568   3.576   1.315  0.3098 -0.0084 -0.0751
12075W        W28209   0.216  14.666  14.834 -0.1860  0.2299 -0.3525
12076W        W28210  10.934  14.885   2.328  0.3249 -0.1372  0.0168
12077W        W28211  10.745  17.309  12.582  0.1984  0.2285  0.1512
12078W        W28212   1.136   2.301  14.634 -0.0073  0.3734 -0.0778
12079W        W28213   9.960   1.938  14.269  0.1125 -0.1131  0.2346
12080W        W28214  15.298  15.997  12.363 -0.0484 -0.0077 -0.0482
12081W        W28215   2.811   5.342  14.107  0.0636  0.4266  0.2610
12082W        W28216   6.122   0.003   2.654 -0.1159 -0.1110 -0.0186
12083W        W28217   9.409   8.443   9.555  0.3191 -0.2010 -0.0713
12084W        W28218  11.013  11.971   1.487  0.2515  0.1554 -0.0202
12085W        W28219   9.144   7.649   2.947 -0.2390  0.0456  0.0836
12086W        W28220  13.730  15.585   3.938  0.1032  0.0296  0.1400
12087W        W28221   7.292  13.465   2.420 -0.0497  0.0202 -0.1498
12088W        W28222   0.360  18.256   0.335 -0.0413 -0.1804 -0.0762
12089W        W28223   1.124   0.165  13.542  0.0554  0.0385 -0.2405
12090W        W28224  18.661   6.978  13.164  0.1460  0.2034  0.0647
12091W        W28225  10.331  13.208   5.566 -0.1157 -0.0656  0.2385
12092W        W28226  16.388   9.554  12.559 -0.1152 -0.3627  0.0829
12093W        W28227   9.890  18.889   1.840 -0.4599 -0.2441 -0.0806
12094W        W28228   9.951  12.545   0.281 -0.2497 -0.0585  0.0085
12095W        W28229   0.997   8.982  14.481 -0.2005  0.2549 -0.3836
12096W        W28230   5.131  18.800   0.296 -0.1162  0.1807  0.0734
12097W        W28231  17.713   8.761   0.231 -0.0550  0.0425  0.0229
12098W        W28232   0.216  11.445   2.832  0.1469  0.2377 -0.1580
12099W        W28233   8.922  13.092  14.245  0.0351 -0.0270 -0.0206
12100W        W28234  16.576   2.809   0.545 -0.0334  0.0086  0.0463
12101W        W28235  17.695   8.662  10.700  0.1210 -0.1089  0.1828
12102W        W28236   7.585   4.428   2.018  0.0096  0.1240  0.0811
12103W        W28237   5.539  19.260   2.606  0.2313  0.1046 -0.1880
12104W        W28238   5.321   8.128   2.634 -0.1779  0.0518 -0.1316
12105W        W28239  19.095  10.015   2.236  0.0023 -0.0011 -0.0142
12106W        W28240   1.694  12.751  14.796 -0.0891 -0.2280 -0.4533
12107W        W28241  14.682  13.286   2.587 -0.1254  0.1820  0.2258
12108W        W28242   7.794  19.307  12.554 -0.2935 -0.0414 -0.3112
12109W        W28243  16.840  18.287  12.902  0.1439 -0.1207  0.1314
12110W        W28244   4.840   4.282   2.227  0.0527 -0.0353 -0.0649
12111W        W28245  10.052   2.647   0.787 -0.1911 -0.0874 -0.0801
12112W        W28246   2.405   6.535   1.091 -0.0354  0.1417  0.2804
12113W        W28247   2.596   8.983  14.161 -0.4379 -0.0679 -0.1337
12114W        W28248   4.940  10.899  11.059 -0.0782 -0.1918  0.1027
12115W        W28249   0.513   6.348   2.863  0.5934  0.1134  0.2382
12116W        W28250  15.666  10.266   2.268  0.1089  0.3270  0.2634
12117W        W28251   7.083  12.942   5.745  0.2745  0.0907  0.0490
12118W        W28252   2.835  16.119   1.603 -0.0218  0.3608  0.2035
12119W        W28253  15.592   7.967  12.709  0.0880  0.0793 -0.2495
12120W        W28254  12.489  15.581  14.677 -0.0405  0.0593 -0.1077
12121W        W28255   8.829  18.087  13.842 -0.1420 -0.5059  0.0110
12122W        W28256  17.956   3.858   1.593  0.2505 -0.1029 -0.0001
12123W        W28257   7.049   1.851   9.997 -0.1073 -0.0819  0.5085
12124W        W28258  11.767   9.851  10.271  0.1972  0.3627 -0.0426
12125W        W28259   0.858  14.292   4.037  0.4302  0.2997  0.2302
12126W        W28260   5.181   3.294  11.801 -0.0095  0.0722 -0.1656
12127W        W28261  19.239  16.862  11.450 -0.3690  0.3030 -0.0834
12128W        W28262  15.488   5.479   2.299  0.2013  0.2323 -0.2462
12129W        W28263  14.298  19.242  11.494  0.0265 -0.0816  0.1694
12130W        W28264   1.733  18.191  11.603  0.1771 -0.1877 -0.0302
12131W        W28265   6.324  16.997   0.210 -0.1324  0.1247  0.2569
12132W        W28266  18.478   3.239   5.554  0.2255 -0.1409  0.3217
12133W        W28267   6.472  19.329  14.208  0.0407 -0.1276  0.1076
12134W        W28268   9.589   4.408  11.363 -0.0981  0.3934  0.0932
12135W        W28269   4.918  17.424   4.874 -0.1240 -0.0328  0.5418
12136W        W28270  12.250  16.912   4.409  0.0478 -0.3432 -0.0809
12137W        W28271  10.544  18.858   4.052  0.3635  0.2823  0.0538
12138W        W28272   9.950   3.945  10.802  0.0245 -0.1185  0.4225
12139W        W28273  16.773   0.933   4.530 -0.3844  0.3178 -0.0611
12140W        W28274  17.875   1.482   0.432 -0.3427  0.0527 -0.0684
12141W        W28275  10.154   8.532   1.242 -0.3201  0.5034  0.2073
12142W        W28276   4.989   7.664   0.125 -0.1755  0.2461 -0.0949
12143W        W28277   3.284  13.628   1.754  0.0595 -0.3943 -0.3657
12144W        W28278  10.455   9.275   4.395  0.4167  0.1208 -0.1261
12145W        W28279  16.855  12.054   4.547  0.0483 -0.1286  0.0056
12146W        W28280  12.577   5.647  11.112 -0.1046 -0.2346 -0.0036
12147W        W28281   4.260  10.922  13.534 -0.3114 -0.1487 -0.0975
12148W        W28282   3.691  16.812  12.021 -0.0661  0.4894  0.3707
12149W        W28283   3.372   7.152   1.192  0.0063 -0.0689 -0.0174
12150W        W28284  13.775   5.592  12.039  0.0490 -0.0471  0.3183
12151W        W28285  12.017   4.293   4.913  0.1448  0.4152 -0.0477
12152W        W28286  15.033   9.225   2.237  0.0625  0.0727 -0.1078
12153W        W28287  14.624  15.471   5.155  0.0321 -0.0432 -0.0146
12154W        W28288   5.952  10.610  14.645 -0.2651  0.2074  0.2400
12155W        W28289  12.264   1.515   4.467  0.1430  0.1123 -0.3377
12156W        W28290  16.301   5.709  14.514  0.1090  0.1097  0.3325
12157W        W28291  11.479  13.147   1.350  0.1299 -0.0273  0.3618
12158W        W28292   8.438  17.960   3.174  0.0915 -0.1936  0.0037
12159W        W28293  16.689   6.523  13.559  0.1161  0.0866  0.2771
12160W        W28294   7.346  13.246   2.865 -0.2502  0.0582 -0.1248
12161W        W28295   6.122   0.170   3.962  0.0553  0.2461 -0.5515
12162W        W28296   2.496   0.252  14.925 -0.0393 -0.1795 -0.2221
12163W        W28297   5.435  12.613   1.069  0.3666  0.0943  0.1459
12164W        W28298   7.930   9.362  13.494 -0.2617  0.1053  0.5466
12165W        W28299   4.063   6.749  12.380 -0.0886  0.0009 -0.0050
12166W        W28300  16.950   1.558  13.142 -0.2962 -0.0876 -0.3434
12167W        W28301  18.771  11.586   3.224  0.2781  0.1526  0.1541
12168W        W28302   5.597  16.497   3.254  0.1576 -0.2407  0.0766
12169W        W28303   0.584  10.663   4.004  0.1374 -0.1365  0.1825
12170W        W28304  16.070  12.349   0.163  0.3261  0.0547 -0.1253
12171W        W28305   0.514   7.435  12.676 -0.0189 -0.0442  0.2317
12172W        W28306   1.900   4.371  10.770  0.3547 -0.3607 -0.2711
12173W        W28307   3.173  12.888   4.344 -0.4963  0.0018 -0.4943
12174W        W28308  10.585   8.702   1.703  0.3339 -0.3786 -0.1344
12175W        W28309  17.591  15.427   0.445 -0.2735 -0.0973  0.1684
12176W        W28310   1.722  10.275  12.439  0.1938 -0.0971 -0.1789
12177W        W28311   4.598  10.344  14.913  0.1413 -0.1493 -0.1502
12178W        W28312   8.100   7.479   0.473 -0.0725  0.0359 -0.0283
12179W        W28313  13.945   5.543   0.182  0.0230  0.0359  0.3365
12180W        W28314  11.397   4.375   4.621  0.1283 -0.1543 -0.1673
12181W        W28315   5.754   4.331   2.885 -0.3815 -0.3825 -0.0528
12182W        W28316   3.711  13.786   3.945  0.0465 -0.0005 -0.2413
12183W        W28317   6.491   0.426  14.499 -0.2855 -0.0810  0.0146
12184W        W28318  12.033   4.059   5.379  0.1840  0.0963 -0.3457
12185W        W28319  10.231   1.915   0.019  0.5089  0.2760  0.2129
12186W        W28320   0.589   9.827  13.367 -0.1541 -0.0371 -0.1586
12187W        W28321   0.492   6.383   3.413  0.1752  0.4545 -0.1145
12188W        W28322  10.391  17.518   1.520  0.0717 -0.3198 -0.1657
12189W        W28323   8.202   2.730   1.455 -0.1080 -0.1014 -0.1075
12190W        W28324  18.913  15.325  11.092 -0.2703 -0.2289  0.3194
12191W        W28325   6.353   3.646  13.412  0.1338  0.0613  0.0841
12192W        W28326  15.853  17.964  13.987 -0.1646 -0.0948  0.1932
12193W        W28327  19.315  14.020   0.184 -0.4804 -0.1772  0.1210
12194W        W28328  12.266  10.055  11.053 -0.0956 -0.0200 -0.1300
12195W        W28329   3.930  18.537   1.577  0.0972  0.2492  0.1103
12196W        W28330   0.713  15.026  14.130  0.2117  0.1004 -0.1057
12197W        W28331   5.778   2.721  14.344 -0.0266 -0.0323  0.1214
12198W        W28332   7.764  12.093   3.188  0.1106 -0.1698 -0.2117
12199W        W28333   2.475  16.693  10.694 -0.0810 -0.0451  0.2838
12200W        W28334   0.008  17.558   4.215  0.0428 -0.0742 -0.0401
12201W        W28335   6.358   8.904   2.767 -0.1549  0.2373 -0.1261
12202W        W28336   2.058  16.348   3.586 -0.0227  0.1278 -0.0031
12203W        W28337   1.377   7.816  10.258  0.0767 -0.0741 -0.0428
12204W        W28338   9.270   2.452   0.824  0.2225 -0.1104  0.0754
12205W        W28339  18.735   1.799  14.807  0.0671  0.2749  0.1353
12206W        W28340   3.249  16.825  11.672  0.0792  0.2986  0.1365
12207W        W28341  13.134   7.064  11.181 -0.0535 -0.1309 -0.0925
12208W        W28342   5.350  17.931  14.627  0.0206  0.1901 -0.0180
12209W        W28343   2.073  11.455   1.338 -0.0122  0.0546  0.1143
12210W        W28344  12.058  16.372   2.072  0.1512 -0.0401  0.0958
12211W        W28345   9.597   9.825   3.572 -0.1298 -0.1056  0.1976
12212W        W28346  13.688  13.113   4.387 -0.0753 -0.0495 -0.0713
12213W        W28347   0.823   6.183  10.476 -0.0439  0.3025 -0.0499
12214W        W28348   6.891  17.631   1.166  0.2394 -0.4889  0.0310
12215W        W28349   4.637   0.712   2.867  0.6216 -0.2508  0.0023
12216W        W28350   7.914   0.195  14.403  0.2255  0.3797  0.0274
12217W        W28351  14.881  13.772  12.742  0.1167  0.2127 -0.0269
12218W        W28352   4.411  12.999  14.168  0.1206  0.1728  0.2140
12219W        W28353  16.671   8.340  14.265  0.1919 -0.1238  0.2464
12220W        W28354   6.295  12.429  12.885 -0.0203  0.2407 -0.0741
12221W        W28355   4.184   5.746  14.387 -0.1434  0.3854 -0.3580
12222W        W28356  13.917  10.935  13.316 -0.0577 -0.0845 -0.1047
12223W        W28357   7.536  17.672   0.406  0.0441  0.1668 -0.1502
12224W        W28358   6.651  14.045   2.189  0.3851 -0.0175  0.0853
12225W        W28359   3.672   9.459   0.267  0.1168  0.0410  0.0761
12226W        W28360   2.182  16.874  14.856 -0.2888  0.0047 -0.2044
12227W        W28361  11.331  18.475   1.106 -0.0213  0.0253 -0.3472
12228W        W28362   2.716  16.809   1.967  0.2847  0.1401 -0.1432
12229W        W28363   1.502  15.909   4.527 -0.1892 -0.1758 -0.2387
12230W        W28364  14.950   5.040  14.779  0.4166  0.0389  0.0068
12231W        W28365  18.860   0.133  11.561  0.0521 -0.2317 -0.4307
12232W        W28366   2.817  12.762   2.788 -0.1176  0.2668  0.0843
12233W        W28367  10.540   5.259  12.764  0.2857 -0.0312 -0.2011
12234W        W28368  12.866   5.863   1.786  0.0873 -0.1088 -0.0891
12235W        W28369  13.250   4.908  11.843  0.2135 -0.0611 -0.0320
12236W        W28370  17.884  15.949  10.569 -0.2408  0.3504  0.3952
12237W        W28371   1.173   0.891  14.273  0.2119 -0.0125 -0.1636
12238W        W28372   8.768  13.444  13.224 -0.3916  0.1032 -0.0636
12239W        W28373   4.285  17.009   3.523 -0.2025 -0.3931  0.2475
12240W        W28374   7.359  12.124   5.706  0.0854  0.0251  0.2786
12241W        W28375  16.994  18.303  11.426 -0.5620 -0.0025 -0.1281
12242W        W28376   1.356   2.121   1.179  0.0853  0.0013  0.1542
12243W        W28377   2.218   6.105   9.781  0.0913  0.1982  0.2481
12244W        W28378   2.318   3.880   2.972 -0.0622 -0.1195 -0.2949
12245W        W28379   9.438   3.424  11.986  0.0340  0.1237  0.1307
12246W        W28380  11.594   7.543  12.504 -0.2492 -0.0470 -0.4302
12247W        W28381   2.477  17.197  12.623  0.1896 -0.0248  0.4553
12248W        W28382   5.662   5.886   2.767  0.0076 -0.1086 -0.1350
12249W        W28383  15.650  19.012   5.834 -0.0779 -0.0127 -0.0971
12250W        W28384   4.017  10.752  13.093 -0.3341 -0.0250  0.2856
12251W        W28385  18.064  12.423  13.127 -0.1321  0.0208  0.1095
12252W        W28386  11.217   9.299  12.240 -0.1628  0.1392  0.5268
12253W        W28387  15.698  18.749   3.749 -0.3173  0.0897 -0.1577
12254W        W28388  14.520   1.067  14.835 -0.2726 -0.3760  0.2837
12255W        W28389   5.878  13.638   2.006 -0.0545  0.2737  0.2767
12256W        W28390   1.256   3.479  13.182  0.1691  0.0650  0.0657
12257W        W28391  15.411   8.871  12.153 -0.0569 -0.2182  0.1498
12258W        W28392   9.594   3.361   3.068  0.0377  0.1570  0.0005
12259W        W28393  18.132   4.817  11.815  0.0035  0.0556 -0.0816
12260W        W28394   0.984  14.759   3.799 -0.0117 -0.3326 -0.3445
12261W        W28395   6.437   3.498   1.668  0.4885 -0.0554  0.1657
12262W        W28396  12.041  15.517   0.003  0.2895  0.0308  0.0643
12263W        W28397   3.651   2.507   9.137  0.3075 -0.2150  0.1497
12264W        W28398   4.287   7.271  14.444  0.1783 -0.0428  0.0438
12265W        W28399  10.734   7.682   2.046  0.0388 -0.4007 -0.1675
12266W        W28400   2.157  13.954  11.447 -0.3451 -0.2203  0.0678
12267W        W28401   1.503  14.489   0.484 -0.4201 -0.1920  0.3272
12268W        W28402  15.615  11.193  14.825  0.1465 -0.1724 -0.2324
12269W        W28403   2.866  10.548  14.712  0.1236 -0.2677 -0.2013
12270W        W28404  15.326  12.694   1.342 -0.2542  0.0530  0.0789
12271W        W28405  17.228  10.387   4.986  0.0378  0.2497  0.2319
12272W        W28406   0.126  15.284   1.513 -0.0383  0.1509 -0.1639
12273W        W28407   1.857   2.736  12.962 -0.0424 -0.2611  0.0379
12274W        W28408  14.202  18.696   3.219 -0.0542  0.1578  0.1001
12275W        W28409   5.960   4.225   1.587 -0.3791 -0.1872  0.1991
12276W        W28410   0.394   3.065   0.569  0.0095  0.0624 -0.1438
12277W        W28411   6.265   3.954   2.495 -0.1718 -0.0564 -0.2380
12278W        W28412   7.550   5.395   3.282 -0.1538 -0.1249  0.0167
12279W        W28413  16.341   8.260   1.232 -0.2652  0.1620 -0.1108
12280W        W28414  13.279   0.887  11.865 -0.1962  0.2512  0.1494
12281W        W28415  10.495   0.639  12.384 -0.0035  0.2493  0.1903
12282W        W28416   5.318   5.596  11.180  0.0408 -0.0394  0.1496
12283W        W28417  13.661  16.823  12.355 -0.0433  0.1837  0.0584
12284W        W28418   4.966   4.973   0.367 -0.1222 -0.0800  0.4850
12285W        W28419   9.526  12.778   0.354  0.1002  0.0259  0.0500
12286W        W28420  13.794  16.360  14.574 -0.3367  0.0178  0.0746
12287W        W28421   1.382   1.716   3.028  0.0220 -0.3141  0.1860
12288W        W28422  13.126   1.940   4.400 -0.0915  0.4122  0.0510
12289W        W28423  10.422   2.248   3.269 -0.0923 -0.0305  0.2145
12290W        W28424   6.646   1.141   0.184 -0.1037 -0.1850 -0.1889
12291W        W28425  10.783  13.211   0.039 -0.2032 -0.1122  0.2809
12292W        W28426   7.090  15.605  12.432  0.3467  0.0545 -0.2994
12293W        W28427   8.840  16.995   2.719 -0.0153 -0.1645 -0.0374
12294W        W28428  17.475  16.097  11.571  0.2960 -0.0846  0.0051
12295W        W28429  12.667  18.159  12.077 -0.0059  0.1725  0.2550
12296W        W28430  17.463  18.981  12.254 -0.4875  0.3714 -0.1620
12297W        W28431  13.860   8.409   4.237  0.0627  0.2153  0.4419
12298W        W28432  17.209  14.407  10.114 -0.0475 -0.3182  0.1543
12299W        W28433  13.817   3.606  13.660 -0.1171 -0.2671  0.2823
12300W        W28434   8.405  12.211   2.626  0.3273  0.0942 -0.1146
12301W        W28435   2.167   3.585   2.470  0.2138  0.2429 -0.1379
12302W        W28436  16.124  10.503   4.617 -0.2117 -0.1108  0.0499
12303W        W28437  15.701  19.066  13.934  0.2672 -0.1005  0.1957
12304W        W28438   4.685   0.589  13.902  0.1120  0.0371  0.2633
12305W        W28439   7.804   9.745   4.647  0.0215 -0.2216  0.1720
12306W        W28440  12.793   6.248  13.564  0.2123 -0.1725 -0.1824
12307W        W28441   4.647  16.646   1.871  0.3333 -0.0773  0.0832
12308W        W28442  11.268  10.686   1.455 -0.3456  0.1879 -0.1112
12309W        W28443  11.435  15.291  13.633 -0.0582 -0.1204  0.1288
12310W        W28444  17.684  15.826   9.751 -0.2256  0.1753 -0.0581
12311W        W28445   3.028  18.514   0.216  0.2917 -0.2176 -0.0646
12312W        W28446  13.854   8.311  14.389  0.2387  0.3279  0.3300
12313W        W28447  17.968  10.541  13.133  0.1989  0.1357 -0.1871
12314W        W28448  15.126   9.668  12.867  0.1265  0.0812 -0.1381
12315W        W28449   1.205  14.093   2.538  0.1872  0.2957 -0.1084
12316W        W28450   5.826   2.798  12.827  0.1654  0.0824 -0.0067
12317W        W28451  15.172   5.430  13.138  0.0008 -0.2346  0.0194
12318W        W28452  15.246  16.440  13.760  0.0281  0.2728  0.2533
12319W        W28453   4.739  12.976   0.343  0.2320 -0.0850  0.1761
12320W        W28454   2.779  15.849  14.557 -0.1350  0.2671 -0.0922
12321W        W28455   4.519  18.301  14.784  0.2018  0.2001 -0.1090
12322W        W28456  17.457   0.377   1.654  0.1685  0.3228 -0.0656
12323W        W28457   3.871   5.629   0.365 -0.1780 -0.1878 -0.1471
12324W        W28458   6.683  15.746   4.451  0.0435 -0.3686 -0.2437
12325W        W28459  10.806  14.931   5.129 -0.0072 -0.0740  0.2098
12326W        W28460   1.363  10.770   3.641  0.0377  0.0811 -0.0679
12327W        W28461   6.491  10.256   3.250  0.3418  0.0954 -0.0049
12328W        W28462  19.000   3.814  13.589 -0.0170  0.0251 -0.1318
12329W        W28463  13.746   6.145   4.451  0.0711  0.0325 -0.0265
12330W        W28464   3.410   0.570   4.815  0.0568  0.0779 -0.1288
12331W        W28465  17.847  17.501   0.797 -0.3866 -0.2236 -0.0079
12332W        W28466   3.255  12.931  10.249 -0.0322 -0.0062  0.2443
12333W        W28467  11.192   1.535   3.480  0.0395 -0.0699 -0.0254
12334W        W28468  16.588   9.038  11.291  0.0866 -0.0831  0.1305
12335W        W28469   2.746   7.406  12.309  0.2844  0.0910 -0.1826
12336W        W28470  19.309  15.053  13.864 -0.1188 -0.4490 -0.2304
12337W        W28471   8.123   4.701  11.256  0.0246 -0.0581  0.2335
12338W        W28472  12.579   7.500  13.587  0.0506  0.0691 -0.0686
12339W        W28473  10.437   8.560  13.787 -0.2110  0.3229 -0.4580
12340W        W28474   6.960   5.847   4.375  0.3020  0.1424 -0.1337
12341W        W28475   2.485  11.044   1.945  0.1151 -0.3568 -0.0256
12342W        W28476   2.162   1.211  13.775  0.2263  0.2379 -0.0496
12343W        W28477  13.111   8.708   4.758  0.3431  0.2172 -0.5901
12344W        W28478   9.213   2.764   2.482  0.0084  0.1888  0.1392
12345W        W28479  15.016   0.205   0.335  0.1278 -0.3531  0.1849
12346W        W28480   1.020   6.337  12.197  0.0677  0.1287 -0.0639
12347W        W28481  16.496   0.219  10.021  0.0181 -0.1173  0.3959
12348W        W28482  15.700   8.256  14.626  0.3539 -0.0323 -0.1629
12349W        W28483   1.810  13.767  12.811 -0.0158 -0.2175  0.1396
12350W        W28484  14.174   1.690  11.618 -0.0756  0.2393  0.2379
12351W        W28485  11.696  14.959  13.953  0.1736 -0.2808  0.0742
12352W        W28486  10.671   3.953  10.248 -0.0914  0.0753  0.0969
12353W        W28487  14.844  11.920  13.278 -0.1781  0.0104 -0.1927
12354W        W28488  11.948   8.000  14.441  0.1908 -0.0201 -0.1936
12355W        W28489   4.142  11.830   9.510  0.2028  0.3056  0.0229
12356W        W28490  12.579   9.656   3.637 -0.0578  0.0471  0.1661
12357W        W28491   8.356   6.095  13.371  0.1206 -0.1498  0.2364
12358W        W28492   2.992  18.508  11.707  0.1268  0.1020  0.0726
12359W        W28493  14.221  11.818   1.947  0.1441  0.2084  0.0759
12360W        W28494   1.749   6.966  14.462  0.3424 -0.1077 -0.1686
12361W        W28495   3.279  17.867   9.456  0.0341 -0.0798  0.0970
12362W        W28496   9.404  15.412   0.838  0.0864  0.1155  0.0039
12363W        W28497   2.626  12.710   1.932 -0.0857 -0.2586 -0.0527
12364W        W28498   5.153  11.294   0.513  0.0589 -0.0886  0.1824
12365W        W28499  13.337  13.912   2.866 -0.4306  0.0202 -0.1057
12366W        W28500  15.265   3.468  12.183  0.2099  0.0284 -0.1351
12367W        W28501  11.593   0.062   6.123 -0.0887 -0.1370  0.0507
12368W        W28502   3.977  17.468   5.378  0.0867 -0.1143 -0.1116
12369W        W28503  16.751  17.948   2.240  0.0438  0.0858  0.1468
12370W        W28504   4.823  12.192  14.395  0.2732  0.3408 -0.0888
12371W        W28505   2.505   0.970   3.729 -0.0661 -0.2271  0.0900
12372W        W28506   5.261   3.258   4.227 -0.1528 -0.2075 -0.1131
12373W        W28507  17.965  18.472  12.798 -0.2635 -0.2623  0.2079
12374W        W28508   0.818   7.824  14.235  0.3822 -0.3080 -0.2955
12375W        W28509   4.477   6.492  13.632  0.1702 -0.5049  0.4393
12376W        W28510  16.593  11.539   1.677  0.1145 -0.3068  0.4142
12377W        W28511   8.791  12.252  13.878 -0.2241  0.3114 -0.1541
12378W        W28512  10.501   5.728   1.504 -0.2306 -0.5723  0.1902
12379W        W28513   4.466  14.843   2.843 -0.1424  0.0043 -0.1625
12380W        W28514  16.768   3.362   0.580 -0.2171 -0.0057  0.0638
12381W        W28515   0.140   6.395   3.822  0.0691  0.0622  0.0361
12382W        W28516   9.608  13.709  14.887  0.0354  0.2342  0.1324
12383W        W28517   3.238   9.375   5.235 -0.1874 -0.2107 -0.1519
12384W        W28518  11.609   7.555   3.988 -0.0224 -0.2491  0.0171
12385W        W28519  17.134  16.339   0.494  0.2545 -0.2015 -0.0223
12386W        W28520  15.107   5.047   1.845  0.3601 -0.1576  0.0124
12387W        W28521   4.444  17.250  13.263  0.1494  0.4235 -0.1355
12388W        W28522  13.399  16.714  14.668 -0.1219 -0.1062 -0.1073
12389W        W28523   2.987  14.939  14.222 -0.1009 -0.1924 -0.4230
12390W        W28524  10.509  16.754   3.438  0.1748  0.1414 -0.0170
12391W        W28525  17.486  18.992   0.452  0.0656  0.0930  0.4634
12392W        W28526  15.562   7.811   3.786 -0.0299  0.2845  0.2355
12393W        W28527  17.490   9.977  10.767 -0.3017 -0.2040 -0.0331
12394W        W28528   5.419  18.468   3.600  0.1802 -0.1744  0.2030
12395W        W28529   1.590   5.735  13.091  0.0802 -0.2347  0.0416
12396W        W28530   2.084  14.591  14.509 -0.0165  0.1011  0.3798
12397W        W28531   7.227   4.006   1.773  0.3535 -0.5492 -0.0262
12398W        W28532  11.118  13.653   0.182  0.2042 -0.6011 -0.0916
12399W        W28533  10.728  18.018  14.873  0.1569  0.1472 -0.1712
12400W        W28534   6.066   2.053   3.637 -0.0253 -0.2014  0.3103
12401W        W28535   3.673   6.977   3.752  0.2809  0.2513 -0.2214
12402W        W28536  10.361  14.277   2.680  0.0612 -0.2065  0.0274
12403W        W28537  10.621  15.121  14.086 -0.0545 -0.0727 -0.1668
12404W        W28538   8.990  18.384   4.918 -0.1386 -0.1736 -0.1554
12405W        W28539   4.661   1.441  10.303 -0.0316 -0.2549 -0.0815
12406W        W28540   5.079   8.907   0.007 -0.1398 -0.0966 -0.1597
12407W        W28541   0.257   8.408   9.391 -0.1768 -0.2235 -0.1025
12408W        W28542  16.819   9.360   4.915  0.0196 -0.1777 -0.1441
12409W        W28543   7.515   1.018  14.659 -0.1015 -0.3320 -0.1976
12410W        W28544   7.702   5.708   0.541 -0.0324 -0.0286 -0.2331
12411W        W28545   8.335   5.604   1.381 -0.1649 -0.1761  0.0034
12412W        W28546  17.294  10.493   3.269  0.1415  0.2420  0.0567
12413W        W28547   6.511   2.063   3.360  0.0245  0.0175  0.0914
12414W        W28548  12.311   6.123  12.336  0.0389  0.0080  0.1801
12415W        W28549   9.828  16.998   1.299 -0.1663  0.4632 -0.3877
12416W        W28550   8.854  12.061   0.827 -0.1906 -0.0284 -0.1193
12417W        W28551   2.651   6.949  13.018  0.3102  0.1245 -0.0006
12418W        W28552  16.656   5.120  11.357 -0.1384  0.2718  0.0251
12419W        W28553   8.809  10.488  10.661  0.0767 -0.3242  0.0015
12420W        W28554   2.713   5.428   1.842  0.2978  0.0161  0.1019
12421W        W28555  16.404   5.037   3.885  0.0560 -0.0786 -0.2772
12422W        W28556   6.484  12.937   4.140 -0.1957 -0.0407  0.0936
12423W        W28557   6.401   0.919  14.328 -0.3520 -0.0426 -0.1133
12424W        W28558  16.734  14.128  12.535  0.3814  0.1385 -0.0556
12425W        W28559  10.042  14.626  11.040  0.1131 -0.3042 -0.1239
12426W        W28560  12.192  15.858  12.413 -0.0232 -0.0038 -0.1398
12427W        W28561   2.458  16.157  12.366  0.1942  0.0180 -0.0236
12428W        W28562  13.211  12.748   1.804 -0.0568 -0.0621  0.1695
12429W        W28563   2.232  12.906   3.615 -0.0826 -0.2499  0.0354
12430W        W28564  18.376  13.670   3.495 -0.1465 -0.0253  0.0895
12431W        W28565  13.359   0.566   3.884 -0.0156 -0.3635 -0.2589
12432W        W28566   0.009   7.823   3.663 -0.0853 -0.0743 -0.0804
12433W        W28567  16.532   7.703  12.477  0.2528 -0.0240 -0.0279
12434W        W28568   4.506   8.533   8.749 -0.1459 -0.1233 -0.3080
12435W        W28569   8.832  17.599  11.204 -0.0704  0.0406 -0.2829
12436W        W28570  15.347   6.433   2.154  0.1724 -0.0030 -0.3980
12437W        W28571  19.291  15.714   4.937 -0.0270 -0.2101  0.0535
12438W        W28572   3.696   9.842  13.149  0.1816 -0.5617  0.1520
12439W        W28573   4.082  12.263   2.318 -0.3914  0.0626  0.1750
12440W        W28574   7.356   3.370   1.267 -0.3003 -0.0036  0.2447
12441W        W28575   1.582  15.055  14.259  0.3263 -0.0986 -0.0670
12442W        W28576  19.150  14.881   0.660 -0.0977  0.1302 -0.1651
12443W        W28577  16.523  14.375   0.728  0.2496  0.1346  0.3591
12444W        W28578   9.989   9.447   4.666 -0.3288 -0.0055  0.1214
12445W        W28579   4.729  11.940   4.415 -0.2468  0.0367  0.1003
12446W        W28580  10.769   5.235  14.190  0.0728  0.0611  0.0785
12447W        W28581  11.324  11.357   4.079  0.0289  0.2330 -0.1108
12448W        W28582   9.201  18.644  14.282 -0.2753  0.1493  0.0053
12449W        W28583  15.237   3.566  11.329  0.1886 -0.4351  0.2440
12450W        W28584   8.381   0.851   2.752 -0.1884 -0.3008 -0.0033
12451W        W28585   2.687   2.317   0.527 -0.1293 -0.0992  0.0976
12452W        W28586  16.062  10.243  12.920  0.3017 -0.1233  0.2432
12453W        W28587   4.738  18.000   1.433  0.0365 -0.4179 -0.2244
12454W        W28588   2.298  10.652   1.765  0.1232  0.4411 -0.0827
12455W        W28589   1.215   5.651  11.130 -0.0996  0.0580 -0.0311
12456W        W28590  12.027  14.172   1.542 -0.0720 -0.0444 -0.3696
12457W        W28591  18.696   4.597  12.050 -0.0967 -0.0182  0.4626
12458W        W28592   2.401   8.504  14.064  0.2430 -0.2441  0.2712
12459W        W28593   7.929   4.659   2.266 -0.0583  0.2382 -0.0832
12460W        W28594   3.232   0.183  12.061 -0.1468 -0.1729 -0.2708
12461W        W28595  12.713  12.482   0.962  0.2337  0.2389 -0.3129
12462W        W28596  11.193  15.003  13.209  0.3927 -0.1423  0.2344
12463W        W28597  10.874  10.957   0.493  0.3334  0.0770  0.1877
12464W        W28598   1.947  18.230   3.666  0.0672 -0.0827 -0.1386
12465W        W28599   0.232   4.486   4.476  0.0585  0.1822 -0.0417
12466W        W28600   8.537   9.375  10.677 -0.4577  0.1501  0.0645
12467W        W28601   1.648   3.778   5.462  0.0611 -0.1475 -0.1062
12468W        W28602  19.247  16.794   0.036  0.0969 -0.1789 -0.1462
12469W        W28603   8.627  11.880   3.419 -0.2797 -0.1981 -0.1750
12470W        W28604   7.461  19.257   0.288 -0.3520  0.1697 -0.1638
12471W        W28605   1.272  17.073   2.516 -0.1880  0.3146  0.1109
12472W        W28606   5.760   1.636  14.045  0.2687  0.1438 -0.0150
12473W        W28607   7.371   4.231  10.313 -0.1974  0.1909  0.2909
12474W        W28608  13.139   0.067   4.704 -0.0487  0.0339 -0.1636
12475W        W28609   7.807  15.826  11.916 -0.0525 -0.1598 -0.1152
12476W        W28610  11.066  14.864  12.192 -0.0823  0.2176  0.1149
12477W        W28611   7.070  19.326   9.954 -0.0165  0.1951  0.0091
12478W        W28612  12.814   3.784  10.904 -0.0506  0.0122  0.1154
12479W        W28613  17.439   2.801   2.844  0.2329 -0.0722  0.2072
12480W        W28614  17.945  18.443   1.689 -0.1234  0.1665  0.0452
12481W        W28615   8.381  10.525  12.646  0.3465  0.2339 -0.2462
12482W        W28616  12.230   8.458   3.822  0.0176  0.1593 -0.0664
12483W        W28617  15.462   6.773  14.132  0.1523  0.3407 -0.1784
12484W        W28618  17.691  11.932   0.610 -0.2003 -0.5738 -0.0460
12485W        W28619  13.864   9.647  14.088  0.2365  0.0607  0.0710
12486W        W28620   3.450  13.212  11.655  0.0934 -0.0062 -0.3766
12487W        W28621   8.938  14.524   3.642 -0.2391  0.2375  0.0847
12488W        W28622  13.505   3.421  11.705 -0.2841 -0.1626  0.5272
12489W        W28623  15.574  11.456  14.259  0.0050 -0.0630 -0.0825
12490W        W28624  13.934   7.708   2.047  0.2013  0.2110  0.0836
12491W        W28625   7.580   1.841   0.128  0.1641 -0.1364 -0.3297
12492W        W28626  16.593   7.306   1.749 -0.1260 -0.0891 -0.0448
12493W        W28627   2.589   7.244  11.073 -0.1204 -0.2652  0.2970
12494W        W28628  11.313  10.819  14.527 -0.2134  0.2308 -0.1562
12495W        W28629  16.286  16.253   3.273 -0.1273  0.1859 -0.1412
12496W        W28630  12.688   7.265   2.156  0.0049 -0.3698 -0.2027
12497W        W28631   0.836  17.207   3.450  0.0017 -0.0989 -0.0868
12498W        W28632  13.956   2.194   0.522 -0.0707  0.0860 -0.2259
12499W        W28633  12.524  15.159  12.282  0.3901 -0.0945 -0.4643
12500W        W28634   0.161  10.912   4.074  0.0867  0.1527  0.2604
12501W        W28635  18.341   6.723  14.416  0.2121  0.1540  0.0301
12502W        W28636  18.374  12.927   1.088  0.0281  0.3928  0.3799
12503W        W28637   0.884   1.814  14.524  0.0202 -0.1621 -0.0333
12504W        W28638  16.280  11.275   0.633  0.1265  0.3360  0.0549
12505W        W28639   1.384  10.194   3.684 -0.1742 -0.1472 -0.0599
12506W        W28640   9.000   9.650   1.690 -0.1360  0.0375 -0.1235
12507W        W28641  15.314  16.744   2.240  0.0570 -0.1009  0.0045
12508W        W28642   3.979   5.744  13.827  0.0347  0.0496  0.2231
12509W        W28643  10.837  15.666   1.705  0.0823 -0.3125 -0.0098
12510W        W28644   4.339  17.671   5.141 -0.4007  0.1072 -0.0736
12511W        W28645  12.574  11.336   3.442 -0.0358  0.0703  0.2562
12512W        W28646  11.372  11.917  10.538 -0.1525  0.1034  0.1969
12513W        W28647  14.353   5.872   3.146  0.2979  0.0704  0.0728
12514W        W28648  11.471  11.783   5.054 -0.0917  0.1661 -0.1733
12515W        W28649  10.241   5.566  14.913  0.1411  0.1335 -0.1421
12516W        W28650   2.453   6.183  14.052 -0.2331 -0.0437  0.0978
12517W        W28651   0.220  15.649  14.825  0.2461 -0.4202 -0.0736
12518W        W28652   2.467  17.744   1.111  0.1051 -0.2345  0.4300
12519W        W28653   2.263   6.070  12.678 -0.0351  0.0007  0.3198
12520W        W28654   1.367   5.220  13.140  0.0949 -0.1577  0.4353
12521W        W28655   1.708  11.916   0.649 -0.0877  0.0345  0.0804
12522W        W28656  18.221  16.453  11.056  0.0093  0.1154  0.0936
12523W        W28657   8.097   4.394  12.286 -0.0009  0.0151  0.4537
12524W        W28658  15.678   6.860   8.911 -0.4072 -0.1204 -0.0291
12525W        W28659  14.065  12.139  14.849 -0.0191 -0.1347  0.0217
12526W        W28660  16.944  18.650  13.580  0.0709 -0.0825  0.2864
12527W        W28661  18.771   1.109  12.907  0.0526  0.1002  0.0543
12528W        W28662   2.442  14.713  10.311  0.3542 -0.1235 -0.1832
12529W        W28663  11.064  18.525  14.762 -0.0854 -0.1269 -0.1236
12530W        W28664   7.861   7.533   3.924  0.1793 -0.3300 -0.1069
12531W        W28665   7.881   5.225   1.410 -0.0351  0.0443 -0.0082
12532W        W28666   8.689   8.327   2.438  0.0962 -0.1656 -0.1596
12533W        W28667  16.434   0.782   0.643  0.2581  0.1931 -0.0715
12534W        W28668  14.536   3.731  12.698 -0.2721 -0.1500 -0.2032
12535W        W28669   7.471   6.225   2.383 -0.1074  0.1070  0.1329
12536W        W28670   3.927  11.418  10.625 -0.0928  0.0507  0.1781
12537W        W28671   7.967  11.454   4.885  0.0486 -0.0689  0.1225
12538W        W28672  18.398   1.755  11.370  0.3995  0.1618  0.1728
12539W        W28673  19.283  16.619   2.833 -0.3200 -0.0217  0.1904
12540W        W28674   8.237  10.408   2.890  0.1700  0.0471  0.0353
12541W        W28675  15.536  14.594  14.533  0.0306  0.2000  0.4015
12542W        W28676   4.083  13.741   1.381  0.2668  0.1871  0.2864
12543W        W28677   8.306  17.113   0.442 -0.0847  0.0869  0.2122
12544W        W28678  14.969  14.645  11.204  0.2231 -0.1167  0.0233
12545W        W28679   2.939  12.631   2.306 -0.0225  0.0576 -0.3938
12546W        W28680   6.827   7.091   4.812  0.1007  0.1229  0.1011
12547W        W28681   8.651   6.051  10.092 -0.0452 -0.3420  0.1327
12548W        W28682   1.356   5.078   4.742 -0.1644 -0.1099 -0.0085
12549W        W28683  11.469  16.281   1.228 -0.0046  0.0909 -0.2411
12550W        W28684  16.570  12.933   1.990 -0.0915  0.0812 -0.2260
12551W        W28685   3.194  14.631  12.389  0.2458 -0.2085  0.1771
12552W        W28686  13.414   1.844   4.025 -0.2091  0.0616  0.0766
12553W        W28687  18.215  17.588   1.798 -0.4657 -0.1605 -0.1419
12554W        W28688   5.835   7.034  10.331  0.2283  0.2227  0.0393
12555W        W28689   1.739  12.596  10.336 -0.1960 -0.1459 -0.0749
12556W        W28690   7.860  10.163   1.730 -0.4353  0.0533  0.2565
12557W        W28691   8.469  16.210   5.584  0.1868  0.0932 -0.1559
12558W        W28692   7.801  10.828   1.263 -0.1488  0.1040 -0.3481
12559W        W28693  14.931  10.717   0.463 -0.1166 -0.1782 -0.2176
12560W        W28694   6.355   0.102   4.970  0.0142  0.0669  0.1374
12561W        W28695  11.203  16.098  14.527 -0.2082  0.2329 -0.0075
12562W        W28696   1.629   4.720  11.772 -0.2210  0.0973 -0.0715
12563W        W28697  11.261   9.571   0.739 -0.4341 -0.0062  0.2759
12564W        W28698   3.954   2.778   9.653  0.1278 -0.0080  0.4819
12565W        W28699   2.449   6.630  14.736 -0.1866 -0.1398 -0.3348
12566W        W28700  14.578  17.055  13.664 -0.0954 -0.1852 -0.3230
12567W        W28701   7.673  11.236   4.399 -0.0610 -0.1593 -0.0807
12568W        W28702   8.515   2.890  11.320  0.2021 -0.2497 -0.0393
12569W        W28703   6.016  12.981   5.684 -0.0317  0.0631 -0.2119
12570W        W28704   1.181  13.787  14.457 -0.1156 -0.0666 -0.1997
12571W        W28705  14.107   3.845   2.160  0.0645 -0.3016  0.1534
12572W        W28706  10.115  16.860   5.375 -0.1198 -0.4109  0.5028
12573W        W28707   8.962   3.276  13.581 -0.0732  0.1605  0.0508
12574W        W28708   2.379   0.339  11.022  0.4447  0.1663 -0.4312
12575W        W28709  13.977  18.109   1.176 -0.0161 -0.0434  0.2040
12576W        W28710   2.892  18.879  14.219 -0.0402  0.1569 -0.1087
12577W        W28711   2.533   6.127   9.385  0.0510  0.2101  0.2359
12578W        W28712  12.149  11.409  11.151 -0.2936  0.1920  0.0356
12579W        W28713   6.667  18.857  14.888 -0.2144  0.3105 -0.2641
12580W        W28714   6.949  12.158  11.618 -0.0690 -0.1811  0.0548
12581W        W28715   8.552   7.440   1.458  0.2232  0.0995 -0.2605
12582W        W28716  11.885   6.072  11.627  0.2620  0.3176 -0.2502
12583W        W28717   8.692  17.037   5.221  0.2035 -0.1313 -0.0250
12584W        W28718  17.896   5.855   3.780  0.1179 -0.0156 -0.1226
12585W        W28719   7.654  10.742  11.415  0.2833 -0.1789 -0.0005
12586W        W28720  10.198  18.707  10.783  0.2641  0.5327  0.5867
12587W        W28721  16.960  15.162  10.823 -0.0123 -0.1795 -0.2942
12588W        W28722  18.658  14.589   2.110 -0.0654 -0.1876 -0.1832
12589W        W28723   7.619  17.151   4.458  0.2508 -0.0960 -0.2488
12590W        W28724  13.154   4.552   0.435  0.1460 -0.2135  0.0023
12591W        W28725  14.222  19.144   2.238 -0.0152 -0.3051 -0.0035
12592W        W28726   6.535  17.115  10.716  0.0214  0.0868 -0.0028
12593W        W28727   8.617  14.595  13.081 -0.0264  0.1482  0.0860
12594W        W28728   8.963   9.019  10.921  0.1488 -0.2886 -0.2072
12595W        W28729  19.033  16.090   3.645 -0.3511 -0.1030  0.1040
12596W        W28730   4.101  15.049   5.590 -0.0838  0.0244 -0.0042
12597W        W28731   5.565   1.934   9.926 -0.1509  0.2254  0.1365
12598W        W28732  10.893   6.298   3.518 -0.0637  0.0061  0.1781
12599W        W28733   7.305   6.153   1.471  0.0832  0.0234 -0.1579
12600W        W28734   6.369   1.696   1.853 -0.2265 -0.2092  0.1501
12601W        W28735  10.485   5.468   3.699  0.1590 -0.1607 -0.0940
12602W        W28736  10.571  13.729   4.583  0.0665 -0.0701  0.0042
12603W        W28737   0.705  18.288  10.875 -0.3595 -0.0637 -0.2600
12604W        W28738  18.688  19.257   0.196 -0.0150 -0.0372  0.1353
12605W        W28739  19.204   2.807  14.710 -0.0632 -0.0124  0.0693
12606W        W28740   0.818   6.201   1.732  0.0375 -0.0158  0.1068
12607W        W28741   5.468  14.767   0.115  0.2224 -0.1650  0.1858
12608W        W28742  17.260  11.479   2.463  0.4648 -0.3877 -0.1396
12609W        W28743  14.133  15.930  10.998 -0.1287 -0.0734  0.2921
12610W        W28744   7.435  14.369   6.093  0.1350  0.4501  0.1482
12611W        W28745  11.570  17.078   6.026 -0.4278  0.0345 -0.3001
12612W        W28746   6.718  14.627  11.185  0.3247  0.1993  0.2593
12613W        W28747  18.777   2.277   2.109 -0.0916  0.2072  0.2272
12614W        W28748  11.932   8.256  14.950  0.0342  0.2561  0.2656
12615W        W28749   4.483   8.741  12.820 -0.0614 -0.0597 -0.0958
12616W        W28750   3.353   0.317  14.019  0.2209 -0.1311 -0.0203
12617W        W28751   2.030   1.300  10.723 -0.1298  0.0826  0.0496
12618W        W28752  13.666  17.559  13.885  0.2200  0.0761  0.0221
12619W        W28753   3.699  11.051   2.358  0.2707  0.0598  0.0541
12620W        W28754  16.017   5.739  14.115 -0.1420 -0.1574  0.0254
12621W        W28755  17.090   5.113   4.826  0.1849  0.1421  0.0725
12622W        W28756  18.364   9.919   4.195 -0.0884 -0.2254 -0.0342
12623W        W28757   6.031  19.018  14.291  0.0271 -0.0431  0.5711
12624W        W28758   3.076   6.316  10.877 -0.0406  0.2850  0.0493
12625W        W28759  11.075   3.058  10.989 -0.1113 -0.1560 -0.0920
12626W        W28760   8.237  10.412   0.091  0.0331  0.0982  0.0892
12627W        W28761  17.331  10.147  13.909 -0.1336 -0.1606 -0.0536
12628W        W28762  13.937  13.983  12.894  0.0050 -0.1455  0.1855
12629W        W28763  16.383   4.878   3.345  0.0067  0.1443 -0.2040
12630W        W28764   8.649   8.714  13.913  0.1073 -0.4266  0.0278
12631W        W28765  17.524   6.703  11.895 -0.0648 -0.1387 -0.0734
12632W        W28766  19.345   3.135   1.298 -0.2120  0.0371  0.2466
12633W        W28767   9.910  12.202  14.502  0.1781  0.2278 -0.1898
12634W        W28768   9.438   2.488   3.581  0.0555 -0.1525 -0.0071
12635W        W28769   6.683  18.895   2.042  0.2738  0.0469  0.0978
12636W        W28770   9.860  12.991  13.720 -0.0506  0.3262 -0.1914
12637W        W28771   2.380  15.258   3.569 -0.1368 -0.0442 -0.1746
12638W        W28772   8.831   0.386   0.345 -0.2096  0.4509  0.2167
12639W        W28773   0.380  12.043   1.515  0.1770  0.2224 -0.0531
12640W        W28774   4.114   1.715   0.220  0.1405  0.0102  0.0311
12641W        W28775   5.568   6.982   4.271 -0.0571 -0.1189 -0.2358
12642W        W28776  13.302   7.892  12.030  0.1575  0.0384  0.0727
12643W        W28777  17.763  12.014  11.778 -0.0317 -0.1636  0.0624
12644W        W28778  12.102   5.661   0.371  0.0348  0.4655 -0.0843
12645W        W28779   9.301  17.208   1.392 -0.4141 -0.1166  0.2150
12646W        W28780   1.083   4.116   0.077 -0.0016  0.2163 -0.1135
12647W        W28781  17.888  13.474   2.544 -0.2439  0.0820  0.3852
12648W        W28782  14.501  15.465   3.631  0.2063  0.1137 -0.1491
12649W        W28783   3.470  11.995   9.977 -0.4256 -0.1676  0.0385
12650W        W28784   2.285   0.071   4.075  0.2191  0.0309 -0.2579
12651W        W28785  18.169   3.899  10.987  0.0900  0.0276 -0.0243
12652W        W28786  12.754  17.559   4.197 -0.0678  0.1068  0.0193
12653W        W28787   3.288  11.556   0.760  0.1560 -0.1012 -0.0181
12654W        W28788  11.164   7.481   0.585 -0.1405  0.4079  0.0656
12655W        W28789  15.994   5.743  14.892  0.0788  0.0481 -0.1147
12656W        W28790  10.788   1.559   1.122  0.0108  0.1259 -0.2975
12657W        W28791   5.255  14.074   0.849 -0.0218  0.0287 -0.1266
12658W        W28792   2.484   4.920   4.342  0.5115 -0.1985  0.3418
12659W        W28793  13.753  12.269   4.278  0.1785  0.0662 -0.2104
12660W        W28794  16.188  19.251  12.718  0.0659  0.2349  0.0372
12661W        W28795   1.219   6.074   3.724 -0.0854 -0.1483  0.0648
12662W        W28796   7.734  13.504   0.996 -0.3084  0.0255 -0.0746
12663W        W28797   1.529  12.734  13.888  0.3202  0.2226 -0.1189
12664W        W28798  13.982  11.808   1.466  0.1793  0.0094 -0.0158
12665W        W28799  10.467  17.469   4.798  0.2168  0.0966  0.2472
12666W        W28800   7.316  15.010   0.085 -0.1128  0.0728 -0.2954
12667W        W28801  18.949  13.820  10.948  0.2015  0.2012  0.2209
12668W        W28802   2.268  11.767  14.908  0.1180 -0.0096 -0.0643
12669W        W28803   6.584  11.177   9.073  0.0040 -0.0000  0.5286
12670W        W28804  18.053   7.009   0.424  0.0702 -0.1010  0.3321
12671W        W28805   0.142   1.438   1.616  0.3389 -0.0974 -0.2655
12672W        W28806   9.102   9.677   2.769 -0.0606  0.0056  0.2464
12673W        W28807   2.858   3.353  11.811  0.0212  0.0269 -0.1346
12674W        W28808   1.637  15.231  12.632  0.0861  0.1527  0.0317
12675W        W28809  11.747  13.606   2.663  0.0786  0.0539  0.1230
12676W        W28810   8.275  17.288  14.123 -0.0428 -0.0829  0.0677
12677W        W28811   7.917  13.650   1.470  0.2952 -0.2866  0.0653
12678W        W28812   3.477   7.179   0.082  0.0712  0.0423 -0.1435
12679W        W28813   2.688   0.571   4.216  0.2257  0.0972  0.2085
12680W        W28814  11.831   6.131   0.517  0.0761 -0.2442  0.0573
12681W        W28815   6.238  11.278  14.852 -0.0983 -0.2980  0.0837
12682W        W28816  10.255   3.760  10.446 -0.0554  0.0226 -0.5491
12683W        W28817   6.979  10.897   1.517  0.0598  0.2122 -0.2354
12684W        W28818  10.196   3.173   4.589 -0.2138 -0.0696  0.2729
12685W        W28819  12.480   7.359   3.672 -0.1270  0.3552 -0.1539
12686W        W28820   8.087  15.482  13.030 -0.0460 -0.0423 -0.0069
12687W        W28821   4.693  10.557   3.153 -0.1557 -0.1697 -0.0880
12688W        W28822  10.110  16.900  14.955  0.3973  0.2118  0.0946
12689W        W28823  15.984   7.622  12.483  0.0653  0.0417 -0.0247
12690W        W28824  12.141   4.444  12.891 -0.2543 -0.1058 -0.1718
12691W        W28825   8.710  13.806  13.635  0.1059  0.0790  0.0577
12692W        W28826   4.075  14.911  10.508 -0.1171  0.2436  0.1155
12693W        W28827   5.096  11.468   4.002  0.3127 -0.2284 -0.0643
12694W        W28828  10.380  15.423  13.028  0.2408  0.0434 -0.0637
12695W        W28829   5.402  16.212  12.994 -0.0029 -0.2144 -0.0479
12696W        W28830  14.179  12.444  11.122 -0.3093  0.0063  0.3969
12697W        W28831   3.678  13.524   2.525 -0.1729 -0.1432  0.0195
12698W        W28832   8.589   1.154   2.262  0.0100  0.1827  0.2034
12699W        W28833  12.755  16.263   4.500 -0.3329  0.0220  0.4769
12700W        W28834   7.981   1.334   4.564 -0.1280 -0.0976 -0.2834
12701W        W28835   9.365  17.267   4.611 -0.2812 -0.3487 -0.2323
12702W        W28836   0.548   6.950  13.965 -0.1740 -0.0129 -0.2190
12703W        W28837  10.210  19.284  13.196  0.2878  0.0639  0.0594
12704W        W28838   1.175   6.396  14.699  0.1481  0.1373  0.2465
12705W        W28839  17.667  14.409  13.730 -0.0472  0.1498  0.2603
12706W        W28840   8.726  12.233   0.357 -0.1589  0.0968 -0.0347
12707W        W28841   3.128   7.807  12.970  0.0895 -0.0895 -0.1554
12708W        W28842  13.397  11.763   0.692 -0.2147 -0.0545  0.1273
12709W        W28843  15.034  18.798   1.756  0.2708 -0.1111 -0.2000
12710W        W28844  11.841  14.086   2.581 -0.4025  0.3134 -0.4781
12711W        W28845   7.915   9.827  13.708  0.0953  0.3797  0.1264
12712W        W28846  11.325   0.602   1.298 -0.1037  0.1076 -0.3837
12713W        W28847  11.447   7.124  12.858 -0.3459  0.4385 -0.2022
12714W        W28848   8.402   6.125  14.371  0.1912 -0.2634 -0.4800
12715W        W28849   6.001   6.313   9.762  0.0859  0.2822 -0.2350
12716W        W28850  17.929  13.871   0.114  0.1399  0.0498 -0.0868
12717W        W28851  12.404   9.161   9.789  0.1497  0.1144 -0.0929
12718W        W28852   4.112   7.265  10.365  0.3447 -0.0803  0.0080
12719W        W28853  16.084  11.866   3.675 -0.0674  0.2369  0.1715
12720W        W28854  17.995  17.977   3.572 -0.1626 -0.0307 -0.0504
12721W        W28855   9.090  14.022   1.047 -0.3415  0.0873  0.2854
12722W        W28856   7.729  15.881   4.829  0.1227 -0.0127 -0.0426
12723W        W28857  15.437  10.293  10.801 -0.0620 -0.1398  0.1860
12724W        W28858   1.297  12.392  13.533 -0.2735  0.1790 -0.1847
12725W        W28859  10.924  18.122  13.152  0.0114  0.0586  0.2187
12726W        W28860   1.956   4.808  12.673 -0.0090  0.3846  0.2138
12727W        W28861  10.551   7.455   4.160  0.1956  0.1672  0.0987
12728W        W28862  16.663   3.656  13.554 -0.0499 -0.0290 -0.5061
12729W        W28863  14.912  11.220  11.969 -0.4175 -0.1194  0.3576
12730W        W28864  16.101  16.901  14.272  0.1134 -0.0222 -0.2041
12731W        W28865  13.783   7.289   4.141  0.0984 -0.0312  0.0045
12732W        W28866  16.315   3.273   0.725 -0.0043 -0.1009 -0.1320
12733W        W28867  11.858   6.815  11.715  0.0792  0.0101 -0.1904
12734W        W28868   8.876   3.797   0.721  0.0115  0.0840  0.0493
12735W        W28869  10.985  12.116   2.513 -0.1345 -0.1958 -0.0655
12736W        W28870  17.840   1.764   4.651  0.1836  0.1074 -0.2775
12737W        W28871   0.434  15.793  13.100 -0.2623 -0.1066 -0.3037
12738W        W28872   6.450   3.680  12.925  0.1076  0.1525 -0.0208
12739W        W28873   3.571   3.271  10.665 -0.1682  0.1536 -0.2448
12740W        W28874   5.107  13.625   4.389 -0.1294 -0.3165 -0.2063
12741W        W28875  12.033  11.166   1.928  0.1786 -0.3411 -0.0914
12742W        W28876  15.908  10.631   0.075  0.0942  0.3993  0.1375
12743W        W28877   9.645  14.024   2.972 -0.2150 -0.1798 -0.3133
12744W        W28878  11.325   1.495   2.050  0.0552  0.0199  0.2178
12745W        W28879  18.293  18.571  10.230  0.1689 -0.2058 -0.2054
12746W        W28880  18.256   3.537  14.422 -0.0858  0.2442 -0.0275
12747W        W28881  11.069  10.428  14.871  0.1349 -0.1464  0.4137
12748W        W28882   2.160  14.127  13.276  0.1621 -0.3526  0.0363
12749W        W28883   3.492  17.952   3.116 -0.0224  0.1968  0.1205
12750W        W28884  12.372   4.199   3.515  0.0541  0.2594  0.3342
12751W        W28885   2.270  14.575  11.407 -0.2695 -0.5621 -0.0131
12752W        W28886  10.167   5.979   2.647 -0.2364  0.0285  0.2868
12753W        W28887   1.510   2.717   4.602 -0.2434  0.2557 -0.0296
12754W        W28888  11.426  10.989  12.672  0.1125 -0.2333 -0.1277
12755W        W28889   2.441  13.333   0.274  0.0454  0.1753 -0.4839
12756W        W28890   6.127  14.038   2.059 -0.2314 -0.2308 -0.0120
12757W        W28891  15.816   6.229  10.731 -0.0260 -0.2341 -0.0833
12758W        W28892   6.254   0.287   0.229  0.2347  0.1810  0.5245
12759W        W28893  12.555   7.522  14.579  0.1514  0.0752  0.0471
12760W        W28894  11.297   8.384  12.675  0.2289 -0.1410 -0.3528
12761W        W28895   7.356  11.443   3.540 -0.2798  0.0650  0.1697
12762W        W28896   5.939  15.805  10.907  0.1923  0.1008 -0.3251
12763W        W28897   0.003  14.334  11.345  0.2852 -0.1395  0.0346
12764W        W28898   3.981  12.049   0.249  0.2265  0.3248  0.0451
12765W        W28899   5.263   9.442   1.262  0.0621 -0.3407  0.4056
12766W        W28900   1.234  14.624   4.226 -0.0589  0.2000  0.0805
12767W        W28901  18.169  10.572   0.460 -0.1119  0.1653 -0.1956
12768W        W28902   8.849   7.684  11.108 -0.5129 -0.3053  0.0849
12769W        W28903   1.331  19.019  14.279 -0.1396  0.0276  0.2974
12770W        W28904  12.683  10.293   4.406 -0.0546  0.2173  0.0148
12771W        W28905   9.365  12.193  13.828  0.2957 -0.0931 -0.0366
12772W        W28906  13.897  14.272   1.666  0.0180 -0.2704  0.0792
12773W        W28907  14.134  11.206   4.828  0.7006  0.1405  0.1953
12774W        W28908   6.046   9.536   2.602  0.0466 -0.0674  0.0385
12775W        W28909   6.675  16.615  10.886  0.3242 -0.1733  0.2724
12776W        W28910  16.282   5.537  10.284  0.4136  0.0210 -0.0805
12777W        W28911   5.147   4.649  10.449 -0.2251 -0.2470 -0.2021
12778W        W28912  16.662   7.487  13.733  0.4267  0.2319  0.1116
12779W        W28913  19.323  15.581   5.615 -0.4375  0.1146  0.0052
12780W        W28914  12.212  18.036   0.681 -0.1463  0.1843  0.0981
12781W        W28915   6.865  13.623  12.282  0.1061 -0.1818 -0.0803
12782W        W28916   6.859  15.482  11.857  0.2030 -0.1886  0.1012
12783W        W28917  15.737  11.963   4.088 -0.1039  0.1150  0.0457
12784W        W28918  18.691  13.967   3.688 -0.0770  0.1562  0.0254
12785W        W28919   7.600  19.039   4.429 -0.0819  0.1260  0.0572
12786W        W28920   8.076   1.674  10.928  0.2154  0.0802  0.1138
12787W        W28921  17.176  15.645  11.657 -0.2868  0.0628 -0.1067
12788W        W28922  17.965   9.810  12.673 -0.1870  0.0035 -0.0974
12789W        W28923   2.115  16.490   4.465  0.0221 -0.1476  0.2477
12790W        W28924  17.264  11.829  14.744 -0.0333 -0.1250  0.1477
12791W        W28925  18.167  14.504  12.910 -0.1464  0.2274  0.0757
12792W        W28926   1.130   7.495  13.994  0.0938  0.2230  0.1004
12793W        W28927   2.405  10.392  13.937  0.0107 -0.1541  0.3434
12794W        W28928  16.721   7.204  10.401  0.0267  0.0423  0.0384
12795W        W28929   8.964  13.872  11.421 -0.2401 -0.2163  0.3029
12796W        W28930  13.453  15.361   3.621 -0.2229  0.1399 -0.1252
12797W        W28931   2.846  14.882  10.569 -0.0332  0.1482  0.0076
12798W        W28932   5.260  18.715   2.584 -0.3102  0.2632  0.3209
12799W        W28933  14.430  15.697  13.498  0.0450 -0.0235  0.3991
12800W        W28934  12.085   4.341  12.361 -0.1199 -0.2035 -0.1956
12801W        W28935  19.262  17.714  12.988 -0.2019 -0.1293 -0.3337
12802W        W28936  11.777   9.502  12.765  0.0490  0.3671 -0.0787
12803W        W28937  17.142  13.304   4.751  0.0851 -0.2792  0.3270
12804W        W28938  11.974   3.474  12.508 -0.0341 -0.1558 -0.2055
12805W        W28939  10.373   1.134   0.965 -0.0123 -0.0506 -0.0664
12806W        W28940   5.654  15.100   4.791 -0.0031 -0.0830 -0.2711
12807W        W28941  18.143  14.425   5.280  0.0036  0.4092 -0.3260
12808W        W28942   0.233   2.955  13.122  0.1237 -0.1496  0.0350
12809W        W28943  18.995   9.087  11.490  0.1779  0.2720 -0.0969
12810W        W28944  18.949   6.155  11.809  0.0092  0.0640 -0.2414
12811W        W28945  13.066   6.727  14.083 -0.4709 -0.1871 -0.2848
12812W        W28946   0.554   8.252  12.579  0.0086  0.0506 -0.0057
12813W        W28947  13.879   9.086   1.793 -0.1674 -0.0260  0.1332
12814W        W28948  17.478  18.112  14.160 -0.2629  0.2532 -0.2213
12815W        W28949   6.907   6.899   3.871 -0.2179  0.0557  0.1570
12816W        W28950  18.844  16.508  13.879 -0.0030  0.2031 -0.0084
12817W        W28951  16.179  10.652  11.919 -0.1296 -0.1705 -0.0110
12818W        W28952  18.150  15.245   4.408 -0.0141 -0.2219  0.2349
12819W        W28953  12.442   1.086  12.681  0.1756 -0.0214  0.2806
12820W        W28954  12.002  11.739  12.456  0.0749  0.1827 -0.3403
12821W        W28955  18.901  18.606   1.712 -0.2527  0.0606  0.0720
12822W        W28956   7.629  17.364  13.082  0.6891 -0.0629 -0.4836
12823W        W28957  10.668   8.805   0.345  0.1600  0.1165 -0.1105
12824W        W28958  12.299  17.395  13.435 -0.1948 -0.1060 -0.1933
12825W        W28959   6.025   3.258  10.399  0.1654  0.0848  0.3966
12826W        W28960   2.155   7.651  13.255  0.0105  0.1225  0.0107
12827W        W28961  15.537  11.447  13.203  0.1348 -0.2363 -0.2500
12828W        W28962  14.790  10.026   2.107 -0.1662 -0.1907 -0.3698
12829W        W28963   2.536   1.621   3.611 -0.0904  0.2041  0.0663
12830W        W28964   4.594   2.844   2.147 -0.0754  0.2091 -0.2365
12831W        W28965   6.503  12.284   3.131  0.1333  0.3268  0.0222
12832W        W28966   5.126   0.563  14.221 -0.2020 -0.1788  0.2629
12833W        W28967  17.318  13.957  11.630  0.1224 -0.0000  0.2447
12834W        W28968   6.194   3.267  13.688 -0.0385 -0.1649 -0.2690
12835W        W28969  12.278  12.285  10.768  0.2053  0.0375  0.0212
12836W        W28970   2.586   6.259   3.139  0.2882 -0.3700 -0.0397
12837W        W28971  18.708   6.349  14.181 -0.1796 -0.0115 -0.0325
12838W        W28972   4.977  11.287  11.936 -0.2318  0.1834  0.3219
12839W        W28973   2.677   2.001   4.359  0.4022 -0.5634 -0.2471
12840W        W28974   1.842   1.701   1.575  0.0634  0.0187 -0.3198
12841W        W28975   4.874   8.748   1.738 -0.2478 -0.1090 -0.1491
12842W        W28976  12.291  18.500  12.344 -0.2827  0.1091  0.0674
12843W        W28977   6.760  14.305   3.841  0.0178  0.4278  0.2180
12844W        W28978  17.379   1.610   4.533  0.0142 -0.0732  0.1613
12845W        W28979  16.693  16.720  11.395  0.3199 -0.0289  0.1751
12846W        W28980  12.274  12.727  12.661 -0.0646 -0.0076  0.5046
12847W        W28981   3.555  18.033  14.491  0.0825  0.0370  0.1632
12848W        W28982  17.323   2.447   0.250 -0.3393  0.5218 -0.3412
12849W        W28983   9.645   0.738   5.859 -0.0840 -0.0529  0.0035
12850W        W28984  11.440   9.261   1.863  0.0022  0.2481 -0.0435
12851W        W28985   0.997   2.386   9.882 -0.0649  0.2100 -0.0654
12852W        W28986  15.323  18.822   3.443  0.2282  0.2347 -0.3294
12853W        W28987   0.098   3.547   0.445  0.0996  0.1059  0.1744
12854W        W28988  13.208   8.625  13.485 -0.2127  0.2956 -0.1992
12855W        W28989  14.540   2.929   4.718 -0.1490  0.0415 -0.1508
12856W        W28990  10.743  11.767  12.489  0.0372 -0.0262  0.1384
12857W        W28991  14.438   9.249  12.896  0.2700  0.0380 -0.1387
12858W        W28992  15.906  15.511  13.545  0.2103 -0.1073  0.0543
12859W        W28993  17.815   3.253   9.555 -0.0365 -0.0756 -0.1777
12860W        W28994   3.621  11.676   1.817  0.1067  0.0658 -0.1288
12861W        W28995  13.145  10.526   0.974  0.1948  0.3171 -0.0922
12862W        W28996   6.080   6.906  13.536  0.1516  0.2335 -0.1587
12863W        W28997   9.066   7.985   2.299 -0.1829  0.1102  0.0843
12864W        W28998  11.605   8.562   1.279  0.1164 -0.0339 -0.1242
12865W        W28999  15.083  19.307   1.883 -0.0526  0.0034 -0.1456
12866W        W29000   8.505  13.104   2.396  0.0783  0.1733  0.0658
12867W        W29001  16.111   9.191  13.926  0.1992  0.3055  0.3252
12868W        W29002   2.886   1.693  14.377  0.1372 -0.0495  0.0925
12869W        W29003   4.182  15.555  12.814  0.4503  0.0618  0.1513
12870W        W29004   6.707   3.739  10.526 -0.3802  0.2326 -0.4301
12871W        W29005  10.957  16.079   0.518  0.1058  0.1303  0.2011
12872W        W29006   1.215   3.993  14.575  0.2051  0.1049 -0.0495
12873W        W29007   9.492  15.361  13.601 -0.0649 -0.1091 -0.0531
12874W        W29008   0.870  16.225  12.257  0.0526 -0.0303  0.1320
12875W        W29009   9.389   6.497   1.825 -0.1838 -0.4431 -0.1938
12876W        W29010   8.733  10.130  13.780  0.0773  0.1401  0.0703
12877W        W29011   0.939  12.487  13.925  0.0726  0.1707 -0.2389
12878W        W29012  16.262   1.824   1.552 -0.0104  0.0598  0.2740
12879W        W29013   1.196  12.135  10.805 -0.1599 -0.0218 -0.1355
12880W        W29014  14.503   5.336   4.014  0.3084  0.3702 -0.1474
12881W        W29015   1.836  10.314   4.745 -0.1160  0.1451 -0.2048
12882W        W29016  11.119   7.889   4.564  0.3279 -0.1861  0.1126
12883W        W29017  14.667  11.184   4.955  0.0186 -0.3447  0.1183
12884W        W29018  17.092  10.999   2.564  0.2699 -0.1293  0.1133
12885W        W29019   8.085  17.708   1.861  0.2066  0.1551  0.0033
12886W        W29020  12.125  16.924   5.454 -0.1182 -0.4181 -0.1653
12887W        W29021  19.239   1.050   0.267  0.3440  0.1677 -0.2329
12888W        W29022  18.901   8.498  11.795 -0.1582 -0.1896  0.1504
12889W        W29023   2.263   2.023   3.522 -0.0181  0.0316 -0.1863
12890W        W29024   4.820  19.185   0.353  0.1425  0.0987 -0.3020
12891W        W29025  17.623   9.319   2.348 -0.0885  0.2445 -0.0003
12892W        W29026   7.942   9.193   0.402  0.2451  0.0195 -0.1151
12893W        W29027   3.441  18.983  10.378  0.0602 -0.1088  0.1466
12894W        W29028   2.693  12.391   0.629 -0.0155  0.0116 -0.0280
12895W        W29029   1.284  15.651   5.604 -0.1854 -0.0689  0.0963
12896W        W29030   0.024  11.254   1.975 -0.1534 -0.1004  0.0122
12897W        W29031  13.389   3.134   5.718  0.0084 -0.0013  0.0065
12898W        W29032   8.931   9.122  13.814  0.0912 -0.1695  0.1258
12899W        W29033  13.355  13.198   2.031 -0.2263  0.0715 -0.3808
12900W        W29034  17.114   0.896  13.916 -0.3159 -0.2622  0.2165
12901W        W29035   4.353   7.741   2.141 -0.2471 -0.2786  0.0957
12902W        W29036   2.006   4.019   0.976 -0.1651 -0.0999  0.0245
12903W        W29037   7.236  18.329   1.363  0.2894  0.1737  0.2739
12904W        W29038  16.888   8.739   0.466 -0.0124  0.1423  0.0831
12905W        W29039   5.044   8.296   3.708 -0.1493 -0.0242  0.0216
12906W        W29040  18.086  14.410  14.044 -0.1323  0.0144  0.0936
12907W        W29041  17.341  13.427  13.685  0.1099 -0.1844  0.3159
12908W        W29042   2.168   9.887   4.807 -0.1115  0.1163  0.0156
12909W        W29043   8.546  19.013  13.745  0.0401  0.2052 -0.2082
12910W        W29044  17.813  19.146  14.610  0.3642 -0.0247 -0.4472
12911W        W29045   3.513   6.340   3.731  0.0030 -0.1450 -0.2795
12912W        W29046   6.016  10.730   3.645  0.1607  0.1857 -0.2118
12913W        W29047   6.037  15.826  12.277 -0.1050  0.1621  0.3279
12914W        W29048   0.477  16.001  10.259 -0.0742 -0.0106 -0.2079
12915W        W29049  10.793  17.731  14.082 -0.2746 -0.2303 -0.2145
12916W        W29050  14.442  12.483  10.716 -0.1843 -0.1605  0.0626
12917W        W29051   8.958  17.613  13.481 -0.0372 -0.1207 -0.1443
12918W        W29052   5.770  13.649   0.177  0.0355  0.0024  0.0091
12919W        W29053  10.172   9.690   4.248  0.0391  0.2305 -0.2341
12920W        W29054   7.747  17.218   1.932 -0.0488  0.1495  0.0646
12921W        W29055   4.907  13.555  13.644 -0.3019 -0.0964 -0.2679
12922W        W29056   5.381   2.998   2.950 -0.0356 -0.0029 -0.0903
12923W        W29057   4.171   0.291  10.131  0.0884 -0.0625 -0.0535
12924W        W29058   3.543  14.704   3.838  0.5826  0.2134  0.1592
12925W        W29059  13.544  18.141  11.130 -0.1022 -0.0745 -0.1057
12926W        W29060  16.523   1.256   0.812  0.0741 -0.0070 -0.0752
12927W        W29061   1.241  10.302   4.895 -0.1455  0.0175  0.2606
12928W        W29062   3.480  11.233   1.656 -0.1978 -0.3283  0.2334
12929W        W29063   1.518  14.165   0.923  0.2073  0.0924  0.0515
12930W        W29064   6.504  13.798  13.140  0.1540 -0.2270 -0.0419
12931W        W29065  13.340  10.696   1.461 -0.1585 -0.2307 -0.4483
12932W        W29066  15.780  14.070  12.459  0.4048  0.1476 -0.1010
12933W        W29067  16.343  18.105  11.028  0.0507  0.2214 -0.2053
12934W        W29068   3.010   4.924  12.246  0.0449  0.2464 -0.2853
12935W        W29069   8.722   1.257  14.414  0.3696  0.0262 -0.0607
12936W        W29070   6.239  19.181  12.781  0.2104 -0.2308 -0.1845
12937W        W29071   4.690   6.611  14.046  0.1212  0.2499 -0.2624
12938W        W29072  11.345  12.088  11.673  0.0620 -0.3769 -0.0708
12939W        W29073  18.358  15.525   0.875 -0.1649  0.0100  0.4312
12940W        W29074   4.635  10.319   0.451  0.0325 -0.2062 -0.3051
12941W        W29075   6.946   5.363   9.137  0.0397 -0.4354 -0.0828
12942W        W29076  10.224  16.762   4.888 -0.0063  0.0345  0.3167
12943W        W29077  11.062  16.154   2.889 -0.2331 -0.1529 -0.0865
12944W        W29078  16.743   5.837   4.378 -0.1876  0.0217 -0.1115
12945W        W29079   6.586  11.600  14.945  0.1153  0.2755 -0.2138
12946W        W29080  16.927  13.024  11.857 -0.0516 -0.2921  0.2039
12947W        W29081   5.353  13.747   4.852  0.1966  0.2183 -0.1847
12948W        W29082  18.188  18.730   1.276  0.4523 -0.3113  0.4381
12949W        W29083  13.121   4.459   2.052 -0.1689  0.0168  0.1807
12950W        W29084  15.688   0.849   0.921  0.1215  0.0069  0.0000
12951W        W29085  14.297   8.419  14.537 -0.2031 -0.3874 -0.1156
12952W        W29086   4.867  15.738  10.834  0.0846  0.5928 -0.1111
12953W        W29087  13.811  14.751   4.535 -0.0049 -0.1347 -0.0843
12954W        W29088  13.485   6.276   5.447  0.1430 -0.2573 -0.2009
12955W        W29089  17.265  10.111   0.506 -0.0340  0.0533 -0.1781
12956W        W29090  15.464  10.758   0.316 -0.3316  0.5222 -0.0956
12957W        W29091   5.553   8.945  10.125 -0.0179 -0.0075 -0.0405
12958W        W29092   1.137  14.169  10.170  0.0725 -0.0358 -0.1067
12959W        W29093   0.586   0.242  11.889 -0.0466 -0.1502  0.0445
12960W        W29094   2.771   9.249  13.400  0.1795  0.0179  0.3271
12961W        W29095  11.628   2.579  11.535 -0.2109 -0.0332  0.1086
12962W        W29096  12.457  13.862  12.233  0.3231  0.3145 -0.2673
12963W        W29097   5.724  15.712   4.267  0.0889  0.3283 -0.0006
12964W        W29098  11.043  17.981   2.680  0.0971  0.0493 -0.2158
12965W        W29099   7.013   4.749  14.816 -0.0836 -0.1477 -0.2569
12966W        W29100   7.446  13.309  14.965  0.1532 -0.1783 -0.0714
12967W        W29101   4.211   5.972   9.939 -0.3848 -0.2344 -0.1389
12968W        W29102   1.238   6.904  10.957  0.2595 -0.2174 -0.3086
12969W        W29103   6.136  12.261   0.671  0.3134 -0.2664 -0.0227
12970W        W29104   0.710  14.511  13.079 -0.0351  0.1505  0.0602
12971W        W29105   1.151   9.812   0.271  0.1432 -0.0591  0.0128
12972W        W29106  15.056   4.189  11.620  0.3960 -0.1801  0.2335
12973W        W29107  17.694   2.810  12.247  0.0342  0.1276  0.2888
12974W        W29108   5.454  15.014  13.291  0.3429 -0.1396 -0.1196
12975W        W29109   5.301   2.852  10.066 -0.2988  0.0745  0.1512
12976W        W29110   9.648  12.163   0.391 -0.2395 -0.3130 -0.1957
12977W        W29111   7.901   7.330  12.174  0.2248  0.0860  0.1249
12978W        W29112  15.946  14.937  11.076 -0.0472  0.0241  0.1848
12979W        W29113   0.975  11.823   2.544 -0.1146  0.0982  0.0156
12980W        W29114   4.638  17.416   3.612 -0.2657 -0.0497  0.1030
12981W        W29115  13.737   5.570   4.274 -0.0992  0.1952  0.1312
12982W        W29116  14.577  16.687  12.707 -0.3384 -0.2572  0.0232
12983W        W29117   6.820  13.419  10.621 -0.4468 -0.0170 -0.2544
12984W        W29118   3.177   4.229  10.865  0.2096  0.0558 -0.4151
12985W        W29119  16.385  14.850  14.640  0.1301  0.3313 -0.2017
12986W        W29120   7.765   0.675  11.877  0.1116  0.1248 -0.0387
12987W        W29121  12.690  13.975  14.606  0.3355  0.1848  0.2401
12988W        W29122  12.042  13.729  11.534 -0.3223 -0.3223  0.3956
12989W        W29123   7.230   6.844  12.308  0.1352 -0.0460 -0.3259
12990W        W29124   7.827   2.997   2.866  0.2784 -0.0018 -0.1295
12991W        W29125   8.308   0.144  11.191  0.0535 -0.3247 -0.0551
12992W        W29126  18.796  11.906   2.305  0.0492  0.1147 -0.1016
12993W        W29127   1.027   9.100  13.359 -0.2902 -0.0006 -0.0410
12994W        W29128   6.215  11.902   4.535 -0.0340 -0.0599 -0.0016
12995W        W29129  10.993  14.421  11.811 -0.0637  0.2142 -0.0745
12996W        W29130  16.937   9.956   3.886 -0.2165  0.3217 -0.0716
12997W        W29131   9.533   0.743   4.901  0.0628 -0.1560  0.3121
12998W        W29132   5.165  11.368  14.882 -0.3458 -0.0300 -0.4668
12999W        W29133  12.621   4.539   1.294  0.2772  0.0616 -0.3384
13000W        W29134  13.310   6.524  11.446 -0.1011  0.0586 -0.2863
13001W        W29135   1.336  13.815  12.956  0.1627 -0.2694  0.1467
13002W        W29136   3.066   2.059   0.370 -0.2592 -0.2289  0.0308
13003W        W29137   7.746   8.204  13.935 -0.0550 -0.0573 -0.1540
13004W        W29138   3.431   3.364  14.608 -0.1641  0.0635  0.0286
13005W        W29139   7.754  18.565   1.685  0.1312 -0.0576 -0.1495
13006W        W29140  11.229  16.708   6.097  0.3117 -0.3576 -0.1572
13007W        W29141   9.990  10.081  12.801  0.1600 -0.4016 -0.0645
13008W        W29142  10.264   6.697   0.487 -0.2497 -0.1743  0.3256
13009W        W29143  10.826  18.035   3.948  0.0565  0.0592  0.0078
13010W        W29144   6.460  14.762  14.940 -0.0192 -0.1142 -0.2505
13011W        W29145   3.589   8.144  10.600  0.1068  0.0625 -0.1119
13012W        W29146  16.417  15.864  12.412 -0.1114  0.1674 -0.0036
13013W        W29147   7.506  13.842   1.292 -0.0258  0.0126 -0.3634
13014W        W29148   4.488   0.872  14.925 -0.1424 -0.2792  0.2738
13015W        W29149   4.376   8.066  12.288  0.0144 -0.3279  0.1173
13016W        W29150  12.678   2.222  13.699  0.3417  0.1117 -0.0957
13017W        W29151  11.655   8.971  12.233  0.0098  0.1387  0.0754
13018W        W29152  12.441   4.088   2.564  0.2720 -0.4643 -0.0534
13019W        W29153  17.484  15.094   4.947 -0.0475 -0.1676  0.3317
13020W        W29154  11.389  12.867   0.471 -0.1811 -0.1597 -0.4813
13021W        W29155  12.142   0.507  11.324 -0.3659 -0.0272 -0.1491
13022W        W29156  14.647  13.562  11.271  0.0451  0.2325 -0.1053
13023W        W29157  11.398  10.915   0.564  0.0255 -0.1178 -0.0758
13024W        W29158   9.742  17.365  13.400 -0.1157 -0.0372 -0.2452
13025W        W29159  12.621  10.632  11.864  0.2846 -0.2662 -0.1081
13026W        W29160   7.264  16.647  10.861  0.0054  0.2046  0.0894
13027W        W29161  11.115   2.458  12.389  0.1964 -0.2670  0.1029
13028W        W29162   3.856   8.693   1.678 -0.3188 -0.0512  0.1038
13029W        W29163  10.633  17.994  11.602 -0.0879  0.0866 -0.0093
13030W        W29164   3.240   9.407   2.141  0.1591  0.3021 -0.1519
13031W        W29165   2.327   3.877   3.472  0.3272  0.2041 -0.0239
13032W        W29166  11.331   3.009   1.825  0.0325  0.1159  0.0210
13033W        W29167   0.160  16.601   1.398 -0.0585 -0.0233  0.0618
13034W        W29168  15.584  13.217   3.519 -0.0160 -0.0619 -0.1811
13035W        W29169  16.295   9.264   5.226  0.0485 -0.1268  0.2232
13036W        W29170   8.925   4.902  10.987  0.0026 -0.1799 -0.1046
13037W        W29171   4.824   6.706   4.064 -0.1238 -0.0562  0.0777
13038W        W29172  12.406   6.269  14.784  0.0167  0.2128  0.2288
13039W        W29173  11.051   6.872  13.969 -0.2022 -0.1753  0.0916
13040W        W29174   9.910  16.083   4.079 -0.0559  0.0331 -0.0393
13041W        W29175   1.241  18.305  12.706 -0.1315 -0.4001  0.1574
13042W        W29176  11.938  18.111   6.511  0.1866  0.1780  0.3803
13043W        W29177  13.933   5.045   4.931  0.2419  0.0179 -0.1791
13044W        W29178   9.405  18.090   0.773 -0.0222  0.1030 -0.1649
13045W        W29179  12.506  14.332   5.250 -0.0112  0.0661  0.0240
13046W        W29180   9.550   1.622   4.898 -0.0890  0.4389 -0.1945
13047W        W29181  12.444   8.755   0.497 -0.1314 -0.2074  0.0150
13048W        W29182  16.193  13.493   0.710 -0.1818 -0.3694  0.0146
13049W        W29183   6.373   5.426   9.461 -0.4325  0.1851 -0.3417
13050W        W29184   6.659  10.946  12.073 -0.3798 -0.2563  0.0579
13051W        W29185   0.329  19.181  14.420  0.0043 -0.1375  0.0514
13052W        W29186   3.098  11.704   0.086  0.0886  0.0040  0.1123
13053W        W29187   6.923  17.820   4.534 -0.2589 -0.0158 -0.3302
13054W        W29188   5.404  10.001   0.187  0.1424  0.1570  0.1247
13055W        W29189   7.416   1.504  12.060  0.2741 -0.1419 -0.1725
13056W        W29190   5.938  13.823  12.063 -0.0256 -0.1774 -0.0809
13057W        W29191   2.931   7.862   3.229 -0.1048 -0.1746 -0.0333
13058W        W29192   8.600   3.444  13.259  0.1351 -0.1412  0.0787
13059W        W29193   5.761   4.015   1.107 -0.0695 -0.0708 -0.0966
13060W        W29194   5.922   7.275   1.323  0.1188  0.2232 -0.1682
13061W        W29195   7.103  11.636  14.391 -0.1889 -0.1706 -0.2608
13062W        W29196  11.829  17.064   4.675 -0.3971 -0.0830 -0.0865
13063W        W29197  17.689   3.511   3.427 -0.2010  0.2946 -0.0889
13064W        W29198  18.951  10.610   3.002  0.1647  0.0179 -0.0824
13065W        W29199  17.988   5.421   1.318  0.1756 -0.4830  0.1847
13066W        W29200  14.994   8.081   0.879  0.1303  0.0556 -0.0393
13067W        W29201  14.069   5.174   9.493  0.3467  0.1320  0.1616
13068W        W29202   2.239   8.469   3.030  0.1256  0.0065  0.0979
13069W        W29203   1.508  11.389   2.121  0.1582 -0.0088  0.0641
13070W        W29204  11.073  13.927   3.415  0.2230 -0.3892  0.0846
13071W        W29205   4.479   5.868  11.091  0.2870  0.0726  0.0108
13072W        W29206   3.449   5.158  12.697 -0.0709  0.3583 -0.0157
13073W        W29207   4.606   0.330  12.316 -0.1523 -0.4205 -0.0386
13074W        W29208   6.881  18.143   0.550  0.3658 -0.0031  0.2543
13075W        W29209  18.979   6.490   5.180 -0.1728 -0.3471 -0.1521
13076W        W29210  11.355   7.469   2.377 -0.1819  0.0977  0.1750
13077W        W29211   5.588  17.428   3.510  0.0790  0.0158  0.0192
13078W        W29212   1.811   8.469   3.925  0.1670  0.0360  0.0173
13079W        W29213  11.270   5.571   1.577 -0.2117 -0.0879 -0.1455
13080W        W29214  13.723  14.836  13.267 -0.4344  0.4386 -0.1667
13081W        W29215   6.636  11.022  11.204 -0.2687 -0.1198 -0.1512
13082W        W29216   0.227   4.559  10.618 -0.0163  0.0041 -0.2956
13083W        W29217   3.973   6.183  11.688  0.0022 -0.0778 -0.0958
13084W        W29218  13.685   5.532  14.166 -0.2875  0.2007 -0.0909
13085W        W29219  12.760   3.916   4.685  0.2920 -0.1567  0.2425
13086W        W29220   2.584  17.915  12.298 -0.1178 -0.1586  0.3731
13087W        W29221  15.494  12.681   2.447 -0.1152  0.2519  0.0464
13088W        W29222  13.558   5.153  12.734  0.1544 -0.0619  0.0708
13089W        W29223   0.815  12.011   1.195 -0.0275 -0.1442 -0.3471
13090W        W29224  19.287  10.337  14.304 -0.0169  0.0727 -0.0629
13091W        W29225   6.341   2.481   0.083  0.3071  0.1235 -0.3456
13092W        W29226   8.651   2.406   4.021 -0.2708 -0.0289  0.0037
13093W        W29227  14.337   7.796  13.009 -0.3126 -0.0617 -0.0147
13094W        W29228   4.190   0.236  11.873  0.0961 -0.2001 -0.0061
13095W        W29229  15.860  12.227  11.288 -0.4241 -0.1032  0.0582
13096W        W29230   1.483   5.287   3.354 -0.2774 -0.2452 -0.1255
13097W        W29231   7.552  18.613  10.638 -0.0248  0.0943  0.0361
13098W        W29232  12.806   0.819   3.165 -0.1408  0.2769 -0.1465
13099W        W29233  12.372  10.998   2.600  0.0726  0.2200 -0.2565
13100W        W29234  15.603  11.068   1.074 -0.2126 -0.0849  0.1204
13101W        W29235   4.618  16.514  13.637  0.1131 -0.0048 -0.3286
13102W        W29236  18.695   9.613   5.821 -0.1903  0.0886  0.1699
13103W        W29237   6.738   0.672  13.558 -0.3573  0.2691 -0.1682
13104W        W29238   2.194   0.483  13.353 -0.0682  0.4158  0.0711
13105W        W29239   1.558   9.207  11.622  0.0330 -0.0236  0.0249
13106W        W29240   2.837   9.570  14.950 -0.1496  0.3514 -0.2116
13107W        W29241  19.349  10.525   2.670  0.0054  0.1595  0.1012
13108W        W29242   0.021  15.382  13.020 -0.1126 -0.0251 -0.1651
13109W        W29243  12.789   7.999   1.659  0.1627  0.0140 -0.2439
13110W        W29244  12.075  10.311  14.213  0.0040  0.0176  0.1612
13111W        W29245   7.406  14.906   1.388  0.0479 -0.0971 -0.1142
13112W        W29246   0.683   0.073  11.452 -0.2300  0.1567 -0.0696
13113W        W29247  13.869   6.424   3.729  0.2434 -0.4052 -0.0232
13114W        W29248  11.112   9.740  13.155 -0.0054  0.0120  0.2158
13115W        W29249   5.584  13.477   4.118  0.0770 -0.1790  0.1117
13116W        W29250   6.145  11.204   3.634  0.2938 -0.0091 -0.1437
13117W        W29251   7.625   6.593  10.817  0.2149  0.0116 -0.2251
13118W        W29252   8.778   2.602  12.384  0.1153  0.0120 -0.1540
13119W        W29253  12.664  13.784   1.020 -0.1677 -0.1394  0.2229
13120W        W29254  13.385   5.639   0.074 -0.1581  0.2159 -0.0013
13121W        W29255  13.418   5.790   5.630 -0.0763 -0.0182 -0.1010
13122W        W29256   6.785  16.596   2.921  0.2757  0.0487 -0.2438
13123W        W29257  11.511   1.679  11.096  0.3184 -0.0836 -0.4000
13124W        W29258   6.634  17.357  14.355  0.1709 -0.2215  0.0179
13125W        W29259  18.040  14.462   0.755  0.0165  0.2925 -0.2369
13126W        W29260   4.976   3.101  10.359  0.1589 -0.1004  0.0170
13127W        W29261  19.086   2.620  12.490  0.2877  0.2076  0.1024
13128W        W29262   6.740   2.280  14.664 -0.0446  0.0746 -0.2472
13129W        W29263  15.223   9.754   2.164  0.3161  0.1460 -0.1545
13130W        W29264  19.009   9.436   4.490  0.1718  0.1760  0.1119
13131W        W29265   9.411   1.178   0.909  0.1965  0.4156 -0.2554
13132W        W29266  17.378  10.348   2.246  0.4130  0.2396  0.1864
13133W        W29267  13.012   8.439  12.714 -0.1125 -0.1534  0.2091
13134W        W29268  11.347  18.000   3.124 -0.1469  0.2289  0.1603
13135W        W29269  19.232  14.894   1.267 -0.1006 -0.0553 -0.3503
13136W        W29270   6.503  16.650   1.019  0.1655 -0.0692  0.1980
13137W        W29271   1.408   5.060   0.953 -0.3098 -0.0149  0.1213
13138W        W29272  18.915  15.211   2.582 -0.2012 -0.0854 -0.0395
13139W        W29273   9.741   3.154   4.267 -0.1992 -0.1070  0.4788
13140W        W29274  13.983  19.002  11.819 -0.1056 -0.1855 -0.0914
13141W        W29275  14.223  10.895   2.050 -0.2351 -0.1849  0.0929
13142W        W29276   0.353   8.784  14.619  0.4163  0.0256  0.0186
13143W        W29277  15.552   5.644  10.618 -0.0061 -0.1218 -0.2278
13144W        W29278   3.711   8.337   0.694  0.0907  0.3508 -0.0086
13145W        W29279   4.332   8.003  10.128  0.2225 -0.2182 -0.0119
13146W        W29280  12.043   5.726  14.721  0.1337  0.0857 -0.0304
13147W        W29281  17.687  10.771   3.828 -0.0492  0.0632  0.0634
13148W        W29282  17.633   1.517   9.752  0.1582  0.4406  0.0387
13149W        W29283   3.475   3.528  10.077 -0.3036  0.1555 -0.0108
13150W        W29284   9.764   3.492   3.596 -0.3309  0.0894 -0.0258
13151W        W29285  11.849  13.551  10.550 -0.1581  0.4071 -0.1257
13152W        W29286  13.470   2.141  11.714 -0.0117  0.2847 -0.0354
13153W        W29287  14.341   0.874   5.155  0.1712 -0.0477 -0.2648
13154W        W29288   8.212  17.805   5.568 -0.1529  0.3261  0.1351
13155W        W29289   3.349   4.438  11.278  0.1085 -0.1650 -0.0024
13156W        W29290  11.072   4.430   2.161 -0.1327 -0.1724 -0.1970
13157W        W29291  10.426   0.350  10.836  0.1763  0.3277 -0.1415
13158W        W29292   5.237   6.556  12.640 -0.1160 -0.1784  0.0545
13159W        W29293   5.546   5.328   4.333  0.0095 -0.1901  0.1707
13160W        W29294  17.279   5.152   1.561 -0.0809 -0.0585 -0.0844
13161W        W29295  14.810  17.902   1.792 -0.2043  0.4712  0.0114
13162W        W29296  11.033  11.706  14.252 -0.2952 -0.1604  0.0793
13163W        W29297   5.182  17.751   1.595 -0.0965 -0.1395 -0.0230
13164W        W29298   7.267  13.871  12.481  0.0659 -0.3232  0.4243
13165W        W29299  17.206   2.331   1.554 -0.2153  0.0671  0.1199
13166W        W29300  14.571   6.565  11.903 -0.0620  0.0422  0.0471
13167W        W29301   2.567   5.194   0.921 -0.2750 -0.4519  0.0480
13168W        W29302   5.394   0.193   0.562 -0.2057  0.0764 -0.0004
13169W        W29303  12.475  10.408   1.374  0.0072  0.0104  0.2432
13170W        W29304   7.658  17.320   2.500  0.1047 -0.2685  0.1647
13171W        W29305  11.065   5.406  13.472  0.0884  0.2235 -0.1136
13172W        W29306   6.430   8.555  10.037 -0.0685  0.1687 -0.2241
13173W        W29307  17.815  11.389  13.498 -0.2524 -0.1721 -0.4265
13174W        W29308   2.489   8.681   3.780 -0.1793 -0.3426  0.0455
13175W        W29309   2.000   6.119   3.986  0.2313 -0.0293  0.0014
13176W        W29310   5.465   7.548  13.646  0.1225  0.4265  0.2151
13177W        W29311   9.417  10.875  10.405  0.0564 -0.0097  0.1379
13178W        W29312  17.045   2.868  10.448 -0.1324  0.0804  0.0421
13179W        W29313   5.797  11.138  10.632 -0.1439 -0.0181 -0.2045
13180W        W29314  17.612  12.134  14.971  0.2758 -0.0391  0.0496
13181W        W29315   9.673  11.669   1.365 -0.2736 -0.1672  0.0995
13182W        W29316   8.212   9.775  10.545 -0.0635 -0.0100  0.0114
13183W        W29317  16.333  10.380  14.671  0.1751  0.0728 -0.2290
13184W        W29318  12.764   2.146  12.736 -0.0977 -0.1901  0.0073
13185W        W29319   5.172   0.496  13.299  0.1101  0.3244  0.3119
13186W        W29320   7.794  11.004  11.036 -0.2233  0.0552  0.4347
13187W        W29321  11.837   4.454  14.108  0.3247  0.1174 -0.0198
13188W        W29322  16.608   0.676   6.127 -0.1059 -0.3561  0.1370
13189W        W29323  10.424   8.294  12.466 -0.4155  0.2327 -0.2051
13190W        W29324  16.336   9.029  12.799  0.1873  0.1135  0.0522
13191W        W29325   8.250  11.402  11.194 -0.2648  0.2377  0.0240
13192W        W29326  15.907   9.300   5.495 -0.1737  0.4071 -0.2105
13193W        W29327  16.604  15.165   4.054 -0.1347  0.0544 -0.0233
13194W        W29328   4.674  11.233   3.744  0.2174  0.0811 -0.0123
13195W        W29329   4.697  16.232   3.558  0.1516 -0.1078  0.1091
13196W        W29330  10.094  18.055  14.459  0.0218  0.4218  0.1331
13197W        W29331  15.910  15.448   4.271 -0.0475  0.1453  0.3215
13198W        W29332  15.897  17.032   0.269 -0.1509 -0.1544 -0.0911
13199W        W29333  16.963  12.627   3.269  0.1252 -0.0593 -0.2580
13200W        W29334  14.208   5.192   2.534  0.1094 -0.2369 -0.0247
13201W        W29335  16.364  17.420  12.504  0.0302  0.1806 -0.3690
13202W        W29336  15.168   1.137  14.668 -0.1016  0.0560 -0.1166
13203W        W29337   0.072  15.518   0.396 -0.1692  0.4580  0.0709
13204W        W29338   4.254   1.622  10.019  0.1244 -0.4492  0.0907
13205W        W29339   6.071  13.028  10.410  0.0007 -0.0080  0.0370
13206W        W29340  15.866   0.288  12.545  0.0262  0.0067  0.0842
13207W        W29341   0.055  10.987   9.154  0.0272 -0.3398 -0.2327
13208W        W29342  15.747   0.076   4.301 -0.1453 -0.1276 -0.0070
13209W        W29343   3.372  11.253  12.658  0.3114  0.0187  0.0661
13210W        W29344  10.323  17.562   2.723 -0.1021  0.0683 -0.2136
13211W        W29345   2.024   4.204   0.480 -0.3821 -0.1233  0.2005
13212W        W29346   9.574  11.342   3.873  0.4142  0.2302  0.0278
13213W        W29347  16.749  16.304   2.571 -0.3023  0.0755  0.0753
13214W        W29348   3.449  17.314   1.055 -0.0240  0.5417  0.2777
13215W        W29349   0.987  10.079   4.523 -0.3720 -0.0007 -0.1409
13216W        W29350   3.780  12.752  12.370 -0.3562  0.1421 -0.4789
13217W        W29351  11.631  17.620   1.093  0.1566  0.2072  0.2273
13218W        W29352  17.887  19.188   2.980 -0.0782 -0.0556 -0.0926
13219W        W29353  11.080  19.273   3.842  0.3916  0.1057 -0.0988
13220W        W29354   6.075   7.442   1.775 -0.1100  0.0466  0.4106
13221W        W29355   8.064   9.295  11.505  0.1786 -0.1805  0.2659
13222W        W29356   0.361  15.029   1.848 -0.1868  0.3418  0.2165
13223W        W29357   4.402   1.667  12.313 -0.1326 -0.0486 -0.1511
13224W        W29358   2.445  13.984   4.562 -0.1547 -0.2199  0.3824
13225W        W29359   9.067  14.197  13.454  0.0477 -0.2116 -0.2735
13226W        W29360   6.396   4.175  11.173 -0.2768 -0.1948  0.4121
13227W        W29361  13.116   3.831   5.009 -0.0813 -0.1760 -0.1543
13228W        W29362   7.760  18.973   0.623 -0.1419  0.1148 -0.0552
13229W        W29363  17.856  18.109  13.711  0.0556  0.0755  0.1534
13230W        W29364   6.832   0.944  11.978 -0.2409 -0.1478 -0.0479
13231W        W29365  12.484   7.595   2.487  0.2453  0.2840 -0.1086
13232W        W29366   5.349   9.340   9.935  0.1887 -0.0018  0.2177
13233W        W29367  17.313  16.406   2.676  0.0703 -0.1645 -0.0479
13234W        W29368   0.490   1.313   1.077 -0.2042 -0.3703  0.2423
13235W        W29369  18.788   6.975   3.498  0.0845  0.1183  0.5240
13236W        W29370  12.629   9.438  13.382 -0.1325  0.0541  0.3427
13237W        W29371  16.029  12.725  11.015  0.2860  0.2906 -0.2277
13238W        W29372  15.597   5.946   3.631  0.0013 -0.0345 -0.2382
13239W        W29373  16.447   0.062  11.453 -0.0446  0.2774 -0.1766
13240W        W29374   2.333   3.001   1.491 -0.0577 -0.0123 -0.2444
13241W        W29375  15.754  13.945  13.904 -0.0045 -0.0357 -0.1899
13242W        W29376   5.207  14.915  11.598 -0.0784 -0.0031 -0.2528
13243W        W29377   1.096   5.338  14.086 -0.0955  0.0425 -0.2272
13244W        W29378   3.075   9.473   3.256 -0.1130 -0.3211 -0.1939
13245W        W29379   4.812   4.522  11.384 -0.0398  0.0311  0.1195
13246W        W29380  15.551   0.765  14.105  0.1004  0.3537 -0.1681
13247W        W29381  12.606   9.299  12.391 -0.1539 -0.0060 -0.0451
13248W        W29382   0.295   6.712  14.938 -0.0893 -0.1937  0.1386
13249W        W29383   3.423   7.772  14.841  0.0929 -0.1863  0.0032
13250W        W29384  13.569   3.473   4.484  0.1915  0.2304  0.0386
13251W        W29385   9.833   4.557  12.591 -0.3021  0.0056  0.0435
13252W        W29386   1.770   5.867  12.644 -0.1521 -0.1512 -0.2184
13253W        W29387   3.593   5.910  12.122  0.0391 -0.2412  0.1909
13254W        W29388   6.207   6.537   3.413  0.3163  0.0583 -0.0302
13255W        W29389   6.304   2.805  10.376  0.0874  0.2958  0.1234
13256W        W29390  17.490  11.781   1.064 -0.1999  0.2009 -0.0711
13257W        W29391   1.601   0.042   1.936  0.5154  0.0633 -0.2348
13258W        W29392  17.910  10.152  10.476  0.0718  0.1336  0.0563
13259W        W29393   3.446   7.924  13.346  0.0988  0.1042 -0.2384
13260W        W29394   0.224  10.694  13.310 -0.1566 -0.1658 -0.0301
13261W        W29395  16.686  17.680  11.192 -0.3176  0.2527 -0.1367
13262W        W29396   5.327  16.656   0.375  0.0195 -0.2236 -0.1577
13263W        W29397   5.104   0.939   1.153  0.1220 -0.1036 -0.1380
13264W        W29398  11.419  13.296   2.246  0.2250 -0.0459 -0.0653
13265W        W29399   6.922  12.377   9.886  0.3478  0.1696 -0.0100
13266W        W29400   2.439  18.487   3.767  0.0318 -0.3150 -0.0221
13267W        W29401   4.251  14.258   9.757  0.2653  0.1622  0.0615
13268W        W29402   2.612   2.000  12.175 -0.2125  0.0265 -0.3350
13269W        W29403   8.563   2.898  10.691  0.1277 -0.0284 -0.1349
13270W        W29404   0.741   7.829   2.871 -0.1094  0.0129 -0.1935
13271W        W29405   6.998  18.776   2.801 -0.2706 -0.1555 -0.1037
13272W        W29406   7.445   9.835   1.888 -0.0038 -0.3549 -0.0228
13273W        W29407   1.279  15.545   1.116  0.2675 -0.1297 -0.1063
13274W        W29408   4.011  13.895   4.329 -0.0069 -0.0051 -0.1087
13275W        W29409   4.262   0.227  10.633 -0.2916  0.3673  0.1232
13276W        W29410  11.778  18.945   6.199  0.0926 -0.1413 -0.2870
13277W        W29411  10.571  16.580   4.502 -0.0686  0.4401  0.0163
13278W        W29412   2.317   7.229  13.382 -0.0459 -0.0192  0.0466
13279W        W29413  11.954  13.072  11.489 -0.1938  0.3384  0.1940
13280W        W29414  17.610  16.829  12.184  0.0157 -0.3735 -0.0388
13281W        W29415  10.464  13.337   0.600 -0.0296 -0.4156  0.4452
13282W        W29416   3.969   9.514  10.698 -0.1075  0.0048 -0.0771
13283W        W29417  15.817  18.837   2.044 -0.1168  0.1719  0.1802
13284W        W29418   7.002  13.039   2.395  0.2018 -0.0618  0.3599
13285W        W29419  18.230  19.083  14.197  0.2880  0.0638  0.1321
13286W        W29420  15.719   7.103   1.741  0.0314 -0.0970  0.1756
13287W        W29421   5.378  17.543   2.219 -0.1264  0.2090  0.1276
13288W        W29422  17.239  18.193   1.825 -0.2083 -0.1329  0.0237
13289W        W29423   1.821   2.074  12.927  0.1048  0.3872  0.2675
13290W        W29424  15.844  14.601   4.188 -0.0133 -0.1201 -0.3570
13291W        W29425   8.633   4.857  13.785  0.0581  0.0529 -0.1372
13292W        W29426  16.318   8.606   4.749 -0.2233  0.0839  0.2129
13293W        W29427   0.757   1.046   0.178 -0.0377  0.1850 -0.0640
13294W        W29428   6.558   3.753  11.465 -0.0773  0.3047  0.1663
13295W        W29429  17.332   2.976  14.425  0.1523 -0.2437 -0.1065
13296W        W29430  12.177   2.975   1.503 -0.0186 -0.2020 -0.1545
13297W        W29431   6.946  15.707   0.257 -0.2741  0.1809  0.1593
13298W        W29432  13.269  11.617   2.848 -0.0703  0.0854  0.0988
13299W        W29433   3.923   4.872  13.590  0.1616 -0.0412 -0.2953
13300W        W29434   3.974  18.183   4.526  0.1722  0.2437  0.1061
13301W        W29435   5.918  11.991   4.101  0.1201 -0.0628 -0.1950
13302W        W29436  18.768  15.292   3.517  0.0491  0.1752  0.0183
13303W        W29437  11.961   4.992  10.689 -0.2306  0.1636 -0.0603
13304W        W29438   6.482  16.077   0.420 -0.2077 -0.2343 -0.0649
13305W        W29439  10.457  15.922  12.375  0.0244 -0.0222  0.2635
13306W        W29440  14.777  12.504  13.501  0.0746  0.3925 -0.1744
13307W        W29441  13.551   2.146  14.263 -0.1505  0.0835 -0.3019
13308W        W29442  15.631  17.528   0.998 -0.0292  0.0990 -0.1560
13309W        W29443  13.815   9.889  12.949 -0.1790  0.2398  0.1929
13310W        W29444   6.419   1.736   1.364 -0.1561 -0.3942  0.0182
13311W        W29445   6.471  13.063  14.603 -0.0093  0.0337  0.2070
13312W        W29446   8.733   7.834   0.984  0.2016 -0.3286  0.2701
13313W        W29447  12.132  14.383   4.432  0.0281 -0.0838  0.1456
13314W        W29448  18.837  12.873   3.176 -0.1800 -0.0112 -0.2670
13315W        W29449   6.982   7.777  11.402 -0.0331 -0.1187 -0.0137
13316W        W29450  13.243  18.777  11.132 -0.1215  0.0350 -0.2334
13317W        W29451   7.418  11.274   1.613 -0.0214 -0.1574  0.0373
13318W        W29452   2.563  15.586  12.278 -0.0167 -0.0044 -0.3359
13319W        W29453   1.269  16.897   5.526  0.3157  0.1053  0.0035
13320W        W29454  15.355  13.668   9.797  0.0189  0.2879  0.0704
13321W        W29455  11.577   4.014   2.938  0.1183  0.1073 -0.2604
13322W        W29456  19.189   1.723   5.472  0.1566  0.1258  0.0285
13323W        W29457   7.823  12.702  11.969  0.0283 -0.0979  0.0822
13324W        W29458  17.099   3.255  12.140 -0.0375  0.2230  0.0538
13325W        W29459  11.962   1.492   0.081 -0.0216 -0.2373 -0.2003
13326W        W29460   9.782  11.818   5.292 -0.0175  0.2678 -0.0403
13327W        W29461  15.155  12.549  13.873  0.0413 -0.1004 -0.0126
13328W        W29462  12.912  13.109   2.454 -0.0354  0.0689 -0.2495
13329W        W29463  13.377  10.771  11.348  0.3164  0.0225 -0.0908
13330W        W29464  11.100   8.664  13.107 -0.3205 -0.1334 -0.0053
13331W        W29465   2.263  12.036  13.560 -0.0238  0.3564 -0.0036
13332W        W29466   0.536   4.806   4.682  0.0842 -0.1328 -0.4729
13333W        W29467  12.289   8.721   5.133 -0.2968 -0.1819  0.4042
13334W        W29468  10.043   6.425  11.178  0.3100  0.0650  0.2047
13335W        W29469  18.590   4.713   3.939 -0.1807  0.2480  0.0407
13336W        W29470   8.097   0.946  13.326 -0.0571  0.1028  0.1889
13337W        W29471   2.208   9.281   9.937 -0.1845 -0.1260  0.2269
13338W        W29472  16.225  10.699  10.411 -0.0241  0.1568 -0.3989
13339W        W29473   0.362  13.345   1.499  0.2419  0.1973 -0.0839
13340W        W29474  19.317   9.088   9.727  0.2122  0.1098 -0.1308
13341W        W29475   4.435  17.021   4.031  0.2336  0.1011 -0.1460
13342W        W29476  14.278   5.857   0.335  0.0210 -0.3034  0.2603
13343W        W29477   6.322  14.390   2.406  0.0024 -0.1321 -0.2474
13344W        W29478   2.159   7.150   0.245  0.0968 -0.2321 -0.0076
13345W        W29479   7.481   9.820   4.285  0.1315 -0.2029  0.0415
13346W        W29480  12.793  18.082   3.053  0.0472  0.1542 -0.0868
13347W        W29481   6.462   5.868   4.560  0.1248 -0.0197  0.1602
13348W        W29482  14.963  13.012  14.695 -0.0412 -0.1982  0.1250
13349W        W29483   6.426  18.369   0.814 -0.0319 -0.1819  0.2791
13350W        W29484   3.660   9.490  12.247 -0.0139 -0.0839 -0.0293
13351W        W29485   2.006  12.341  11.409 -0.3599  0.1284 -0.0800
13352W        W29486  17.017   6.884   0.916  0.0426  0.1410 -0.1954
13353W        W29487   8.813  14.134   5.586 -0.2259 -0.1761 -0.2029
13354W        W29488  10.096   9.023  14.143  0.1554  0.0873 -0.1528
13355W        W29489  12.884   7.119  10.253  0.3157 -0.2090 -0.0873
13356W        W29490   3.486   3.011  13.421  0.1022 -0.4517 -0.0537
13357W        W29491  18.863   0.004   3.971 -0.1325  0.1852  0.0925
13358W        W29492   0.416  15.274  10.461  0.1486  0.1018 -0.0866
13359W        W29493  13.364   1.990  11.096  0.3684  0.2508  0.0118
13360W        W29494  18.651   5.199   3.913 -0.2362  0.1065 -0.0968
13361W        W29495  18.868   6.976  12.700  0.1083  0.1000 -0.1151
13362W        W29496   6.841  17.426   3.762 -0.1426 -0.2567 -0.2711
13363W        W29497  16.240   8.289  10.179  0.1826  0.1256 -0.1442
13364W        W29498   8.362   5.961   1.874 -0.3152 -0.1539  0.1619
13365W        W29499   7.967   9.788  11.202  0.2050  0.0799 -0.0837
13366W        W29500   5.245   3.231   0.525 -0.3842 -0.2253  0.1786
13367W        W29501   0.782  18.309   1.606  0.2237 -0.2832 -0.1343
13368W        W29502   4.855   3.494   1.741  0.0517  0.1311 -0.0268
13369W        W29503   6.978   5.133   3.095  0.1485  0.2366  0.0996
13370W        W29504  10.789  10.077   5.506 -0.0178 -0.3858 -0.3880
13371W        W29505   5.161   9.540   4.072  0.2209 -0.1000  0.0631
13372W        W29506   1.490   8.997  14.312  0.2855  0.3221  0.2033
13373W        W29507  17.433   9.444   1.818  0.1869  0.0471 -0.1257
13374W        W29508   2.809  15.142  13.805  0.1499  0.3652  0.1774
13375W        W29509   6.663   8.112   0.403  0.2087 -0.1773  0.2137
13376W        W29510  19.278  11.524   9.880  0.1076 -0.0466  0.1567
13377W        W29511  13.846   8.852  10.526  0.0362  0.0450  0.1907
13378W        W29512   1.054   9.205   4.245 -0.1309 -0.0431 -0.3084
13379W        W29513   1.610  10.605  14.160 -0.2793 -0.0808  0.2805
13380W        W29514  16.565  19.262   4.263  0.1767  0.1146  0.1918
13381W        W29515   5.804  19.221   4.717  0.0983 -0.0828 -0.1259
13382W        W29516  15.319  19.232   4.981  0.2926  0.0223 -0.1552
13383W        W29517   3.931   0.455  11.366  0.1278  0.1981  0.3051
13384W        W29518  15.717   8.167   2.247 -0.2366  0.3298  0.2366
13385W        W29519   0.682   6.923  12.670  0.1438  0.1116 -0.3346
13386W        W29520  17.600   5.515  10.490 -0.1642 -0.0575 -0.0883
13387W        W29521   8.423   7.636  13.246 -0.1662 -0.0586  0.3550
13388W        W29522   4.329   4.017  12.665 -0.2343  0.0315 -0.0721
13389W        W29523   6.805   3.602  14.271  0.2072 -0.1487 -0.2139
13390W        W29524  14.712   1.806   2.678  0.0542  0.0594  0.0939
13391W        W29525   6.728   1.057   4.166  0.2820  0.0889  0.1682
13392W        W29526  10.950   9.634  13.649 -0.1099 -0.1384 -0.1186
13393W        W29527  18.828  12.467  14.025  0.0252 -0.1059 -0.0755
13394W        W29528  16.754   4.527   3.167 -0.2004 -0.2725  0.1950
13395W        W29529  15.227  10.268   2.012 -0.3433  0.1934  0.1795
13396W        W29530   2.720  12.771   0.319 -0.2194  0.1530 -0.2379
13397W        W29531   6.230  16.317   4.538 -0.4121 -0.0609 -0.2143
13398W        W29532  12.914  10.058  12.924 -0.0794  0.4039  0.0087
13399W        W29533  13.571   8.655  11.943 -0.0691 -0.3765 -0.1824
13400W        W29534  10.157   3.645  11.588 -0.2895  0.1692 -0.1783
13401W        W29535  11.236  14.854   4.873 -0.5317 -0.3634 -0.2825
13402W        W29536  19.298   9.086   4.093  0.4082  0.1910 -0.0269
13403W        W29537  10.927   7.178  11.925 -0.3071  0.1693 -0.2478
13404W        W29538  17.329   5.514   2.985  0.0731  0.1129 -0.0019
13405W        W29539   4.739   0.177  14.209 -0.1315  0.3827  0.1720
13406W        W29540   9.043   8.095   3.311  0.0770 -0.0007 -0.0527
13407W        W29541   5.756   3.409   2.219  0.0127 -0.3472 -0.3666
13408W        W29542  10.001  11.365  11.915 -0.1628 -0.0604 -0.2973
13409W        W29543  11.492  14.902   1.735  0.0107 -0.3528 -0.4085
13410W        W29544   0.306  10.342   3.701  0.1161  0.1839 -0.0428
13411W        W29545   2.066  13.180  14.515  0.0059  0.1967  0.2981
13412W        W29546   6.979   2.733  12.539 -0.0230  0.2028 -0.0149
13413W        W29547  18.134  11.155   0.740  0.0838  0.0360 -0.1325
13414W        W29548   3.825  17.289   3.350  0.2152 -0.0175 -0.0754
13415W        W29549   6.403  11.878  12.847 -0.1624 -0.0221  0.1312
13416W        W29550  15.477  14.175   4.022 -0.1414  0.4259  0.1363
13417W        W29551  18.898   2.479  11.897  0.0294  0.1524 -0.0945
13418W        W29552   3.040   6.249   1.781  0.4015  0.1187  0.0991
13419W        W29553   0.615   5.519   2.979 -0.2935 -0.0864 -0.0706
13420W        W29554  18.416   5.008  11.415 -0.2512 -0.1148  0.0060
13421W        W29555   4.554   9.184   1.839 -0.1465 -0.1953 -0.3516
13422W        W29556  14.738   5.245  11.881  0.1450 -0.1456  0.0105
13423W        W29557  18.619   3.677  10.873  0.0550  0.4227  0.1052
13424W        W29558   3.206   9.789   4.347 -0.1861  0.0723  0.0459
13425W        W29559   2.121   5.615  13.192  0.0217  0.0999 -0.0352
13426W        W29560  13.816  10.371  14.298  0.1053 -0.0102 -0.0039
13427W        W29561  15.921  10.647   5.129 -0.0167  0.1839 -0.1913
13428W        W29562  18.942   0.535   3.863 -0.0342 -0.4375  0.0953
13429W        W29563  11.763   4.030   3.424  0.1682  0.3462 -0.1302
13430W        W29564  10.056  14.610   4.933 -0.1774  0.0579  0.3651
13431W        W29565   8.569  10.582  14.777  0.3084  0.0687 -0.0525
13432W        W29566  14.953  13.925  14.777  0.2155  0.2244 -0.0382
13433W        W29567  17.575   2.188  11.320 -0.0181 -0.0783 -0.0523
13434W        W29568  16.168   7.023  10.356  0.3086  0.1738 -0.1068
13435W        W29569  16.272   7.133  10.838 -0.0882  0.0937  0.4754
13436W        W29570   7.701  14.990   5.466 -0.0414 -0.0632 -0.0870
13437W        W29571   4.095  16.088   1.089 -0.3319  0.1050  0.3829
13438W        W29572   8.685   5.199   1.337 -0.0127  0.1825 -0.2315
13439W        W29573  19.179   2.638   2.251  0.1556 -0.0455 -0.0514
13440W        W29574   1.190  14.631  12.931 -0.2493  0.1885 -0.0599
13441W        W29575  11.892  10.367   2.316 -0.3318 -0.1001 -0.0067
13442W        W29576   6.282  11.764   0.870  0.3706 -0.0470 -0.1395
13443W        W29577   0.336  16.008  12.098 -0.2842 -0.0004  0.2303
13444W        W29578   4.289   9.044   0.361 -0.2068  0.2159  0.2245
13445W        W29579   5.825  14.067   3.345  0.2249 -0.2165 -0.2806
13446W        W29580   5.894  18.173   2.260  0.2476 -0.1390 -0.0065
13447W        W29581  15.577   8.267  11.145 -0.0506 -0.3092  0.0600
13448W        W29582   5.764   6.019  11.962 -0.0699  0.3762  0.0380
13449W        W29583   4.396  17.301  11.559 -0.1535  0.0873 -0.0634
13450W        W29584  17.597  15.359   2.245 -0.2972 -0.1143 -0.0965
13451W        W29585  15.010   3.774   3.837 -0.0368  0.0440 -0.1922
13452W        W29586   8.952   5.829   1.965  0.0694  0.0050 -0.0292
13453W        W29587   1.137   4.934  13.787  0.2284  0.0426  0.0205
13454W        W29588   7.983   1.762   2.614  0.5282 -0.1985 -0.1371
13455W        W29589   4.058   5.219   9.718 -0.0572 -0.2284  0.0284
13456W        W29590  12.156   5.157  12.035  0.1019 -0.1257 -0.2859
13457W        W29591  17.288  12.435   2.406  0.2905 -0.2123 -0.3146
13458W        W29592   6.822   7.105  14.220 -0.1717 -0.3348  0.0310
13459W        W29593   1.595  18.123  13.006 -0.0282  0.1182  0.0609
13460W        W29594  11.033  18.212   4.485 -0.0152  0.3903 -0.0408
13461W        W29595   9.271   6.911  12.385  0.1443  0.0267 -0.0072
13462W        W29596   7.445   3.642  12.492  0.2102  0.1122 -0.1187
13463W        W29597   4.108   9.868  10.341 -0.1809 -0.2581  0.3082
13464W        W29598  19.031   6.384   0.628  0.0831 -0.1298  0.0213
13465W        W29599  18.566   3.202  14.371 -0.0345 -0.2157  0.0265
13466W        W29600   7.227   9.107   1.880 -0.1106 -0.1838  0.0257
13467W        W29601   7.031  11.920   2.281  0.1315  0.0575  0.0296
13468W        W29602  16.967   5.270  12.863  0.0254  0.0951 -0.1747
13469W        W29603  11.897   9.572   1.537  0.0527  0.2849  0.2795
13470W        W29604   9.435  18.461   6.143  0.0376 -0.3370  0.0520
13471W        W29605  16.837   2.805  14.692 -0.0133 -0.4214 -0.1074
13472W        W29606  15.500  16.941   3.621  0.1719  0.0619 -0.0254
13473W        W29607  16.911  18.292   0.046  0.0026 -0.3291 -0.0335
13474W        W29608   1.838  13.147   9.482 -0.2529  0.0856 -0.2310
13475W        W29609   6.063   7.428  13.623 -0.0081  0.0669 -0.0149
13476W        W29610   9.911   5.196   4.806 -0.0187  0.0589 -0.0746
13477W        W29611  14.058  17.322  14.032 -0.2782  0.0918  0.3164
13478W        W29612   5.967  19.071  13.652 -0.2494 -0.1231  0.5385
13479W        W29613  18.448   0.726   4.025  0.0148 -0.2313 -0.2446
13480W        W29614  13.867   5.929   1.876  0.2058  0.0752 -0.0220
13481W        W29615   7.465   5.669   1.041  0.2681  0.2785  0.2125
13482W        W29616   8.407  17.926   0.603  0.2712  0.0724 -0.1687
13483W        W29617  14.904   7.037   2.089 -0.0678  0.1750  0.1275
13484W        W29618   1.024  16.023  13.879 -0.0369 -0.0295 -0.0908
13485W        W29619   2.067   6.150  14.524 -0.0410  0.0075  0.0918
13486W        W29620  17.355  10.919  11.355  0.0733  0.2301 -0.2128
13487W        W29621  11.027   1.990  11.769 -0.1023  0.1762  0.0893
13488W        W29622  10.137  17.056   3.057 -0.1243  0.1982  0.0587
13489W        W29623   2.941  14.090  11.752 -0.1346 -0.3215 -0.0970
13490W        W29624   4.854   7.077  10.258 -0.0084 -0.0848  0.0240
13491W        W29625   6.215  13.391  12.804 -0.1742 -0.2203  0.1408
13492W        W29626   6.062  15.305   3.837 -0.0050 -0.0777 -0.2286
13493W        W29627   9.017  18.361  14.710  0.2439  0.1212 -0.1386
13494W        W29628   8.769   3.258   1.930  0.0063 -0.1252 -0.0408
13495W        W29629  16.541  16.567   0.535  0.1317  0.0105  0.2086
13496W        W29630  17.707  12.141   4.591  0.2543  0.0477 -0.1840
13497W        W29631  17.802  11.865  14.593 -0.0653 -0.0680 -0.1449
13498W        W29632  12.281   6.299   0.732 -0.1371  0.2569  0.2126
13499W        W29633  17.289   2.958   0.012 -0.0456  0.2920 -0.0494
13500W        W29634   8.732   2.069   9.508 -0.1419 -0.4143 -0.0967
13501W        W29635   4.590  15.712   2.626 -0.2332  0.0243  0.3311
13502W        W29636  15.980  16.071  12.268 -0.3489 -0.0689 -0.0467
13503W        W29637  12.671  13.065  14.345  0.2014 -0.0722  0.1699
13504W        W29638   7.812  12.098  14.623 -0.2174  0.2111  0.2582
13505W        W29639   3.288   2.509  11.031 -0.0701 -0.1161 -0.2208
13506W        W29640   1.598   1.919   2.475  0.0797 -0.2606 -0.1189
13507W        W29641   1.526  13.888  14.949 -0.2063 -0.2994  0.0723
13508W        W29642   6.126  12.214   1.369  0.2869 -0.2141  0.0662
13509W        W29643   1.109   5.855  13.913  0.1028  0.0013 -0.2869
13510W        W29644  14.135  14.343   3.070 -0.0498  0.0363  0.1763
13511W        W29645  13.370  15.729  11.760 -0.0378 -0.3710  0.2227
13512W        W29646   6.688   7.472  11.183  0.3279 -0.0990 -0.0393
13513W        W29647  19.252  12.005  10.274 -0.1487  0.2382 -0.0705
13514W        W29648   4.151  11.256   3.581 -0.5494  0.0362 -0.1294
13515W        W29649   7.014   9.636   0.332  0.0259  0.1410  0.1253
13516W        W29650   0.383   9.855  14.540 -0.0760 -0.1136 -0.3864
13517W        W29651   4.053  15.018   9.871  0.1286 -0.0203  0.0628
13518W        W29652   6.836  18.149   1.085  0.0169  0.1053 -0.0236
13519W        W29653  14.900  15.831  14.686  0.2390  0.4093  0.0823
13520W        W29654   5.127   2.161  14.334  0.1592  0.0634 -0.0058
13521W        W29655   8.831  16.425   1.647  0.2405  0.1875 -0.3904
13522W        W29656   1.825   4.303  10.257  0.3102  0.1169  0.1418
13523W        W29657  11.243   2.762   0.522 -0.1387  0.1638  0.2147
13524W        W29658  17.593  15.634  11.407  0.0468 -0.0072  0.0040
13525W        W29659  12.646  10.730   4.191 -0.1496 -0.1751  0.0390
13526W        W29660  13.276   3.367  11.275  0.1255  0.0385  0.2126
13527W        W29661   6.897   8.556   4.604  0.3883  0.0555 -0.1616
13528W        W29662  16.825  12.997  12.493  0.0917  0.2183  0.4316
13529W        W29663   8.947  10.675  14.472  0.1693 -0.0787 -0.0358
13530W        W29664  13.335   7.806  14.428  0.0811 -0.4506 -0.0852
13531W        W29665  10.830   8.579  14.480 -0.4487 -0.1367 -0.0505
13532W        W29666  18.850   6.392   2.001 -0.2999 -0.0791  0.0129
13533W        W29667   6.138   8.580   9.535 -0.0139  0.0992 -0.3776
13534W        W29668   3.027  13.646  14.147  0.1240  0.4331  0.3214
13535W        W29669  10.921  12.751  12.657 -0.0045 -0.0915 -0.0127
13536W        W29670  17.299  16.058   0.913  0.1998  0.0119  0.2138
13537W        W29671  10.258   4.242  12.525 -0.6302 -0.3343  0.0790
13538W        W29672  13.631   6.891   5.577 -0.1514  0.0766 -0.1030
13539W        W29673  16.916  15.070   1.006  0.1611 -0.1259 -0.2944
13540W        W29674  17.107   9.090   3.181 -0.0261  0.1555  0.2240
13541W        W29675   8.642  18.352   0.071 -0.0082  0.0832  0.4393
13542W        W29676  17.001  15.948   1.801  0.3373 -0.0920  0.1464
13543W        W29677   3.492   9.824   5.453 -0.0457  0.1712  0.0680
13544W        W29678  19.150  12.354   3.109  0.0225  0.1348 -0.0376
13545W        W29679   5.575  14.610   0.876  0.0827  0.0787  0.2984
13546W        W29680  12.031  16.918  14.143  0.1458  0.0269  0.0950
13547W        W29681  12.110  10.764  11.835 -0.0344 -0.3412 -0.0166
13548W        W29682   3.008  18.771  14.706  0.1990  0.0078 -0.1804
13549W        W29683   8.494  16.141   5.080 -0.0139 -0.0902  0.3668
13550W        W29684  18.232   8.024  10.040 -0.2259 -0.1903 -0.0504
13551W        W29685   5.096  14.337  13.497 -0.2095  0.2043 -0.1211
13552W        W29686  11.886  13.857   3.058 -0.0838  0.2994  0.0474
13553W        W29687   2.697   9.173   2.457  0.0617  0.4797  0.1703
13554W        W29688   6.447   5.850   1.373 -0.1154 -0.1265  0.0239
13555W        W29689   0.314  16.535   4.027 -0.3403  0.0808 -0.1139
13556W        W29690  12.099  11.273  11.602 -0.0234  0.0272 -0.1925
13557W        W29691   6.457   6.272   3.064  0.4329  0.2169 -0.1678
13558W        W29692   1.448  13.084   0.118 -0.0917  0.0797  0.1687
13559W        W29693   3.802   5.544   3.467 -0.3953 -0.2477 -0.0828
13560W        W29694  13.485   1.848  13.327  0.2670  0.2759  0.1479
13561W        W29695  13.293  13.384  12.314 -0.4697  0.1312 -0.0598
13562W        W29696  16.249   9.630  13.510 -0.0821 -0.0319 -0.2489
13563W        W29697  13.393  14.535   0.746 -0.3307  0.1481  0.0750
13564W        W29698   5.460  10.486  11.742 -0.3770 -0.2668  0.2702
13565W        W29699   9.537  13.914   3.834  0.4866  0.0810 -0.0425
13566W        W29700  18.352   3.555  11.338 -0.2864 -0.2822 -0.0216
13567W        W29701  16.070   5.847   2.098 -0.3117  0.0740  0.1858
13568W        W29702   8.156   8.098  13.005 -0.1316 -0.3518 -0.2107
13569W        W29703   7.218   4.144  11.158 -0.0258 -0.2287  0.1554
13570W        W29704  13.941  10.810   5.593  0.0076  0.4175 -0.1047
13571W        W29705  15.255   8.775  13.933  0.2498  0.0760  0.3321
13572W        W29706  14.332  17.876   0.952  0.2211 -0.1064  0.0932
13573W        W29707  16.428  11.740   3.239 -0.1367  0.0204  0.0826
13574W        W29708  18.228  10.143   3.194  0.1095 -0.0324 -0.0903
13575W        W29709   9.781   2.762   0.383 -0.1400  0.2544  0.2194
13576W        W29710  13.048  16.201  13.682  0.0172  0.0062 -0.0582
13577W        W29711  12.952  15.970   1.378 -0.3841 -0.1405 -0.2043
13578W        W29712  13.182  14.054   2.259 -0.0687  0.2355 -0.2515
13579W        W29713   9.264  11.953  12.171  0.0461  0.0980 -0.1257
13580W        W29714  17.908   5.409  13.651 -0.2264  0.1287 -0.0148
13581W        W29715  19.052  11.847  11.207 -0.0149  0.1403  0.4378
13582W        W29716   5.318   5.475   3.609  0.2236 -0.0565 -0.0570
13583W        W29717   4.515  12.166  10.652  0.2574  0.1593 -0.0034
13584W        W29718  17.455   4.470  12.553 -0.1257 -0.1766  0.1038
13585W        W29719  10.435  13.018  12.487  0.2201  0.0312 -0.1434
13586W        W29720   1.498  10.373   0.540  0.0889 -0.0502  0.0603
13587W        W29721   7.756   8.729   4.563 -0.0206 -0.3898 -0.2512
13588W        W29722   9.409  16.779  13.208  0.0293 -0.1922  0.0159
13589W        W29723   0.230  17.730   3.623 -0.2257  0.0005 -0.1032
13590W        W29724   2.161   3.111   0.308 -0.0671 -0.2623  0.1224
13591W        W29725  16.775  14.574   1.195 -0.2602  0.1075 -0.0417
13592W        W29726   9.143   4.152   1.179  0.2529 -0.2765  0.0631
13593W        W29727  19.026  18.884   1.270 -0.2655 -0.0138  0.0695
13594W        W29728   1.306  14.117  11.925 -0.1553 -0.0004  0.1805
13595W        W29729  13.315   2.197   3.719 -0.0914  0.1441  0.0397
13596W        W29730  16.917   4.351  12.370  0.0463  0.1760  0.4053
13597W        W29731  11.036   3.617   0.056  0.1658  0.3120  0.2193
13598W        W29732   8.202   6.016  10.990 -0.2081 -0.0915  0.1745
13599W        W29733  17.944  16.233  11.579  0.2096 -0.0366  0.3245
13600W        W29734   4.182   8.116   4.127  0.1456 -0.1970  0.1072
13601W        W29735   1.480   9.867   2.299 -0.0030 -0.2843 -0.0971
13602W        W29736   9.815   5.519   2.624 -0.1527  0.1968  0.1194
13603W        W29737  10.465  18.560  12.133 -0.2271  0.0493  0.2429
13604W        W29738  19.004   8.029  11.712  0.0271  0.0680 -0.0358
13605W        W29739   3.208   9.387   0.386  0.2417 -0.0734  0.2773
13606W        W29740  16.331   7.985   2.682  0.2006 -0.0796  0.0150
13607W        W29741  14.123   5.891  11.843 -0.1549 -0.0876 -0.2510
13608W        W29742  19.124  15.456  13.430  0.1291  0.1919 -0.1469
13609W        W29743   6.082  16.793   4.537  0.0980 -0.3464 -0.1801
13610W        W29744  12.389  13.487   4.470  0.1222  0.2217  0.2139
13611W        W29745  18.992  16.656   4.909  0.1130 -0.1842 -0.2641
13612W        W29746   0.294   7.495  10.540 -0.1869 -0.2365  0.2375
13613W        W29747   0.672  18.768  10.951 -0.2162  0.0318  0.2552
13614W        W29748   0.135   6.147   2.549  0.0506  0.4679  0.0544
13615W        W29749  15.003   0.190   3.193  0.1486  0.1214  0.1387
13616W        W29750  17.563  16.816  10.414 -0.0177  0.2820 -0.0206
13617W        W29751   2.917  16.603   0.651  0.1098  0.0915  0.0483
13618W        W29752   7.131   8.467  14.104 -0.1043  0.0991  0.0023
13619W        W29753   6.630   9.002  10.275 -0.0451  0.1151  0.2357
13620W        W29754   1.221  11.610  13.014 -0.4603  0.0288  0.3389
13621W        W29755  16.272  11.431   2.096 -0.1014 -0.0673 -0.2397
13622W        W29756  17.616  11.349   1.309 -0.0443 -0.0048  0.2624
13623W        W29757   4.976   8.519   3.298  0.4488 -0.2637 -0.0027
13624W        W29758  17.839  15.820   4.188 -0.0648 -0.0603  0.1338
13625W        W29759   8.884   8.949   3.336  0.0499 -0.0912 -0.0205
13626W        W29760   1.657   4.722   3.309 -0.1018 -0.1762  0.3794
13627W        W29761   8.708  17.172   0.108  0.1136 -0.1447  0.0949
13628W        W29762   3.145   2.431  10.565 -0.0054  0.2486  0.0314
13629W        W29763  11.807  12.723   3.178 -0.2219 -0.1088 -0.0910
13630W        W29764  12.272   2.588  13.435 -0.0269  0.1261 -0.1403
13631W        W29765   5.770  10.567   2.418 -0.0095 -0.0841  0.1924
13632W        W29766   6.247  16.661  12.918 -0.1401  0.2226  0.1283
13633W        W29767   7.828   5.207  13.240  0.0403 -0.0991  0.1582
13634W        W29768   9.955   3.252   2.280 -0.1671  0.1791  0.2572
13635W        W29769   4.507  13.551  12.966 -0.3970 -0.4049  0.1513
13636W        W29770   5.918  14.210  11.353  0.1639 -0.0309 -0.0649
13637W        W29771  11.593   4.181   1.445 -0.2091 -0.2469  0.4418
13638W        W29772  13.317  18.176   2.937  0.1745  0.0213 -0.0835
13639W        W29773  10.046  12.040   2.011  0.2132 -0.1937 -0.1032
13640W        W29774  17.406   9.517   3.184 -0.1554 -0.1941 -0.0583
13641W        W29775  10.179  16.991   1.873 -0.0682  0.3215 -0.1394
13642W        W29776  12.348  13.493  14.346  0.0823  0.0565 -0.3117
13643W        W29777  17.713  12.026  14.161  0.0773 -0.0127  0.0546
13644W        W29778   6.945  10.573  10.977 -0.1109 -0.4333  0.0330
13645W        W29779  14.830   6.809   1.030 -0.2418 -0.0009  0.0080
13646W        W29780  18.303   7.865   1.697  0.0344 -0.0637  0.2502
13647W        W29781  15.705  11.213  10.372 -0.1292  0.0668  0.1570
13648W        W29782   1.052   1.034  12.286 -0.1381  0.0545  0.0714
13649W        W29783  12.189  12.126  12.699  0.1140 -0.0574 -0.0647
13650W        W29784   9.389   5.846  13.051 -0.2265 -0.1666  0.0234
13651W        W29785  18.560  13.441  11.754 -0.1950 -0.5262  0.3803
13652W        W29786   9.169  15.655   0.323 -0.0111 -0.0859 -0.4018
13653W        W29787   0.129   5.155   0.848  0.1787  0.0587  0.2611
13654W        W29788   6.098  17.765   5.907  0.1745  0.1112 -0.3607
13655W        W29789  10.780  18.712   1.007 -0.1390 -0.0596  0.1606
13656W        W29790   6.565  12.694   0.806 -0.1359  0.1522 -0.2003
13657W        W29791  10.375  19.019   9.859 -0.0593 -0.1233 -0.1151
13658W        W29792   0.712  10.830  11.014 -0.2311 -0.3714  0.2188
13659W        W29793   2.103  11.597  12.652 -0.1621 -0.1037 -0.0677
13660W        W29794  19.020   8.499   2.359 -0.0201  0.1074  0.0219
13661W        W29795  12.257   6.839   3.535  0.0336  0.1561  0.1691
13662W        W29796   1.251   7.761   0.539 -0.1156  0.0542  0.0224
13663W        W29797   4.895  15.837   2.997 -0.1975 -0.0935  0.1361
13664W        W29798  12.016  14.142   2.097 -0.0190  0.0940 -0.5806
13665W        W29799  14.919  11.640  12.807  0.0041 -0.1753 -0.0646
13666W        W29800   0.865   8.334  11.352  0.2644  0.1509  0.3373
13667W        W29801   8.848  13.888   2.417  0.1904 -0.0814  0.1756
13668W        W29802  14.295  10.040   4.274 -0.2955  0.2561  0.1413
13669W        W29803   1.796  18.822  10.627 -0.2141 -0.0859  0.0488
13670W        W29804   4.804  13.621   3.147  0.5021  0.1668  0.0312
13671W        W29805  16.330  16.751   1.446  0.0296 -0.1567 -0.2056
13672W        W29806   0.279  17.165  11.350  0.1366 -0.1411 -0.0714
13673W        W29807  13.068  11.338   0.617  0.0548  0.2342  0.1236
13674W        W29808   1.674  10.984   1.148 -0.2302  0.1846  0.0674
13675W        W29809   9.845   6.770  10.095 -0.4113  0.0020 -0.1257
13676W        W29810   0.726   7.370   1.370  0.1595 -0.0803  0.1001
13677W        W29811   0.293   3.531   1.497 -0.0330  0.2299  0.1064
13678W        W29812  12.925  14.595   4.223 -0.1715  0.0036 -0.1741
13679W        W29813  15.328  17.349  14.383  0.0667  0.0764 -0.1227
13680W        W29814   9.156   0.092  13.111  0.4161  0.1010 -0.0236
13681W        W29815  18.950   7.308  14.020  0.2881 -0.0438 -0.0195
13682W        W29816  18.163  19.323  11.930 -0.2450 -0.0965 -0.1405
13683W        W29817   3.349  19.039  11.967  0.1566  0.2752 -0.1562
13684W        W29818   9.456   7.935   3.608 -0.1960 -0.1241 -0.0739
13685W        W29819   0.191  12.493  12.731 -0.2361  0.0667 -0.0672
13686W        W29820   2.041  15.808  13.334 -0.0651  0.2307 -0.1525
13687W        W29821   2.531   4.330   0.997 -0.2078  0.0818 -0.0046
13688W        W29822   5.996   8.462   4.629 -0.1641  0.0071 -0.6789
13689W        W29823   1.401  19.342   1.489 -0.0683 -0.1057 -0.1981
13690W        W29824   7.784  12.517  10.941 -0.1496 -0.1143  0.1202
13691W        W29825   1.290   9.923  14.806 -0.2011  0.0565 -0.5176
13692W        W29826  13.577   0.077   3.918 -0.0857  0.0645  0.3108
13693W        W29827   1.009  14.365  11.545 -0.0395 -0.2899 -0.0417
13694W        W29828  15.443  10.103  11.217 -0.1475 -0.2733  0.0209
13695W        W29829   0.842  15.517  13.178 -0.1004  0.3619  0.2344
13696W        W29830   6.688  18.826  10.867 -0.1637  0.1946  0.0471
13697W        W29831   5.234  14.607  13.068 -0.2013  0.1587  0.0822
13698W        W29832   0.145   0.994   2.395 -0.2817 -0.0061 -0.1164
13699W        W29833   1.069  12.157  13.114 -0.3913  0.1975  0.0106
13700W        W29834   1.582   3.007  12.043 -0.0117 -0.2542 -0.1536
13701W        W29835   9.345   6.849  10.186 -0.0483  0.0857 -0.0906
13702W        W29836   1.679  15.248   0.165 -0.3105  0.0122  0.1547
13703W        W29837   7.060  14.881   2.451  0.2967 -0.2379  0.0101
13704W        W29838  17.518   7.943   4.699 -0.1730  0.0374 -0.2865
13705W        W29839  12.029   5.809   2.209  0.1008  0.3134  0.3322
13706W        W29840   8.171  14.037  11.326  0.0955  0.2202 -0.1246
13707W        W29841   9.666   5.331  12.401 -0.3593 -0.2117  0.0182
13708W        W29842  12.050  19.194  13.494  0.2948  0.0814 -0.0474
13709W        W29843   1.531   1.286  14.541 -0.1393  0.0435 -0.0545
13710W        W29844   6.356   3.394  14.116  0.0540  0.0642 -0.0800
13711W        W29845  11.885   1.830  13.714  0.3877 -0.0322 -0.1656
13712W        W29846  12.391   3.893   5.040 -0.1893 -0.0703  0.1887
13713W        W29847   3.528  10.037  11.432 -0.0244  0.0720 -0.2905
13714W        W29848   2.699  13.519  13.097 -0.1149  0.1485 -0.0335
13715W        W29849  11.652   6.441  10.710  0.3497 -0.2149 -0.0933
13716W        W29850   6.479  11.119  12.894 -0.0629  0.0162 -0.0295
13717W        W29851   8.751  10.883   1.584  0.1848 -0.1384  0.0780
13718W        W29852   6.390   8.942  14.199  0.2592 -0.1579 -0.3610
13719W        W29853   0.683   6.183   5.016  0.1487  0.1981 -0.1551
13720W        W29854  18.831  15.569  14.379 -0.4567 -0.2377  0.1112
13721W        W29855   4.812  16.711   2.755 -0.0380  0.2932 -0.0950
13722W        W29856   4.181   5.708  13.002 -0.0176  0.1332  0.1173
13723W        W29857  14.741  12.069  13.754 -0.0545  0.2812  0.0679
13724W        W29858  12.945  13.577   2.766  0.0437 -0.3639  0.0681
13725W        W29859   9.661  15.480   0.375 -0.1267  0.5047  0.0780
13726W        W29860  11.804  15.679  12.785  0.2146  0.1752 -0.0761
13727W        W29861   5.346   9.868   2.425 -0.1296  0.3058 -0.1185
13728W        W29862  10.172  16.348   6.127 -0.2908 -0.2370  0.0473
13729W        W29863   8.781   0.610  12.097  0.1402 -0.0099  0.3180
13730W        W29864   7.049   1.136  11.572 -0.1610  0.3340  0.2600
13731W        W29865  17.918   2.499  13.824  0.3387  0.2405  0.3104
13732W        W29866  17.545   7.019  10.849 -0.0890  0.0260 -0.2805
13733W        W29867   5.583   5.087  12.520 -0.0594  0.3779 -0.0016
13734W        W29868   0.770  11.174   0.582  0.0470  0.1370 -0.1203
13735W        W29869  18.527  13.447   9.692 -0.1715  0.3337 -0.3763
13736W        W29870   4.121  11.163  11.021  0.1591  0.0302 -0.0661
13737W        W29871  11.532  15.076   0.575  0.1079 -0.3568  0.1150
13738W        W29872   5.995   6.149   4.637  0.2012 -0.4650  0.0130
13739W        W29873  12.823  14.849  11.257  0.0765  0.2171  0.1502
13740W        W29874   5.172  13.499  12.324 -0.0762 -0.0011 -0.2716
13741W        W29875   4.913   5.717   1.201 -0.0698 -0.1391 -0.0570
13742W        W29876  12.134   9.115   4.434  0.1715  0.0986  0.0962
13743W        W29877   1.446   4.512  13.052  0.0464  0.2304  0.0052
13744W        W29878  17.108   5.702  10.569  0.4431 -0.0685 -0.3034
13745W        W29879   5.104   4.808   4.893 -0.0604  0.1674  0.2399
13746W        W29880  11.556   8.092  14.679 -0.0912 -0.1405 -0.0517
13747W        W29881   5.981   0.871   1.979  0.3203  0.0395  0.1324
13748W        W29882   6.562  12.386  11.968 -0.4165 -0.0096 -0.0618
13749W        W29883  16.015  16.749   2.108  0.3335 -0.3691  0.3605
13750W        W29884  15.639   5.863  11.064  0.0993  0.0765 -0.1953
13751W        W29885  16.897   8.158   0.341  0.1513 -0.1628 -0.2344
13752W        W29886  13.216   9.047  13.159  0.3898  0.0966 -0.1301
13753W        W29887  15.757  18.206   1.712  0.4818  0.0172 -0.0681
13754W        W29888  12.672   6.838   4.687  0.0942  0.5511  0.0882
13755W        W29889  18.438  17.201  12.602 -0.4622  0.0602  0.0207
13756W        W29890   7.629   8.871   3.600 -0.2013  0.1822  0.1481
13757W        W29891   9.968  18.026   0.422 -0.3713 -0.2324  0.3627
13758W        W29892  11.454  14.446  12.433  0.2069  0.1058 -0.2800
13759W        W29893  16.875   5.009   0.802 -0.0360 -0.0241 -0.0796
13760W        W29894   8.577   1.237   1.316 -0.2541  0.1940 -0.2846
13761W        W29895   1.791   9.383  14.108 -0.0053  0.1204 -0.1679
13762W        W29896   7.915   5.113  11.432  0.1806 -0.4637 -0.2629
13763W        W29897  10.949   8.462   3.907 -0.1543 -0.4461  0.1459
13764W        W29898  11.163  10.910   0.076  0.2888 -0.0248 -0.2060
13765W        W29899  15.784  11.353  10.825  0.1645 -0.2525 -0.3430
13766W        W29900  14.597   6.055   5.487  0.4286  0.0825  0.0010
13767W        W29901   3.810   3.695  12.662  0.0017  0.1722 -0.0872
13768W        W29902  10.228   4.425   3.755 -0.0015  0.5002 -0.3963
13769W        W29903  11.536  18.067   1.392  0.2275  0.5030 -0.0758
13770W        W29904   8.759   6.242   4.129 -0.0855  0.1883  0.1584
13771W        W29905   9.377  19.018   1.099 -0.3229  0.1285 -0.4438
13772W        W29906   7.285  14.304  11.101  0.0233  0.3228  0.0078
13773W        W29907   1.768  12.997  12.218 -0.3488  0.3533 -0.0099
13774W        W29908  12.682  14.003  13.787 -0.1221  0.4139 -0.1844
13775W        W29909  10.254  15.642   5.338  0.1352 -0.2274 -0.0677
13776W        W29910   0.804  10.770  11.509  0.2002 -0.2511  0.0050
13777W        W29911   2.986  12.651   4.739  0.2819  0.2371 -0.0287
13778W        W29912   5.008   5.223   2.677  0.0079 -0.3264  0.1201
13779W        W29913   7.012  18.894  13.261  0.1947 -0.1262  0.2066
13780W        W29914   7.282   3.756  14.694  0.2335 -0.1136 -0.1385
13781W        W29915  12.084   6.027   3.327  0.3013  0.1702  0.5975
13782W        W29916   2.962   6.162   4.430 -0.0095  0.2340  0.2391
13783W        W29917  11.737  12.806  12.823 -0.0294  0.1230  0.2205
13784W        W29918  15.709   1.589   0.430  0.2513 -0.0564  0.1115
13785W        W29919   4.079   6.095  10.425  0.0117  0.1054 -0.0209
13786W        W29920   2.607  14.277   4.194 -0.0622  0.4156  0.2906
13787W        W29921   7.209   4.554   1.681 -0.3367  0.1053  0.0537
13788W        W29922  13.722   3.022  13.943  0.0479 -0.0093 -0.1834
13789W        W29923  10.435  10.143  12.166  0.1014 -0.2098 -0.1788
13790W        W29924  12.498   5.379   2.937 -0.1122  0.0187  0.0380
13791W        W29925  12.021   9.852   3.998  0.2781 -0.0204 -0.0029
13792W        W29926  11.670   8.901   4.455 -0.0748 -0.1555  0.1465
13793W        W29927   0.303  15.670  12.491 -0.2081  0.0246  0.4083
13794W        W29928   7.508   9.812  12.111  0.1305 -0.0490  0.0525
13795W        W29929  11.831   4.468  11.339 -0.1892 -0.2683  0.1001
13796W        W29930  13.728  13.127   2.574 -0.0696 -0.0721 -0.2878
13797W        W29931   4.666  17.736  12.843  0.1313 -0.1355  0.1215
13798W        W29932   8.055  18.049  10.368  0.2771  0.1974 -0.1974
13799W        W29933   3.366   4.774  10.790 -0.0712 -0.5297 -0.1248
13800W        W29934   7.179   2.493  10.580  0.1592 -0.2718  0.1039
13801W        W29935   0.687  15.088   3.503  0.1280  0.0188  0.2897
13802W        W29936   6.508  15.459   1.249  0.0720 -0.1334  0.5564
13803W        W29937   1.657   5.592   4.571  0.0502  0.2026  0.0063
13804W        W29938  15.537   5.140  10.230  0.0526 -0.2748 -0.0075
13805W        W29939   8.277   5.851  12.604  0.1685  0.1063  0.1227
13806W        W29940   7.880   7.355   2.645  0.2360  0.6116  0.0433
13807W        W29941   0.501   7.097   1.750  0.0374  0.0267  0.0605
13808W        W29942  12.185  17.660   4.987  0.3198 -0.3511 -0.1560
13809W        W29943   5.717  12.720   0.656  0.2846  0.1362 -0.0088
13810W        W29944  13.060  15.552   2.782 -0.1056 -0.0601 -0.3015
13811W        W29945   4.335  16.518   2.838 -0.1146 -0.2572  0.1854
13812W        W29946   1.844   3.218   2.403 -0.1096 -0.0560 -0.0059
13813W        W29947  11.339   7.851   3.196  0.3029 -0.1140  0.1262
13814W        W29948  18.655  17.636   1.565  0.1826  0.0517  0.0527
13815W        W29949   8.923  12.700  13.783 -0.0877  0.1965 -0.1399
13816W        W29950  13.718  10.870  14.209  0.0365  0.0368  0.0626
13817W        W29951   7.183   4.633  12.634  0.0685 -0.0473 -0.0019
13818W        W29952   5.369  14.459   4.263 -0.3355 -0.1247  0.1175
13819W        W29953   7.063  13.829  10.676  0.0499 -0.2198 -0.1763
13820W        W29954   3.142   5.753  12.669  0.2406  0.1303 -0.2487
13821W        W29955  15.441  16.854  14.140 -0.2266  0.0739 -0.0559
13822W        W29956   4.770  17.284  10.040 -0.1479 -0.2204 -0.3532
13823W        W29957   5.557  18.754  12.867 -0.2252  0.0197 -0.2111
13824W        W29958   5.406   3.334   1.604 -0.0244 -0.3397  0.1916
13825W        W29959  13.731   6.011   5.030  0.0600 -0.0149 -0.0533
13826W        W29960   2.568   2.939  12.576  0.2422 -0.3859 -0.0499
13827W        W29961  14.096   0.010   4.980  0.0782 -0.2525 -0.1593
13828W        W29962   2.606  12.429  12.729  0.0899 -0.4288  0.0651
13829W        W29963   7.376  11.937   3.701  0.2367  0.1086  0.1993
13830W        W29964  11.689  16.168  13.669 -0.1471  0.4160 -0.0348
13831W        W29965  12.928   6.690   1.749  0.0910 -0.0404  0.0641
13832W        W29966  14.217  12.300   1.671  0.0445 -0.4296  0.2945
13833W        W29967  12.319  10.026   0.527 -0.0015  0.1435 -0.0219
13834W        W29968   8.951  11.816  12.957  0.0320 -0.0335  0.0219
13835W        W29969   3.872   3.764  13.989  0.1061  0.2931  0.0827
13836W        W29970   7.216  10.754   0.487  0.0601  0.5257 -0.0316
13837W        W29971  19.257   3.390   3.199  0.0227 -0.1252  0.1705
13838W        W29972   3.176   9.693  10.117 -0.1142 -0.0540  0.2327
13839W        W29973  10.512  12.235   1.743 -0.0766 -0.0266  0.1593
13840W        W29974   7.745   1.798   4.217 -0.0629 -0.1900  0.1677
13841W        W29975  12.185   7.360  11.800  0.0809  0.0113  0.1063
13842W        W29976  13.190   3.572   9.695  0.1738 -0.1091  0.0836
13843W        W29977   7.405   6.336   4.044 -0.0200 -0.0850 -0.0826
13844W        W29978  12.000  18.905  14.575  0.2872 -0.0073 -0.1018
13845W        W29979   9.242   0.637   0.089 -0.0609 -0.1666  0.0210
13846W        W29980   1.206  18.572  13.991 -0.1605  0.2434 -0.3275
13847W        W29981   0.112  16.397   3.553 -0.1664  0.0230  0.0484
13848W        W29982  12.325  16.488   4.682 -0.0042  0.3278  0.2148
13849W        W29983  18.954   2.670   1.177  0.0041  0.1556 -0.0113
13850W        W29984   0.281   1.586   3.713 -0.0627  0.4255  0.3898
13851W        W29985  10.756   2.608  11.036 -0.1203  0.0982 -0.3652
13852W        W29986  15.373  18.353  13.141  0.2445  0.2598  0.0593
13853W        W29987  18.164   4.584   3.651  0.3600 -0.0863 -0.1105
13854W        W29988  12.892   2.856   1.004  0.0792 -0.0975 -0.0135
13855W        W29989   3.542   6.171  12.561 -0.0953  0.5993  0.1176
13856W        W29990   0.773  10.336  10.139 -0.0281 -0.2489 -0.0244
13857W        W29991  16.105   8.816  14.278 -0.0965  0.1705  0.1706
13858W        W29992  11.060  18.479   2.510  0.0704 -0.1729  0.1825
13859W        W29993   5.962   1.570   3.331  0.0680 -0.1181 -0.1707
13860W        W29994   8.601   4.079  11.141  0.0006 -0.1165 -0.0154
13861W        W29995   8.690   0.236   4.235 -0.1942 -0.0744  0.1070
13862W        W29996  15.111  17.956  14.610  0.2637 -0.1417 -0.1778
13863W        W29997   9.987  13.376  14.678  0.2540 -0.2079  0.4710
13864W        W29998  18.909  13.258   8.647  0.1630 -0.0827 -0.0271
13865W        W29999  13.562   1.867   9.983 -0.0395 -0.2849  0.0705
13866W        W30000  17.731   0.385   1.189  0.0851 -0.3220  0.0699
13867W        W30001  17.759  14.552   1.147 -0.1453  0.1364 -0.1360
13868W        W30002   3.844  13.821  11.123 -0.3497  0.1891  0.1342
13869W        W30003   0.797  16.576  10.912 -0.1167 -0.0641 -0.0693
13870W        W30004   2.012   8.718   3.529  0.1007  0.4650  0.3242
13871W        W30005  10.257  18.782   2.685 -0.0801 -0.3452  0.1799
13872W        W30006   0.421  17.624  13.668  0.1994 -0.0136  0.1138
13873W        W30007   8.019   2.763   0.002  0.0352  0.0980  0.3287
13874W        W30008  12.400   4.145  13.217  0.1639 -0.0219  0.2250
13875W        W30009   4.534  11.447   2.824 -0.1684 -0.0849  0.1188
13876W        W30010  16.777   3.078  12.457  0.0733 -0.0015  0.0346
13877W        W30011   1.434  17.988   2.851  0.0685  0.1316  0.2332
13878W        W30012   4.081   4.369  13.300  0.2644 -0.3173  0.0442
13879W        W30013  16.834  19.108  14.207  0.2010  0.2474  0.0205
13880W        W30014  15.993  18.647   6.593  0.0478 -0.2255 -0.0543
13881W        W30015   9.460  15.090  11.794  0.0870 -0.0048 -0.1317
13882W        W30016  16.829  18.777   4.833  0.0881  0.3870 -0.2299
13883W        W30017   4.399   3.258   3.172 -0.1455 -0.0216  0.0322
13884W        W30018   4.336  10.222  10.609  0.2348 -0.2424 -0.0876
13885W        W30019  14.576   4.296  11.786 -0.0862 -0.4415 -0.0938
13886W        W30020  13.059   2.261   3.208 -0.5104 -0.3575 -0.1154
13887W        W30021   5.377  13.313  11.468  0.1624 -0.2937  0.0532
13888W        W30022  10.899   8.048  12.629 -0.2415  0.1286  0.4816
13889W        W30023  11.378  17.596   5.152 -0.2407  0.0769 -0.3308
13890W        W30024  18.001  18.959  11.518  0.3712  0.1455 -0.1957
13891W        W30025  17.121  12.631   0.281 -0.0457  0.1561  0.0019
13892W        W30026   7.912   9.786   0.306  0.2260  0.1409 -0.1236
13893W        W30027   8.268  12.798   3.272 -0.3384 -0.4665 -0.0132
13894W        W30028  13.357  17.454   6.083 -0.1320  0.1761  0.1405
13895W        W30029  18.912  16.365   0.637  0.0533 -0.4700 -0.4149
13896W        W30030   8.902   5.010   0.631 -0.2307 -0.3088 -0.0661
13897W        W30031  14.582  15.956  13.847  0.2139 -0.0672  0.2754
13898W        W30032   5.608   0.916  12.500 -0.0774  0.0541 -0.1643
13899W        W30033   7.726   0.160  11.054 -0.3126 -0.0425  0.0900
13900W        W30034  13.016  11.522  11.515 -0.4338 -0.2200 -0.1126
13901W        W30035   3.680  18.924   1.113 -0.1363  0.2998  0.2558
13902W        W30036   1.285   3.352  14.106 -0.1222  0.0463 -0.0156
13903W        W30037  18.854   4.264  14.403  0.0102 -0.0139  0.4209
13904W        W30038  13.982  12.906  12.985  0.0761  0.0565 -0.1863
13905W        W30039  14.392  18.270  13.173 -0.2078 -0.4435  0.1916
13906W        W30040   1.546   7.697  13.950 -0.3425  0.1115 -0.2275
13907W        W30041   4.479   4.935  11.641  0.0588  0.0414 -0.0853
13908W        W30042   3.864   6.147  12.985 -0.2524 -0.3060  0.0782
13909W        W30043   9.807   4.995   1.728  0.0659  0.0361  0.1907
13910W        W30044   2.302   9.301  10.434 -0.1465  0.2202 -0.1828
13911W        W30045  15.390   2.595   4.728  0.1249 -0.3002  0.0602
13912W        W30046  15.464   2.295  11.615  0.2600  0.0584 -0.1023
13913W        W30047  19.109  19.212  10.766 -0.2566  0.0585  0.0511
13914W        W30048   3.669  18.668  13.751 -0.4910 -0.2403  0.0125
13915W        W30049   9.736  12.984   3.800  0.2327  0.1584  0.1127
13916W        W30050  18.867  15.565   4.034 -0.2495 -0.2280 -0.0350
13917W        W30051   2.798  12.727   0.955 -0.0198  0.1597  0.0644
13918W        W30052  14.713   0.392  13.386 -0.1729 -0.0990 -0.1874
13919W        W30053   8.106  16.305  11.978  0.1043  0.1050  0.2048
13920W        W30054  13.498  10.950  14.668 -0.0447 -0.0823 -0.0630
13921W        W30055   0.629  11.838   9.670 -0.3197 -0.3764 -0.0692
13922W        W30056   2.882   3.355  11.054  0.0887 -0.0451  0.1669
13923W        W30057  11.906   1.542   2.039  0.1616 -0.1023 -0.0479
13924W        W30058  17.688  10.997  14.370  0.2309  0.3328 -0.1610
13925W        W30059   1.097   4.662   3.281 -0.2118  0.3123 -0.1188
13926W        W30060  12.027   6.616  13.030 -0.0212  0.1540 -0.0909
13927W        W30061   6.167  11.714   1.794 -0.4851 -0.2143 -0.2278
13928W        W30062  16.176   2.200   5.336  0.1373  0.0611 -0.4695
13929W        W30063   0.331  14.093  11.037 -0.0015  0.1873  0.2534
13930W        W30064  15.976  17.779  12.384 -0.2074 -0.0871 -0.2958
13931W        W30065  17.382  10.802  12.503  0.1767 -0.0608 -0.1236
13932W        W30066   1.625   1.024   2.406  0.0507 -0.2448  0.0139
13933W        W30067   2.032   7.667   0.365 -0.0654  0.2768 -0.1843
13934W        W30068  11.250   5.310   4.227 -0.1771 -0.1299  0.1161
13935W        W30069   2.362   4.424   2.744  0.0795 -0.1584 -0.0190
13936W        W30070  11.298  10.019   3.433  0.3326  0.0838 -0.1395
13937W        W30071  12.082  13.589   3.466  0.1792 -0.0811  0.0442
13938W        W30072   6.786  15.129  13.069 -0.5270 -0.4407 -0.1029
13939W        W30073   3.885   2.553  10.175 -0.2892  0.0142  0.1729
13940W        W30074   0.501   6.630   4.770  0.1221  0.1681  0.1350
13941W        W30075  16.839  12.284  11.466  0.3949  0.2462 -0.2510
13942W        W30076  10.012  14.785  14.811  0.1901  0.0931  0.0557
13943W        W30077   5.220   0.103  14.522 -0.3089  0.0082 -0.4330
13944W        W30078  10.351   9.212  14.973 -0.0906 -0.2130 -0.2874
13945W        W30079   0.130   6.357  14.588 -0.1851 -0.1455  0.2930
13946W        W30080   3.086  14.123   2.370 -0.1707 -0.2452  0.1062
13947W        W30081  12.887  19.147  13.034 -0.2552  0.0907 -0.0532
13948W        W30082  18.278   9.542   4.986  0.0135  0.1935  0.3101
13949W        W30083   5.410   7.662   3.217  0.0139 -0.3310 -0.3343
13950W        W30084   3.184  13.849  12.977 -0.1304  0.1618  0.2294
13951W        W30085  16.214  17.786  11.455  0.4178 -0.1533 -0.0612
13952W        W30086  16.166   5.516   0.311  0.1036  0.3357  0.2041
13953W        W30087  16.523  12.840  11.557  0.1469 -0.0583 -0.0699
13954W        W30088   2.610  15.736  10.797 -0.0824 -0.0543 -0.1400
13955W        W30089  18.509   3.202  10.101 -0.3549 -0.1907  0.0263
13956W        W30090  11.868   7.971  10.425 -0.0851  0.0803 -0.3004
13957W        W30091  13.541   3.657  13.114  0.1962  0.0544  0.2897
13958W        W30092  14.428  17.681  11.786  0.1480 -0.0215  0.0540
13959W        W30093   1.446   4.301   3.108  0.0570  0.1399 -0.2816
13960W        W30094   1.176   9.166   1.554 -0.1453 -0.1557 -0.0145
13961W        W30095   0.257  16.975  11.817  0.1057  0.0074  0.1649
13962W        W30096  12.173   8.720  12.951  0.2069  0.0627  0.1878
13963W        W30097  15.349   9.235   3.159 -0.0040  0.2049 -0.1889
13964W        W30098   9.610   3.962   3.476  0.0569 -0.1211  0.0425
13965W        W30099  15.055   7.773   3.947  0.0066  0.2578 -0.0302
13966W        W30100   6.684  12.364  12.528  0.1510  0.2118  0.1227
13967W        W30101  11.927   1.758  11.750 -0.1157 -0.1044 -0.1815
13968W        W30102  12.463  17.130   0.705 -0.2791  0.0686  0.0849
13969W        W30103  18.100   1.771  10.608 -0.1254 -0.3937 -0.0132
13970W        W30104  14.997   7.167  12.656 -0.3488 -0.3427 -0.0260
13971W        W30105  18.300   2.325  11.846  0.0089  0.2375 -0.2266
13972W        W30106   3.475   4.373  10.474 -0.0041 -0.4018 -0.1484
13973W        W30107  17.633   0.019  12.585  0.0805 -0.0283  0.3769
13974W        W30108  11.093   3.724   2.200  0.0966  0.0167 -0.3007
13975W        W30109  12.137  16.011  14.843 -0.0787 -0.2349 -0.4242
13976W        W30110   7.517  12.629  14.619 -0.1507  0.3653  0.1322
13977W        W30111  11.496  14.156  13.479  0.1898  0.0688  0.3378
13978W        W30112  18.731   5.686   3.961 -0.1477  0.2410  0.2689
13979W        W30113   8.369  16.897  14.428 -0.0622  0.1449 -0.1239
13980W        W30114   5.853   0.782  13.089 -0.1528  0.1500 -0.0674
13981W        W30115  11.994   7.025  13.496  0.0399  0.2806 -0.0485
13982W        W30116  11.410  14.828   3.426 -0.1005 -0.1413  0.1360
13983W        W30117   6.065  12.367  10.812  0.0444 -0.0040  0.1836
13984W        W30118   8.338  12.885  12.162 -0.0256  0.0654  0.0382
13985W        W30119  13.479  11.011   4.369 -0.4223 -0.1371  0.0591
13986W        W30120   2.980   7.603   2.171  0.0859  0.3469  0.1563
13987W        W30121  12.830  10.076   0.632  0.3617 -0.1768  0.3278
13988W        W30122  18.616   2.179  11.334 -0.1985 -0.1004  0.1255
13989W        W30123   7.000   3.044   2.037  0.2712  0.0740 -0.2431
13990W        W30124  18.778   8.627  11.302 -0.0803  0.0946  0.1145
13991W        W30125   3.117  11.782  13.450 -0.1785 -0.0019 -0.0725
13992W        W30126  13.860   6.756  14.563 -0.1726  0.3826 -0.1865
13993W        W30127  15.273  12.572   1.983  0.0696 -0.0142  0.0143
13994W        W30128  19.116  13.122  13.967  0.1324  0.0569 -0.1784
13995W        W30129   1.653   6.729  13.961  0.2492  0.2722  0.2530
13996W        W30130  18.666   3.250   4.514  0.2822 -0.1194 -0.0882
13997W        W30131   6.143  12.468   2.808  0.1581  0.4995  0.0203
13998W        W30132  11.193  16.091  14.031 -0.2609  0.1837  0.3604
13999W        W30133  18.396   7.885  14.623 -0.3734  0.2288 -0.3053
14000W        W30134  12.169   5.684   4.285  0.0037 -0.1108 -0.1320
14001W        W30135   0.211   7.622   2.217  0.1459  0.1972 -0.1158
14002W        W30136  15.652   9.883   1.782 -0.1530 -0.1750 -0.3563
14003W        W30137   4.878  16.161  13.956 -0.2092 -0.2231  0.2052
14004W        W30138  18.265  18.383   3.710 -0.1857  0.3148 -0.2196
14005W        W30139  12.312   1.026   5.330 -0.1482  0.2572  0.1384
14006W        W30140   1.360  10.135   4.179 -0.3524  0.0250  0.0208
14007W        W30141  18.774  10.862  12.604 -0.2191  0.0212 -0.1377
14008W        W30142   3.708  11.596   2.409 -0.4819 -0.0411  0.0210
14009W        W30143  13.311  18.092  13.681 -0.2928  0.0550 -0.3705
14010W        W30144  10.826   3.599   1.493  0.1499 -0.1164  0.0007
14011W        W30145  13.965   4.463   3.640  0.5147  0.0461  0.1601
14012W        W30146  14.988   3.893  11.986  0.1390 -0.1966 -0.1127
14013W        W30147  14.936  14.774  10.702  0.0762 -0.0235 -0.1166
14014W        W30148   6.776  13.609   2.446  0.3098 -0.0085 -0.0754
14015W        W30149   4.726  19.167  14.547  0.2049  0.0661 -0.0315
14016W        W30150   7.192   1.798  13.426  0.0346  0.0613 -0.0509
14017W        W30151   3.511  15.917   2.326  0.2210 -0.1189 -0.0289
14018W        W30152   4.974  12.984  14.897  0.2331 -0.2145 -0.0006
14019W        W30153   4.163   0.254  14.326  0.1751  0.1321 -0.0541
14020W        W30154   1.695  13.240  13.097 -0.1914  0.1910  0.0665
14021W        W30155   4.850  13.890  12.308 -0.2387 -0.2196 -0.0119
14022W        W30156  13.972  18.312   4.933 -0.0178  0.0754 -0.1590
14023W        W30157   3.871   4.543  11.880 -0.3218  0.3218  0.1912
14024W        W30158   2.319   1.327   0.889  0.0554 -0.3741  0.0124
14025W        W30159  15.149   8.418   2.930  0.1989 -0.0931 -0.1519
14026W        W30160   3.192  14.330   4.883  0.2007 -0.3153  0.3484
14027W        W30161   2.854  12.471   9.365  0.1067 -0.0718  0.2444
14028W        W30162  16.874   7.817   4.911  0.1736  0.0268 -0.3162
14029W        W30163   3.014  12.903  11.915 -0.1753 -0.2447 -0.1300
14030W        W30164   0.401   0.073   1.110  0.1487  0.1166  0.0913
14031W        W30165   1.686  17.798   5.029 -0.2015 -0.0593 -0.1152
14032W        W30166   8.903  15.551   2.125  0.0754 -0.1729 -0.0176
14033W        W30167  11.939   7.730  14.950  0.1396 -0.1228  0.2986
14034W        W30168  16.637  11.945   1.988  0.0311  0.0895 -0.1956
14035W        W30169  14.171   1.182  13.134 -0.0883  0.1085  0.0914
14036W        W30170  17.418  15.610   3.908 -0.2999 -0.2078 -0.2084
14037W        W30171   4.892   0.438   4.714  0.2296  0.2353  0.3003
14038W        W30172   2.898   7.012  14.172  0.2029 -0.0756  0.1407
14039W        W30173   8.158   7.045  14.656 -0.3812 -0.1852  0.3584
14040W        W30174  16.288  11.971  12.781  0.0161 -0.0493 -0.3682
14041W        W30175   6.377   7.691  10.913  0.2477 -0.0704 -0.0546
14042W        W30176   1.466   1.893   1.882 -0.3220 -0.1355  0.1850
14043W        W30177  16.699   3.208   2.393 -0.1177 -0.2341 -0.0434
14044W        W30178   9.504   1.714   4.382 -0.2287 -0.1499 -0.2840
14045W        W30179   9.675   1.061  12.877  0.1654  0.4746 -0.4451
14046W        W30180   1.820   8.965  13.360 -0.1148 -0.1149 -0.5007
14047W        W30181  16.209   9.279   0.587  0.0437  0.0857  0.2254
14048W        W30182   1.832   8.275   3.356  0.0484 -0.2788 -0.1161
14049W        W30183  14.982  13.388  13.289 -0.0104  0.0191 -0.1139
14050W        W30184  19.321   2.094  12.532 -0.1216  0.1106  0.1130
14051W        W30185  11.850   5.090  10.177 -0.1526  0.0381  0.0016
14052W        W30186  10.493   4.024  13.854  0.1739 -0.2132 -0.2438
14053W        W30187   5.893   0.956   3.551  0.0135  0.3822 -0.1416
14054W        W30188   7.272  17.446   1.867 -0.0259 -0.2731  0.1034
14055W        W30189  10.298  15.573   3.542 -0.1089  0.0869  0.1516
14056W        W30190   4.961  18.561  13.417 -0.3832 -0.1573 -0.1932
14057W        W30191   4.460  16.512  12.703 -0.0896 -0.2047  0.2074
14058W        W30192  10.305  12.920  11.495  0.0046  0.1147 -0.0088
14059W        W30193   0.575  18.469   3.558 -0.2199  0.2673 -0.1664
14060W        W30194  18.724   0.478   1.944 -0.1111 -0.2968 -0.0812
14061W        W30195  18.118  14.752  13.390  0.2744  0.2127  0.1993
14062W        W30196   1.912  12.540   9.310 -0.4039 -0.1424  0.0539
14063W        W30197  14.400  14.440  11.285  0.1906 -0.3118 -0.0437
14064W        W30198   9.351  18.850  10.439  0.2443  0.0828 -0.0758
14065W        W30199   9.893   4.396  13.626  0.1928  0.1803  0.1929
14066W        W30200  13.693  11.349   0.473 -0.1274 -0.0882 -0.0552
14067W        W30201  14.174   0.007   0.326  0.0774 -0.3190  0.1119
14068W        W30202   1.675   9.559   0.915 -0.4987  0.4094  0.1697
14069W        W30203  18.045  11.050  13.138 -0.1294  0.1243 -0.3581
14070W        W30204   5.298  15.752   5.209  0.0023  0.2000  0.3948
14071W        W30205  13.423   7.838   0.023  0.0826 -0.0613  0.0264
14072W        W30206  12.256   2.506   4.453  0.1145  0.0398  0.0441
14073W        W30207   3.357   8.488   0.293  0.0970  0.1414 -0.1146
14074W        W30208  16.789  10.135   0.335 -0.2167  0.3538 -0.2053
14075W        W30209  13.194  10.761   3.692  0.1323 -0.2727 -0.2483
14076W        W30210   6.627  13.147  11.578 -0.0115 -0.0175  0.1829
14077W        W30211   5.034   5.688  11.851  0.0269  0.0850  0.1695
14078W        W30212   6.248   4.318   1.051 -0.1021 -0.0893 -0.0046
14079W        W30213  10.577  14.894  14.892  0.2689  0.2126 -0.2690
14080W        W30214   8.048  12.842  13.402  0.0981 -0.1335 -0.1955
14081W        W30215  15.962   4.207   3.314  0.1039  0.3719  0.2935
14082W        W30216  16.795   3.235   5.636 -0.0812 -0.3093  0.0825
14083W        W30217  12.864  11.360   9.730  0.1865 -0.3556 -0.0939
14084W        W30218  17.760   0.297   5.796 -0.0307 -0.2896 -0.0080
14085W        W30219  13.709  12.155  10.459  0.0798  0.1599 -0.1562
14086W        W30220   6.850   0.527  14.085  0.0754  0.1786  0.0377
14087W        W30221  12.289   2.758   2.058  0.0707 -0.1942 -0.0156
14088W        W30222  10.195  10.588   3.762  0.1492 -0.1566  0.1117
14089W        W30223  14.246  17.924   3.519 -0.2180  0.0643 -0.2937
14090W        W30224  16.022  10.953  14.637 -0.1923 -0.1806  0.1610
14091W        W30225   9.729   1.229   5.119 -0.3699  0.0322  0.1094
14092W        W30226   6.419   7.218  12.243  0.1512 -0.0281 -0.0532
14093W        W30227   8.807   0.539  14.093 -0.1093  0.3870  0.2852
14094W        W30228  17.838   5.405   0.763  0.3636 -0.2624 -0.0619
14095W        W30229   3.030  15.835   1.157  0.0589  0.0736 -0.0714
14096W        W30230   6.862   8.107  13.630 -0.2253 -0.1371 -0.6011
14097W        W30231   9.484   0.412   4.277  0.0212  0.3408  0.0922
14098W        W30232   9.044  16.011   1.982 -0.1336 -0.0642  0.0139
14099W        W30233  10.471  17.725   3.525 -0.0068  0.1197 -0.1571
14100W        W30234   1.311  18.462   2.895  0.0761  0.0133  0.1909
14101W        W30235  16.993  10.818   1.584 -0.0028 -0.1564  0.0399
14102W        W30236   1.318   2.146  13.605  0.3258 -0.0050 -0.0737
14103W        W30237  14.549   9.279  14.364 -0.1920  0.4763  0.0836
14104W        W30238  11.552  16.772  14.912 -0.1473 -0.0564  0.0733
14105W        W30239  11.891  10.409   4.018  0.1988 -0.2530 -0.1988
14106W        W30240   0.612  11.991  14.040  0.1435  0.1000 -0.1823
14107W        W30241  11.754  11.411  12.794  0.2141 -0.2228  0.1436
14108W        W30242  15.449   4.571  11.813 -0.1801 -0.0830 -0.2266
14109W        W30243  12.154  10.843   4.153 -0.0386  0.2670 -0.1091
14110W        W30244   0.069   0.288  13.271  0.5184 -0.1530  0.0452
14111W        W30245   2.321   3.526  13.201  0.0015  0.0700 -0.0727
14112W        W30246   5.114  17.143   1.214  0.0646  0.2867  0.1789
14113W        W30247   4.631  18.123  13.146 -0.4086 -0.0750  0.1092
14114W        W30248   5.945   8.302  11.193 -0.2249  0.0072  0.1411
14115W        W30249   9.284   9.133  11.883  0.0633  0.0432  0.3113
14116W        W30250   2.525  17.173   3.490 -0.0094  0.1119  0.2167
14117W        W30251   8.416   2.215   3.642  0.1484  0.0304  0.0355
14118W        W30252  12.655  16.627   3.719  0.0929  0.2521 -0.1221
14119W        W30253   9.547  10.289   3.139  0.2827 -0.4100  0.2464
14120W        W30254   1.393  14.773   1.395 -0.0634  0.1018  0.1455
14121W        W30255  17.569  18.104   9.826 -0.1555 -0.0823 -0.0003
14122W        W30256  10.507   7.488   1.385 -0.0057 -0.1216  0.0150
14123W        W30257  16.112   6.655  10.932  0.0587  0.0159  0.1520
14124W        W30258   7.617   7.142   9.675 -0.0277 -0.2048 -0.0078
14125W        W30259   3.630   4.283   0.183 -0.0635  0.2462  0.0977
14126W        W30260   5.346  15.308  12.020 -0.3391 -0.3083  0.2107
14127W        W30261  17.984  15.527  13.990 -0.0066 -0.1227 -0.2835
14128W        W30262   1.146   9.696   4.204  0.0082 -0.1937 -0.0759
14129W        W30263  18.018  11.040   4.178  0.2507 -0.0561 -0.0630
14130W        W30264  12.902   4.822  13.536  0.1735  0.3649 -0.0912
14131W        W30265  18.966   3.684  14.958 -0.1639 -0.1726  0.1373
14132W        W30266  12.343   9.965   1.551  0.3048  0.1107 -0.0207
14133W        W30267   1.486  18.697  14.596 -0.0123 -0.0554 -0.0828
14134W        W30268   0.077   5.154  13.045 -0.0391  0.1525 -0.2213
14135W        W30269  13.181  19.067   2.440 -0.0624 -0.1729 -0.2455
14136W        W30270  15.155   0.431  11.767 -0.1115 -0.0907  0.2688
14137W        W30271   0.627   1.112  13.605 -0.2402 -0.0677  0.1481
14138W        W30272  12.456   3.513   2.892  0.0510  0.3046  0.1215
14139W        W30273  17.057   9.225  13.365  0.3791  0.0513  0.1729
14140W        W30274   6.171   0.843   0.859  0.0094 -0.1230 -0.0964
14141W        W30275  19.087   0.699   2.624  0.1855  0.3342 -0.2022
14142W        W30276  10.648  13.774  13.894  0.0108 -0.1062 -0.0470
14143W        W30277   4.477   4.307   3.440 -0.0131  0.3926 -0.2282
14144W        W30278   3.388  14.757  14.585  0.1891  0.3886 -0.1416
14145W        W30279  13.930   3.416  14.134 -0.1536 -0.4777  0.0522
14146W        W30280   2.879   4.695   2.206 -0.3940  0.2859  0.2463
14147W        W30281   5.611   5.467   0.943 -0.0517  0.0684 -0.0434
14148W        W30282   0.333  15.454   3.612  0.0852 -0.2722  0.1647
14149W        W30283  17.884  19.134   9.529  0.2415  0.1245 -0.0921
14150W        W30284  16.749  15.185   0.021  0.1150 -0.1139 -0.0547
14151W        W30285  11.227   0.421  10.568 -0.1616  0.1372 -0.0505
14152W        W30286   2.844  15.290  10.875  0.0068 -0.0602 -0.0465
14153W        W30287  17.680   7.865  13.806  0.0088 -0.0516  0.1329
14154W        W30288  18.419  11.649  12.951 -0.3578 -0.0829  0.0724
14155W        W30289   7.717   4.799   0.507 -0.0745 -0.3010  0.0104
14156W        W30290   9.809   2.184   4.420 -0.1112  0.2272  0.2081
14157W        W30291   2.562  16.194   1.186 -0.4054  0.3226  0.2106
14158W        W30292   8.544   0.527   4.712 -0.0886 -0.0425  0.3545
14159W        W30293   8.887   7.540   3.898  0.0370  0.1794  0.1260
14160W        W30294   6.840  19.010  13.749  0.0476 -0.1218  0.0112
14161W        W30295   8.046  15.805   1.519 -0.3356  0.0443  0.0115
14162W        W30296   4.347   1.290  13.690 -0.2838 -0.4533 -0.4940
14163W        W30297   3.290  12.960   0.381 -0.3435  0.1173 -0.0657
14164W        W30298   0.139   7.339  11.865  0.0623 -0.1907  0.1928
14165W        W30299  17.976  11.490   1.657 -0.0052  0.0702  0.0986
14166W        W30300  16.582   1.858   4.762  0.0268  0.1174  0.0513
14167W        W30301   6.375  15.241   4.296  0.0148 -0.0970  0.0729
14168W        W30302   5.057  15.572   0.865  0.4283  0.2116 -0.1082
14169W        W30303  13.478  18.443  12.978 -0.0195  0.3618 -0.3522
14170W        W30304   4.081  13.127   0.632  0.2073  0.2906 -0.4032
14171W        W30305   0.219   4.245   3.203  0.1598  0.1448 -0.2830
14172W        W30306   2.278   4.128  10.450 -0.0734  0.1065 -0.0195
14173W        W30307   0.202  10.922   2.957  0.1199 -0.3276  0.2861
14174W        W30308   2.370   2.637  12.904  0.2945  0.2252 -0.0211
14175W        W30309  16.381   2.772  13.844 -0.0798  0.1744 -0.2288
14176W        W30310   9.773   4.386  10.483 -0.1332 -0.0251 -0.0127
14177W        W30311  13.265  13.025   4.584 -0.1403  0.2191 -0.3633
14178W        W30312   2.549  17.056   5.300 -0.1586  0.1030  0.3567
14179W        W30313  11.895   1.321   3.138  0.1228 -0.3730  0.4196
14180W        W30314  13.040   3.010   1.521  0.0116  0.0841 -0.1790
14181W        W30315  17.426   6.872   2.563 -0.1079  0.0589  0.0660
14182W        W30316   7.663   9.757   1.143  0.3572  0.0002 -0.1462
14183W        W30317   6.504  19.276  11.532  0.0006 -0.0099  0.2752
14184W        W30318   9.014   8.719  11.402  0.2808  0.3180 -0.0497
14185W        W30319   9.156  18.251  12.520 -0.0049  0.0831  0.3372
14186W        W30320   6.124   5.999   3.542 -0.1145  0.2964  0.0692
14187W        W30321   3.450  11.544  12.153 -0.1123  0.1525 -0.0033
14188W        W30322   7.358  13.311  14.458  0.1512  0.3012  0.3234
14189W        W30323   7.596  11.040   0.476  0.1503 -0.0050 -0.2743
14190W        W30324   3.441   3.567   2.717  0.0361 -0.1002 -0.0547
14191W        W30325   3.126  16.320  11.679  0.3157 -0.0377  0.1193
14192W        W30326  12.048   5.526   3.513  0.0453  0.1627 -0.1057
14193W        W30327   0.337  15.086  12.043 -0.2689  0.1643 -0.0624
14194W        W30328  18.619  14.545  14.960 -0.1668  0.5574  0.2099
14195W        W30329   3.400   9.349  10.803  0.0506  0.5762  0.0724
14196W        W30330   3.598  10.015   2.525 -0.1585 -0.0446  0.0513
14197W        W30331  14.957   1.197  12.430 -0.1402 -0.3068  0.0326
14198W        W30332   5.884  16.829   5.699 -0.3194  0.3828  0.1386
14199W        W30333   3.028  12.414   4.019  0.1479  0.0099  0.1043
14200W        W30334   2.946  14.108   1.781  0.0582 -0.0332 -0.0804
14201W        W30335   4.335  16.056  12.794 -0.3652 -0.2713 -0.1267
14202W        W30336   9.560  10.449   1.625  0.2163 -0.0884  0.2300
14203W        W30337  16.069  13.007   0.882 -0.0209  0.1104 -0.1310
14204W        W30338  11.556  12.499   1.968  0.1994 -0.0277 -0.0557
14205W        W30339   1.651   6.273   2.818 -0.1190  0.0675  0.2559
14206W        W30340  11.062   7.656  14.621  0.0986 -0.2609  0.2028
14207W        W30341  15.175  13.092   1.774 -0.0820  0.1760  0.1181
14208W        W30342  18.825  12.958   1.737  0.1053  0.0142  0.0348
14209W        W30343  14.825  16.072  12.400 -0.2085 -0.0893 -0.0033
14210W        W30344  10.366   7.198  11.687  0.2486 -0.0162  0.3620
14211W        W30345   0.879   4.781   1.771  0.2670  0.0148 -0.3762
14212W        W30346  15.707   9.776  14.488  0.1649  0.1491  0.1292
14213W        W30347  18.358  17.671  10.617 -0.1002 -0.0545  0.1143
14214W        W30348   8.337   7.560   9.751 -0.1842  0.0009 -0.0188
14215W        W30349   3.121   5.581  11.596 -0.1521  0.1426  0.1787
14216W        W30350   3.480   5.329   0.131  0.0197 -0.0458 -0.2084
14217W        W30351   0.924  15.985   8.941 -0.2924 -0.1925 -0.3164
14218W        W30352   9.903   8.607   9.600  0.1495 -0.0584  0.0126
14219W        W30353   6.572   7.517  13.208 -0.1759 -0.1588  0.2422
14220W        W30354  16.979   6.607   4.576  0.0566 -0.3388 -0.1120
14221W        W30355  15.073   7.173   4.126  0.2367  0.2539  0.3239
14222W        W30356   3.280  16.415  13.351  0.1876  0.0561  0.2070
14223W        W30357  15.567   6.195  11.509  0.2920  0.0795  0.0083
14224W        W30358  11.813  17.924  12.918 -0.1412 -0.1925  0.1621
14225W        W30359   8.104   6.457   4.610  0.0502 -0.0123 -0.0088
14226W        W30360  15.147   9.931   0.361  0.2273  0.1147 -0.1660
14227W        W30361   3.358  11.367   2.129  0.0436 -0.0851 -0.0125
14228W        W30362   5.274  18.152   2.704 -0.0758 -0.0714 -0.3047
14229W        W30363   7.968  11.400   0.432 -0.0220  0.0231 -0.2906
14230W        W30364   9.721   9.728  13.175 -0.1491 -0.3515 -0.1215
14231W        W30365   5.159  13.676  10.499  0.2468 -0.0152  0.0282
14232W        W30366   1.617  12.212   9.584  0.0247 -0.0074 -0.0581
14233W        W30367  11.776  12.697   5.305 -0.2269  0.0407  0.0810
14234W        W30368   5.158   4.314   9.774 -0.2277 -0.0765  0.2382
14235W        W30369   6.091   6.323  14.297 -0.1488  0.0671 -0.1938
14236W        W30370   3.446  17.269  13.780  0.1629  0.0988 -0.2469
14237W        W30371  10.539   6.448  14.505  0.1823  0.0167 -0.1256
14238W        W30372   6.872  12.411  14.569 -0.1916  0.1505 -0.3125
14239W        W30373   7.699  13.674  14.673 -0.2950  0.1669 -0.1947
14240W        W30374   5.404  12.950  11.013 -0.1442  0.1079  0.3544
14241W        W30375   3.511   9.930   3.325 -0.0173 -0.0066 -0.0609
14242W        W30376  14.555   8.525   1.583 -0.1655  0.0720  0.0025
14243W        W30377   4.757   4.673  10.004 -0.1382  0.0738  0.1130
14244W        W30378   6.876   2.478   0.917 -0.1763 -0.2038  0.1752
14245W        W30379   2.606  16.811   3.826 -0.0876  0.1110 -0.2391
14246W        W30380  12.136   1.540  14.164  0.0396  0.0626 -0.0465
14247W        W30381  10.609  14.557   0.416  0.2650  0.2566 -0.3316
14248W        W30382  13.891  10.890   0.700  0.3140 -0.2156  0.1909
14249W        W30383   4.451   7.652  13.134 -0.0346 -0.0979  0.1030
14250W        W30384  11.506   6.727  10.303 -0.0485  0.1682  0.1430
14251W        W30385  15.602  12.374   0.331  0.4345  0.2043  0.0064
14252W        W30386  15.148   5.853   1.499 -0.0485 -0.0640 -0.3068
14253W        W30387  10.977  14.416  12.475 -0.2231  0.1461  0.1811
14254W        W30388  14.723   4.940  10.674 -0.2165  0.3789 -0.0611
14255W        W30389  16.032  16.633  12.947  0.3674  0.1634 -0.1366
14256W        W30390  11.259  14.809   2.938 -0.1542  0.1290 -0.1510
14257W        W30391   9.628  12.432  12.922 -0.4046 -0.1545 -0.1754
14258W        W30392  16.906  16.947   1.349  0.0225  0.3199 -0.3064
14259W        W30393  18.392   8.891   2.809  0.4202 -0.1271 -0.0018
14260W        W30394  15.748  14.635   2.221 -0.0799 -0.1009  0.0514
14261W        W30395  13.202  11.851  13.917  0.0372 -0.5064 -0.3810
14262W        W30396   8.855  15.678   2.861  0.1382 -0.2435  0.0559
14263W        W30397  17.590   5.600   1.594  0.0467  0.1732  0.2645
14264W        W30398   9.691   4.168   2.111  0.2366  0.0056  0.1611
14265W        W30399  15.690   0.773  12.362  0.0947  0.0926 -0.0402
14266W        W30400   4.026  14.612   3.780  0.3217 -0.2096 -0.1102
14267W        W30401  13.552  15.229  13.006  0.0611 -0.1025 -0.2904
14268W        W30402  12.911  12.534  14.707 -0.0729  0.1003 -0.2420
14269W        W30403  12.886   1.109  14.310 -0.1188  0.1516 -0.1216
14270W        W30404  15.158  18.807  11.572 -0.0312  0.1860 -0.0825
14271W        W30405   1.763  16.132   1.151 -0.1234 -0.0308  0.0328
14272W        W30406   5.683  12.666  13.464  0.2301  0.1010  0.3449
14273W        W30407   1.912   0.111   2.686 -0.0849 -0.0830  0.0569
14274W        W30408  16.816   7.379  12.815  0.0149  0.0680  0.0125
14275W        W30409   4.396   6.904   2.905  0.2659  0.1285  0.1907
14276W        W30410  16.205  13.045   4.911 -0.2712  0.0628 -0.2039
14277W        W30411  18.337   6.856  10.987 -0.0867  0.0725 -0.4441
14278W        W30412   1.431  18.156  10.929 -0.1415  0.1634 -0.3143
14279W        W30413   0.271   0.539  14.095  0.1827  0.0887 -0.1001
14280W        W30414   6.391   9.503   9.729  0.0176  0.4087 -0.1596
14281W        W30415  14.929  13.032   0.206  0.0958 -0.3120  0.1595
14282W        W30416  15.774  18.104  11.064  0.3949 -0.0365  0.0751
14283W        W30417   7.373   1.755   4.597  0.0993 -0.0061 -0.1797
14284W        W30418   0.010  19.173  13.046 -0.0291 -0.1063  0.1228
14285W        W30419  13.327   1.559   1.692  0.1750  0.0126  0.2796
14286W        W30420   4.307  19.128  11.601 -0.3563 -0.1838  0.1586
14287W        W30421   6.230  14.552   5.003 -0.0505 -0.0718  0.0866
14288W        W30422   7.489  14.209   5.180  0.0059  0.1361  0.1185
14289W        W30423  16.571  17.429   2.553  0.0055  0.2481 -0.0084
14290W        W30424  17.327   5.866   0.277  0.0667 -0.5090 -0.3330
14291W        W30425   4.139  16.439  13.852 -0.3535 -0.0840 -0.0720
14292W        W30426  18.946  15.756  13.090 -0.3188 -0.2750 -0.2203
14293W        W30427   5.500   0.086   5.079 -0.1014  0.3983  0.4223
14294W        W30428   7.185   2.659   5.086  0.1981 -0.2045  0.0493
14295W        W30429  16.155   2.091   0.828  0.2773  0.0754  0.1274
14296W        W30430   4.134  16.691  11.219  0.2064 -0.0631 -0.0175
14297W        W30431  11.017  12.251  11.312 -0.1063  0.2467  0.3145
14298W        W30432   2.997  16.787  10.324  0.0259 -0.0810 -0.0970
14299W        W30433   9.707  16.151  10.832 -0.1689 -0.0087  0.0338
14300W        W30434   6.862  19.005   3.870 -0.5420 -0.0749 -0.1299
14301W        W30435  19.167   2.521  13.539 -0.0727 -0.0581  0.1194
14302W        W30436   4.694  14.929   4.704 -0.0221 -0.3765  0.1100
14303W        W30437   4.415   5.385  12.331 -0.1126 -0.0323  0.3662
14304W        W30438   6.970  10.730  13.875  0.0205  0.0700 -0.3276
14305W        W30439  13.272   8.763  10.644  0.2471  0.1563 -0.2950
14306W        W30440  16.454  14.671  13.698  0.3354  0.0354  0.1683
14307W        W30441   2.276   1.389  10.289  0.0811  0.2359 -0.0628
14308W        W30442   5.093  13.601  14.084 -0.3970 -0.0982 -0.2034
14309W        W30443   5.796   6.208   0.014 -0.0806  0.0290 -0.0104
14310W        W30444   0.629   1.792   4.042 -0.1003 -0.1200  0.0144
14311W        W30445   1.959   2.367  11.528 -0.0083  0.0752 -0.0266
14312W        W30446  10.511  11.488   4.325  0.0894 -0.0166  0.2902
14313W        W30447   6.500  10.251  13.375  0.2521  0.1729  0.2801
14314W        W30448  16.079  11.070  10.007  0.1150 -0.0953 -0.0542
14315W        W30449  15.662  10.032  12.719 -0.1117  0.0032  0.0712
14316W        W30450   7.293  15.372   1.607  0.2689  0.2140  0.1223
14317W        W30451  13.625   8.171   0.870 -0.1282  0.4801  0.1009
14318W        W30452   3.510   5.507  11.103 -0.3219  0.1183  0.0504
14319W        W30453   5.837   9.347  12.787  0.0683 -0.1868  0.2206
14320W        W30454   6.720   7.894  11.859 -0.1097 -0.0273  0.0797
14321W        W30455  16.162   1.855   5.760  0.1050  0.0468  0.1806
14322W        W30456  11.614  15.622  14.684 -0.1669 -0.0778  0.2703
14323W        W30457   4.459   6.413   2.791  0.0225  0.2604 -0.4498
14324W        W30458   2.214   8.515  10.978  0.2366 -0.1856  0.1886
14325W        W30459  11.295  14.009   6.212 -0.1143  0.2853  0.0802
14326W        W30460  16.311   7.102   4.706 -0.1035 -0.2762  0.1058
14327W        W30461   1.277   9.313   1.009  0.1322  0.2287 -0.0733
14328W        W30462   7.730   9.165   3.174 -0.2255 -0.0505 -0.4060
14329W        W30463  11.485  16.164   0.781 -0.4179 -0.1169  0.1274
14330W        W30464   1.660   5.327  14.117 -0.1156 -0.0820  0.1143
14331W        W30465   8.771   6.789   2.535  0.2439  0.0894  0.1028
14332W        W30466  10.411  18.787   0.225  0.2179  0.0913  0.3232
14333W        W30467  14.395   5.948   2.581  0.1849 -0.0191 -0.1520
14334W        W30468   8.743   1.496  11.158  0.1387 -0.1937 -0.1071
14335W        W30469  14.822   4.659   1.454  0.0595  0.2703  0.0217
14336W        W30470   7.047   1.269  12.269 -0.2505  0.1947  0.0475
14337W        W30471  14.466  14.903  14.017 -0.0141  0.0401  0.1598
14338W        W30472   0.081   2.207   5.286  0.0107 -0.3932  0.0990
14339W        W30473   0.060   9.444  14.598 -0.0157 -0.0130 -0.2584
14340W        W30474  16.574  15.394   2.574 -0.2431  0.0530  0.1538
14341W        W30475  11.040  15.080   0.655 -0.3071 -0.0864  0.0363
14342W        W30476   9.299  15.784   1.669  0.0062  0.2886 -0.2154
14343W        W30477  12.118   3.611   4.731  0.2044  0.0958  0.0381
14344W        W30478  12.829   7.758   0.549 -0.0030  0.4806  0.0571
14345W        W30479   1.788  17.650   5.914 -0.0047 -0.0633  0.0797
14346W        W30480  17.566  10.384   1.723  0.1008 -0.0331 -0.2854
14347W        W30481  17.700   3.486  13.910  0.1759 -0.4300  0.0389
14348W        W30482  10.513   0.998   0.527  0.1277  0.0767  0.0084
14349W        W30483  10.131  16.303  12.425 -0.1256  0.1565  0.1911
14350W        W30484   1.815  15.557  12.911  0.0443 -0.2394 -0.0282
14351W        W30485  17.091   0.872  10.581  0.0104  0.2174 -0.2364
14352W        W30486  13.441   1.458   3.697  0.1110  0.1589  0.0904
14353W        W30487   8.943   1.832   1.488  0.1203  0.0134  0.2161
14354W        W30488  11.328   4.448  11.349  0.2190  0.5374  0.0777
14355W        W30489  11.472  16.105  12.025 -0.2902  0.0709 -0.0247
14356W        W30490  14.062  14.113  14.854  0.1219 -0.1663  0.0721
14357W        W30491   0.033   8.331  11.725 -0.2793 -0.1891 -0.3525
14358W        W30492   7.003  16.542  14.563 -0.1412  0.4475 -0.2957
14359W        W30493   8.499  16.827   1.666 -0.2473  0.0720  0.1535
14360W        W30494   9.151   7.002  13.513  0.1111 -0.0396 -0.1661
14361W        W30495   2.791  19.319  14.045  0.0941 -0.3199  0.4311
14362W        W30496   3.059   8.249  13.589 -0.1238 -0.0168 -0.0807
14363W        W30497   9.651   6.418   0.786  0.1311 -0.0688 -0.2089
14364W        W30498  10.136   1.046   3.534 -0.1496  0.0584  0.2513
14365W        W30499   0.885   0.398  11.023 -0.4082 -0.1660  0.2588
14366W        W30500   5.244  11.741  10.452  0.2396  0.0448  0.0083
14367W        W30501   2.705   6.576   2.737  0.2686  0.3067 -0.0060
14368W        W30502  18.964   7.474   4.374 -0.0346 -0.1312 -0.0792
14369W        W30503   8.641   4.556   3.757  0.0115  0.2624 -0.0114
14370W        W30504  14.385   5.922  11.025 -0.4747 -0.0783 -0.0956
14371W        W30505  10.194  13.751   4.923 -0.1202 -0.1228  0.0530
14372W        W30506   2.941  13.132  14.862 -0.3412 -0.1138 -0.1160
14373W        W30507   3.393  10.815   3.569 -0.0471 -0.0554  0.0757
14374W        W30508  13.988  16.002   4.687 -0.1476  0.2109 -0.0955
14375W        W30509  13.432   9.417  10.119 -0.0636 -0.2110  0.1557
14376W        W30510  12.369  13.715   1.395  0.0260  0.1639  0.1035
14377W        W30511   8.173  17.201   2.658  0.2225 -0.1002 -0.0485
14378W        W30512  18.544  17.060  10.438  0.0580  0.1349 -0.2558
14379W        W30513  15.605   9.871  13.215  0.1500  0.0784  0.0985
14380W        W30514  17.968   9.428   0.917  0.3267 -0.0038 -0.0310
14381W        W30515   5.749  11.165   4.381 -0.0871  0.1180 -0.3176
14382W        W30516  18.486  14.309  11.454 -0.1546  0.2421  0.1254
14383W        W30517  11.155  16.375  13.654  0.0561 -0.0734  0.1874
14384W        W30518   6.330   4.534   4.325 -0.0597  0.0861 -0.1263
14385W        W30519   0.034  11.373  14.186  0.0656 -0.1502  0.0497
14386W        W30520   3.758  11.582   0.595  0.0510  0.2070 -0.5879
14387W        W30521   6.908  18.007  11.014  0.0278  0.3642  0.0040
14388W        W30522  16.659   8.362   2.610 -0.0807 -0.0731 -0.2288
14389W        W30523  18.818  18.938   4.234 -0.1026  0.1191 -0.2259
14390W        W30524   7.331  18.722   0.414  0.0029 -0.2867  0.0734
14391W        W30525  11.838   1.160   5.262 -0.3140  0.0520 -0.0916
14392W        W30526   7.946  13.983   5.159  0.2429 -0.0264 -0.1299
14393W        W30527  10.558   6.862   4.590  0.2164 -0.0607 -0.0935
14394W        W30528   8.157   3.337  13.451 -0.0001  0.0704 -0.1263
14395W        W30529  10.060   0.650  14.428 -0.2296  0.2197  0.0246
14396W        W30530   6.881   5.521  14.396  0.0733  0.4315 -0.4173
14397W        W30531  15.798  14.944   3.575  0.1089  0.0761  0.4210
14398W        W30532   8.234  12.531  11.687 -0.0668  0.2127  0.1124
14399W        W30533  14.762  14.034   2.953 -0.1219  0.0855  0.0108
14400W        W30534  11.829  15.116   1.014 -0.2460  0.2022 -0.0782
14401W        W30535  12.267   7.565   0.949  0.1904 -0.2366 -0.3204
14402W        W30536  12.254   6.205  13.881  0.0531 -0.3122  0.0592
14403W        W30537   1.313   2.788   0.608 -0.2168  0.4114 -0.2161
14404W        W30538   7.491  18.814   2.489 -0.0409  0.3130 -0.1276
14405W        W30539  15.418   3.171   0.338 -0.2369 -0.1645 -0.2235
14406W        W30540  13.954   1.329  12.613 -0.2528  0.0799  0.4104
14407W        W30541   7.440   4.139   3.575 -0.1119 -0.0082 -0.1113
14408W        W30542  14.883  12.196   0.853 -0.0936  0.0190  0.2446
14409W        W30543  11.706   5.038  11.265  0.4044  0.2388  0.3395
14410W        W30544   7.222   6.919   2.787 -0.0539 -0.0612  0.1221
14411W        W30545   6.376  12.757  12.498 -0.1497  0.0928 -0.0199
14412W        W30546   2.494   5.033   2.162  0.3830  0.0351 -0.0259
14413W        W30547  16.697   7.491  10.737 -0.1457 -0.6233  0.1134
14414W        W30548   3.385  15.380   3.534  0.1051  0.2709  0.2249
14415W        W30549   9.282   2.263   3.141 -0.0341 -0.0530  0.2410
14416W        W30550  17.331   2.375   2.660 -0.0907 -0.0008  0.0430
14417W        W30551  11.778  19.116   5.709  0.0713  0.0639 -0.0134
14418W        W30552   1.543  12.228  10.147  0.1861  0.1569  0.3034
14419W        W30553  12.349   9.915  12.166 -0.0540  0.2142 -0.2909
14420W        W30554   9.077  14.490   1.903 -0.3038 -0.1028  0.2217
14421W        W30555  10.223  13.960  11.443  0.1724 -0.0853 -0.0022
14422W        W30556  17.345   3.689   2.888 -0.3425 -0.0217 -0.2743
14423W        W30557   6.660   1.317  14.004  0.2801 -0.1567 -0.0289
14424W        W30558   0.016  10.964  10.187  0.1223  0.2278  0.2328
14425W        W30559   7.014   6.278  13.965 -0.1902 -0.0782 -0.4638
14426W        W30560   7.981  15.344  11.973 -0.0772  0.1894  0.1020
14427W        W30561   7.379  12.903   3.872 -0.4179 -0.2777 -0.1516
14428W        W30562  10.710   9.546  12.871 -0.3597 -0.1310 -0.2624
14429W        W30563  13.763   5.064   4.082  0.1659  0.1437 -0.0331
14430W        W30564  11.595   4.164  12.812 -0.1479  0.4415  0.1765
14431W        W30565   1.997  10.279   1.592 -0.0338 -0.0046  0.1634
14432W        W30566   7.094   0.317   4.306 -0.0002 -0.2062 -0.2197
14433W        W30567  18.097   7.478  12.662  0.0683  0.0798 -0.1014
14434W        W30568   3.766  19.097  13.442  0.3288 -0.0737 -0.2459
14435W        W30569   2.548   3.760   4.258  0.2163  0.0428 -0.1180
14436W        W30570   5.407  15.818  14.624  0.0865  0.6373 -0.0537
14437W        W30571  15.543  14.076  14.611  0.3777 -0.1176 -0.0863
14438W        W30572   0.504   0.016   1.619  0.0003  0.1479 -0.0432
14439W        W30573   4.284  18.233   2.731  0.0265  0.3321  0.1069
14440W        W30574   1.668  19.253  12.608 -0.0598  0.1697 -0.1449
14441W        W30575   1.865  10.014   4.328  0.0656 -0.1074  0.1412
14442W        W30576   7.840  17.786   2.488 -0.3112 -0.3014 -0.1877
14443W        W30577   5.862  13.184   1.157 -0.1171 -0.2370 -0.1608
14444W        W30578  15.134   7.257   3.584 -0.0502  0.0303 -0.0949
14445W        W30579  12.626   5.382   0.996 -0.5377 -0.0759 -0.2802
14446W        W30580  10.782   3.517  10.976  0.0720  0.0477 -0.0898
14447W        W30581  13.639  12.925   4.832  0.0826  0.4013 -0.2125
14448W        W30582   1.595   4.921   3.778  0.2258  0.3256  0.0671
14449W        W30583   8.507  12.138  10.335 -0.0994  0.1870 -0.4019
14450W        W30584   6.851   1.509   3.900  0.2249 -0.2342 -0.1533
14451W        W30585  13.043   2.059  14.467 -0.1336  0.1488 -0.0969
14452W        W30586  18.040   3.776   1.075  0.1605 -0.0082  0.2854
14453W        W30587  19.173  18.582   4.118 -0.3262 -0.0484  0.2649
14454W        W30588   4.408  14.368  14.430  0.2547 -0.3955  0.1919
14455W        W30589  16.989   6.504  12.195  0.2206  0.0061 -0.2509
14456W        W30590  11.366  16.580  11.852 -0.1173 -0.3153  0.1217
14457W        W30591  17.125  10.963  10.269 -0.1313 -0.1037  0.0359
14458W        W30592  10.474   1.368   3.057 -0.1198  0.3823  0.0527
14459W        W30593  16.672   6.781  11.277  0.1922 -0.1116  0.1699
14460W        W30594  11.987   4.650   3.500  0.0914  0.0191 -0.0153
14461W        W30595  14.316   6.966   4.116 -0.2867 -0.2417  0.0135
14462W        W30596   5.642   5.986   1.045  0.0669 -0.2668  0.0275
14463W        W30597   0.886  15.718   0.604 -0.1574  0.3757  0.1121
14464W        W30598  15.469  18.022  12.228  0.2892  0.0314 -0.0586
14465W        W30599   6.522   5.218   0.699 -0.0496 -0.0271  0.0291
14466W        W30600  18.053  11.146  10.384  0.1911  0.0680 -0.1721
14467W        W30601  13.651  11.059   2.152 -0.2670  0.2753  0.1744
14468W        W30602  17.656   4.432   3.535 -0.3604 -0.2431 -0.0055
14469W        W30603  10.597  19.105   4.513 -0.0921  0.0788  0.2900
14470W        W30604  15.622  12.609   0.827  0.0161  0.1116  0.0906
14471W        W30605   7.601  10.446   3.073  0.1774  0.0040 -0.0815
14472W        W30606   7.955   3.423  12.847 -0.1802 -0.0118  0.1355
14473W        W30607  12.898   3.326   0.550  0.1565  0.1012  0.2065
14474W        W30608  12.847   6.812   2.408 -0.3515 -0.0281 -0.1872
14475W        W30609  13.799  19.180  10.175 -0.0534  0.0484  0.2005
14476W        W30610  12.586  14.313   4.081  0.0666  0.6186  0.1159
14477W        W30611   2.788   2.466  12.460  0.3531  0.0382 -0.0440
14478W        W30612  10.725  14.008   4.999  0.2074 -0.0859 -0.0091
14479W        W30613   0.110   4.443  11.600  0.0616  0.1590 -0.1458
14480W        W30614  17.689  14.159   5.218 -0.0309 -0.2123  0.0138
14481W        W30615   1.068   1.353  14.500 -0.2621  0.3231  0.1041
14482W        W30616  17.916   6.983   4.508  0.0739  0.0855  0.1716
14483W        W30617   5.692   6.497   0.981 -0.0108  0.3074 -0.0843
14484W        W30618   6.112  10.728  14.027 -0.1223 -0.1899 -0.0821
14485W        W30619   6.944   1.106   1.669  0.0394 -0.0835  0.1275
14486W        W30620   0.130   3.234   9.319  0.1571  0.1207  0.1311
14487W        W30621   0.329  17.091  14.866 -0.4463 -0.1175 -0.1194
14488W        W30622   9.549   0.364   2.855 -0.4258  0.1907 -0.0440
14489W        W30623   7.510  10.938   9.375  0.1224 -0.3489 -0.0245
14490W        W30624  17.733  17.117   4.548 -0.0283  0.0757 -0.0568
14491W        W30625   9.422   3.604  13.877  0.0148  0.0462 -0.0869
14492W        W30626   5.488  11.228   3.165  0.1101  0.0473  0.1944
14493W        W30627   0.233  16.526   5.466  0.1052  0.4542 -0.3019
14494W        W30628   1.747   9.255   9.750 -0.0226 -0.4072  0.0434
14495W        W30629  19.305   0.748   0.999 -0.0893 -0.2041 -0.1813
14496W        W30630   2.660  12.959   3.872 -0.3449 -0.3361 -0.0069
14497W        W30631  16.937   5.854   3.960  0.2398 -0.2205  0.1601
14498W        W30632   9.120   7.451   1.857 -0.1549  0.1269  0.0914
14499W        W30633  13.533  16.438   2.638  0.1114 -0.0324 -0.2509
14500W        W30634   4.836   7.329  12.406  0.1993 -0.3467 -0.1606
14501W        W30635   1.740  18.722   5.030 -0.1358  0.0975 -0.3693
14502W        W30636  15.776   7.846   2.935 -0.0269 -0.2346 -0.2822
14503W        W30637   5.103  19.108  14.146  0.1556 -0.0418  0.0821
14504W        W30638   6.683  13.805   1.343  0.2421  0.1660  0.1627
14505W        W30639   4.872  17.069   5.581  0.2574  0.3110 -0.2551
14506W        W30640  17.318   7.611   1.129  0.0626  0.1736 -0.0175
14507W        W30641   7.691   8.223   2.888  0.0603 -0.0990 -0.0284
14508W        W30642   9.400   6.571   3.507 -0.2278  0.1020 -0.1496
14509W        W30643  11.504   6.719  14.142  0.0095  0.0311  0.0604
14510W        W30644   6.656  14.557   4.695  0.0253 -0.4147 -0.0768
14511W        W30645  18.206  18.920   3.469  0.2580  0.0512 -0.0413
14512W        W30646  12.246   2.182   2.858  0.2571  0.3548 -0.0403
14513W        W30647  15.154   7.719  10.764  0.0018  0.2366 -0.0887
14514W        W30648  14.288  11.162  14.168  0.0604  0.0771 -0.0590
14515W        W30649  15.481  11.705   2.343 -0.0360  0.1556 -0.2341
14516W        W30650  15.678  18.726   3.148 -0.0479  0.1060 -0.2317
14517W        W30651   1.699   3.542  10.876 -0.2123  0.4002  0.3970
14518W        W30652  14.050   3.345  14.663 -0.3382  0.1226  0.4818
14519W        W30653  13.306  15.319   0.301 -0.5254 -0.2011 -0.2829
14520W        W30654   9.166   8.315   1.304 -0.2163 -0.2686  0.0488
14521W        W30655  17.716   8.496   4.366 -0.1471 -0.1265 -0.1682
14522W        W30656  10.523   8.215  12.956 -0.5747 -0.2292  0.0377
14523W        W30657  16.047  15.673  14.054 -0.2281 -0.4592  0.4052
14524W        W30658  16.018  12.038  14.249 -0.1408  0.1209  0.3231
14525W        W30659  14.000  12.075   3.842 -0.0433  0.0228 -0.1175
14526W        W30660   3.625   0.981  12.152  0.0103  0.1477  0.3217
14527W        W30661  13.901  15.979   1.833  0.5270 -0.0497  0.1941
14528W        W30662   0.871  12.570   0.456  0.1369  0.1956  0.2831
14529W        W30663   1.361  10.135  11.535 -0.1496  0.1349  0.0654
14530W        W30664   0.666   5.477   9.944 -0.0440 -0.0316 -0.1419
14531W        W30665   5.036   8.507   2.777  0.2963 -0.1768  0.1907
14532W        W30666   6.923   9.445   1.537 -0.0863  0.2475  0.1632
14533W        W30667   6.434  12.388   3.665  0.1417 -0.0542 -0.1454
14534W        W30668  17.474  16.964   1.439  0.1761  0.1039  0.0011
14535W        W30669  14.839  19.244  11.594  0.4752 -0.3329 -0.0022
14536W        W30670   1.394   4.532   4.194  0.0294  0.0406  0.1242
14537W        W30671   7.784   5.259   0.313  0.3311  0.0996  0.1628
14538W        W30672  11.739   3.680  14.757 -0.1438 -0.2595 -0.4714
14539W        W30673   8.461  12.026  11.072 -0.0496 -0.2183  0.1915
14540W        W30674   7.015  18.459   2.068  0.2095 -0.2451 -0.0995
14541W        W30675   6.961  13.126   4.313 -0.1338  0.1808  0.1940
14542W        W30676  17.580   5.215   1.175  0.1595 -0.1792  0.3086
14543W        W30677  15.691   2.371   5.203  0.1545 -0.0752  0.1687
14544W        W30678   0.690  18.527  13.819  0.2132  0.0575  0.0616
14545W        W30679   9.669   1.365  13.335 -0.0433  0.1744 -0.0576
14546W        W30680  16.298   3.232   1.257  0.5250  0.1850  0.2950
14547W        W30681  12.874  17.581   3.640  0.1377 -0.0952 -0.1687
14548W        W30682   8.763   7.648  12.254 -0.1849  0.0500  0.1149
14549W        W30683   0.571  16.547   0.641  0.2998  0.0161 -0.0930
14550W        W30684  10.880   2.635   1.315  0.1569 -0.1334  0.3403
14551W        W30685  19.068  11.892  10.698 -0.0544  0.3777  0.1930
14552W        W30686   2.303  13.881   4.065  0.2061  0.1420  0.0944
14553W        W30687   7.722   1.475  14.397  0.0792 -0.1327  0.0973
14554W        W30688  11.275  12.168  13.438 -0.0408 -0.2583 -0.3387
14555W        W30689   9.027   1.990  11.822 -0.0278 -0.3799  0.0843
14556W        W30690   9.480   4.562  13.375  0.0120  0.2217  0.1001
14557W        W30691   3.140  14.445   3.603 -0.0057 -0.0988  0.1819
14558W        W30692   9.420   1.967   3.596  0.0035 -0.0832  0.0140
14559W        W30693   9.476  15.866   3.558  0.2344  0.0382 -0.1466
14560W        W30694  16.725   0.221   0.078 -0.5799  0.0154  0.2277
14561W        W30695   7.213   4.984  14.399  0.3399 -0.0013  0.2023
14562W        W30696   9.908   5.796   4.740 -0.0622  0.0283 -0.1045
14563W        W30697  12.255   3.914   0.747 -0.0415  0.4000  0.1974
14564W        W30698   3.830  11.222  12.918  0.1262 -0.3441  0.0612
14565W        W30699   9.299   6.387   4.414 -0.1060  0.1060  0.0596
14566W        W30700   1.186   2.270   0.669 -0.2356 -0.1507  0.0260
14567W        W30701   8.839  13.453   3.886  0.1894 -0.2993 -0.1716
14568W        W30702  17.714  16.732  13.202  0.1423  0.1017  0.1923
14569W        W30703  18.320   9.120   3.272  0.0034 -0.0236 -0.2231
14570W        W30704   2.665  17.443  12.222 -0.0048  0.1120 -0.1599
14571W        W30705   0.569   7.489   2.512 -0.2106  0.3946 -0.3995
14572W        W30706   8.727   8.855  12.930  0.3308  0.1281  0.1904
14573W        W30707  16.360  13.925  14.372 -0.0606 -0.3249  0.0669
14574W        W30708   3.713   7.069   1.649 -0.1930  0.2409  0.3167
14575W        W30709  14.179   6.503   1.114  0.0827 -0.2875 -0.2769
14576W        W30710   4.855   7.896   1.929  0.1672 -0.0119  0.0125
14577W        W30711  12.728  16.199   3.952 -0.1446  0.1587  0.1746
14578W        W30712  14.007  12.602  14.553 -0.1672  0.0843  0.1345
14579W        W30713   0.058  11.218  14.822 -0.3053 -0.1929 -0.0513
14580W        W30714  12.742   6.739   3.038 -0.0621  0.3528  0.2124
14581W        W30715  13.889   9.011  11.681 -0.2248 -0.0406  0.3545
14582W        W30716   8.010   6.113   0.467 -0.0541  0.2516 -0.0014
14583W        W30717  10.766   3.985  10.757  0.0798 -0.0928 -0.0737
14584W        W30718   5.628   0.374  13.061  0.1534  0.0550  0.0198
14585W        W30719   0.561   8.643  11.605  0.0348  0.4738  0.2308
14586W        W30720  10.400   1.139   2.573 -0.1735  0.1324 -0.3185
14587W        W30721   7.457  13.192  10.107 -0.0703  0.1261 -0.4316
14588W        W30722   9.318  16.338   1.642  0.0057  0.2887  0.2751
14589W        W30723   0.608   2.439   2.929 -0.0476 -0.0546  0.0008
14590W        W30724   1.096   9.239   3.719 -0.2565 -0.1302  0.0711
14591W        W30725  17.483   6.028  12.043 -0.0445  0.1087 -0.1690
14592W        W30726  18.344  11.286  13.485 -0.0004  0.3259  0.1560
14593W        W30727   4.962  10.172   3.968 -0.0102  0.4763 -0.1401
14594W        W30728   0.860  14.975  12.113 -0.2865  0.2361 -0.0574
14595W        W30729   7.003  11.903  14.797  0.0901 -0.1733  0.1005
14596W        W30730  15.376  18.297   1.210  0.2554  0.0901 -0.0100
14597W        W30731   9.208  12.458   5.417 -0.2135 -0.2703 -0.0863
14598W        W30732  10.477  10.168   3.790  0.0403  0.3160  0.1461
14599W        W30733   3.876  12.670  10.446  0.1494  0.0739  0.0884
14600W        W30734  12.357   1.773  12.883  0.1953 -0.1503  0.2297
14601W        W30735   5.413   4.171   3.681  0.0254  0.1877 -0.0961
14602W        W30736  10.900   4.467   1.015 -0.0496  0.4603  0.0921
14603W        W30737   0.893  12.588   3.291  0.2627  0.1646 -0.4408
14604W        W30738  19.138  14.078   2.502  0.2333  0.1054  0.0900
14605W        W30739   5.307  16.269   4.938  0.0075 -0.0503  0.4263
14606W        W30740  15.673   6.525  10.278 -0.4999  0.1163 -0.1171
14607W        W30741   4.275  18.521  13.109  0.1904 -0.0749 -0.1486
14608W        W30742   3.678   9.482  13.600  0.1823 -0.0472  0.0292
14609W        W30743  12.867   7.449   2.848 -0.0956  0.0785  0.0877
14610W        W30744  13.611  17.963  13.244 -0.0209 -0.1064 -0.1740
14611W        W30745   9.872   4.593   2.600  0.0301 -0.3295 -0.3210
14612W        W30746   5.640   7.510   0.866 -0.0729 -0.0399  0.1612
14613W        W30747  12.408   4.344  10.383 -0.0255 -0.4965 -0.0987
14614W        W30748  11.118  14.201   1.579  0.0772  0.2067  0.2046
14615W        W30749   7.823   2.002   3.051  0.0722  0.1115  0.1951
14616W        W30750  17.488   0.843  12.820  0.1915  0.0204  0.1492
14617W        W30751   8.050   0.071  10.502  0.0022  0.0614  0.2234
14618W        W30752   2.173  18.004   5.105  0.2393 -0.1936  0.0438
14619W        W30753   4.615   5.193   9.695 -0.1458 -0.1813  0.2899
14620W        W30754   4.700  10.539  10.812  0.3535  0.0254 -0.1387
14621W        W30755   7.019   8.904  14.279  0.0463 -0.0212  0.0096
14622W        W30756  14.380  17.985   1.481 -0.1164  0.1932  0.0657
14623W        W30757  15.767   2.136  14.302  0.0549 -0.5000 -0.0858
14624W        W30758   8.385   1.338  14.810 -0.0238  0.0287 -0.0064
14625W        W30759   0.597  15.470   4.018  0.1370 -0.0426  0.0522
14626W        W30760  11.175   4.090  13.641  0.0260  0.0430 -0.0635
14627W        W30761   1.311   7.124  12.841  0.0860 -0.2451  0.1969
14628W        W30762  13.147   5.599  13.999 -0.2613 -0.3745 -0.5323
14629W        W30763   7.218  11.221   4.042  0.0144 -0.1152  0.1085
14630W        W30764   4.263   0.741  14.378  0.0127  0.0257  0.0935
14631W        W30765  10.875   3.580  12.280  0.2207 -0.0572  0.0500
14632W        W30766   8.353   5.316   0.077  0.3866 -0.1861  0.1058
14633W        W30767  12.874   9.220  11.362 -0.1069 -0.3320  0.1764
14634W        W30768  16.326   2.290  14.064  0.3273 -0.0429 -0.0277
14635W        W30769   0.204   3.870  14.161  0.0916  0.2405 -0.0940
14636W        W30770  13.524  18.702   5.691 -0.0500 -0.1391 -0.2695
14637W        W30771   6.166   8.294  13.147 -0.1701 -0.2520  0.1564
14638W        W30772  16.224   6.659   2.297 -0.0546  0.1463 -0.1791
14639W        W30773  12.137   8.011   4.384 -0.2224 -0.3377 -0.0259
14640W        W30774   2.363  18.553   1.514  0.2213  0.0099  0.3046
14641W        W30775   4.356  17.609   0.601  0.1629  0.3553  0.1690
14642W        W30776  18.201  17.326   0.358 -0.2614 -0.0281  0.2922
14643W        W30777  13.887   7.994   3.621  0.1816  0.3578  0.2385
14644W        W30778   9.889   2.039   3.368 -0.2370  0.2472  0.1607
14645W        W30779  10.260   9.565  13.078 -0.0284 -0.2276 -0.1862
14646W        W30780  13.413   3.699  10.885  0.0646 -0.1104 -0.1964
14647W        W30781   8.760   5.893  14.668 -0.0677 -0.0572 -0.0035
14648W        W30782  13.115  16.837  11.288  0.0989  0.0900  0.2089
14649W        W30783  14.673   6.522   3.479  0.1786 -0.1939  0.1193
14650W        W30784   4.885   9.408   0.839 -0.0674 -0.1714  0.2986
14651W        W30785  14.572   4.278   0.120 -0.1372 -0.2127 -0.1483
14652W        W30786   0.464   7.910   4.704 -0.0149  0.0186  0.2889
14653W        W30787   4.049  11.435  14.658 -0.0283  0.1098 -0.0687
14654W        W30788  18.800   1.792   3.088 -0.0389  0.1140 -0.4058
14655W        W30789  11.877  18.697   5.445 -0.1075  0.1600  0.0490
14656W        W30790  16.641  18.663  14.247 -0.1808  0.0325  0.0315
14657W        W30791  13.665  16.548   0.594 -0.0221  0.1295 -0.0655
14658W        W30792   4.650   4.159  10.779 -0.0158  0.3258  0.5282
14659W        W30793   9.264   7.714  12.035  0.3198  0.3554  0.3350
14660W        W30794   4.988  18.303   3.397 -0.1074 -0.3242 -0.0113
14661W        W30795  15.135   8.490  14.316  0.0675  0.1361 -0.1636
14662W        W30796  17.396  11.282   4.916 -0.1685  0.0865 -0.2061
14663W        W30797   8.473  18.091   1.728 -0.1208  0.0952  0.1748
14664W        W30798   8.208  12.745   4.330  0.3619 -0.0535  0.1286
14665W        W30799   8.498   9.891   3.162 -0.1446  0.1705  0.1231
14666W        W30800   0.871  18.983   0.220 -0.2078  0.0568  0.1551
14667W        W30801   2.372   2.173  10.747  0.0735 -0.0022  0.2462
14668W        W30802  11.729  18.732   1.800  0.2183 -0.0313  0.1016
14669W        W30803  15.552   3.621   0.129  0.0034 -0.3759 -0.0003
14670W        W30804  14.054   4.889  11.521 -0.1354  0.0659 -0.1081
14671W        W30805  11.937   2.160   4.106  0.1242 -0.1504  0.0781
14672W        W30806   7.596   4.660  10.494  0.1850  0.1779 -0.2679
14673W        W30807  14.875   7.701  14.680  0.3627 -0.3161  0.2899
14674W        W30808  13.266   6.608   3.239  0.2995  0.2209 -0.0910
14675W        W30809  12.637  14.587  13.222  0.1324  0.3790  0.0492
14676W        W30810   0.039  11.347   3.327 -0.1298  0.1158  0.1830
14677W        W30811  15.994   0.169   2.821 -0.1010  0.0009 -0.3261
14678W        W30812  17.250  16.413   5.018 -0.0043 -0.0474 -0.1916
14679W        W30813   1.116  11.614   4.234  0.0499 -0.0454 -0.2724
14680W        W30814   0.693   1.933  11.854 -0.2329  0.0247 -0.0018
14681W        W30815  13.778   0.996   5.021 -0.2591  0.1840  0.0174
14682W        W30816  11.632   0.216  11.466  0.1123  0.1299  0.2620
14683W        W30817   2.401  10.787   3.728 -0.0788  0.1544 -0.4636
14684W        W30818  11.464   5.835  14.137 -0.0164 -0.4551 -0.0842
14685W        W30819   0.838  10.048   2.268 -0.0226 -0.2131 -0.0446
14686W        W30820   4.265   9.753  11.348  0.0494  0.4042  0.3018
14687W        W30821   9.192   8.458   3.757 -0.3159  0.2861  0.5107
14688W        W30822   4.387   6.001   3.649 -0.0705 -0.0931 -0.1783
14689W        W30823  17.038  16.225   4.576 -0.0110  0.0045  0.0024
14690W        W30824   7.226   7.937  13.974  0.0148  0.0278 -0.0521
14691W        W30825   6.274  17.027  13.875  0.0560 -0.0160  0.0830
14692W        W30826   4.699   1.056  10.676 -0.0332 -0.2489 -0.1947
14693W        W30827   3.010  18.206  12.746  0.4900 -0.2270  0.2499
14694W        W30828  14.567   8.800  10.638  0.2512 -0.1441 -0.1065
14695W        W30829   4.802  14.886  11.331 -0.2547  0.2263 -0.1749
14696W        W30830   5.803   6.039  13.301 -0.0845  0.1580  0.1926
14697W        W30831   0.791  14.989   2.973  0.2612 -0.2988 -0.1134
14698W        W30832   4.846  14.388  11.019  0.0765 -0.2625 -0.2204
14699W        W30833  18.188  13.931  10.517 -0.2922 -0.0944 -0.0012
14700W        W30834   1.660   8.823  13.849  0.2568 -0.3067  0.0183
14701W        W30835   7.411   5.523   0.071  0.1826 -0.0977  0.0510
14702W        W30836   7.600   5.964  11.843 -0.2283  0.0016 -0.0248
14703W        W30837  12.920   3.280  12.630  0.0840 -0.1628 -0.0888
14704W        W30838   3.774  12.491   3.291 -0.2573  0.0193  0.0902
14705W        W30839  17.867  15.009   1.480 -0.1224  0.2479 -0.0247
14706W        W30840   2.955  16.781  14.334 -0.4585  0.5306  0.1278
14707W        W30841   1.519  12.289  14.750 -0.1522  0.0004  0.4555
14708W        W30842   5.450  17.905   4.591  0.0422  0.4280 -0.0401
14709W        W30843   7.976   9.556  10.108 -0.1274 -0.0539  0.0442
14710W        W30844  17.064   9.597  11.913 -0.2889  0.1184 -0.1091
14711W        W30845  16.594  14.457  14.444  0.0111 -0.0905  0.0864
14712W        W30846  10.278  10.005   4.618  0.3549 -0.0194 -0.3062
14713W        W30847   6.913  10.721   3.370 -0.1790  0.1889 -0.2251
14714W        W30848   5.754  16.163  14.642 -0.1587  0.0641 -0.0865
14715W        W30849  15.800   4.434  12.249 -0.0475  0.3303  0.2871
14716W        W30850   5.792  14.842   0.495 -0.1475 -0.1898  0.0857
14717W        W30851   5.855  13.264   5.239 -0.0052  0.2731  0.0311
14718W        W30852  18.746  15.891  12.309  0.0559  0.1350 -0.3020
14719W        W30853   0.459   9.317   1.607 -0.0876 -0.1481 -0.2333
14720W        W30854   8.198  11.377  12.470 -0.3822 -0.0505 -0.1011
14721W        W30855  16.870   9.037   4.207  0.2348  0.1408 -0.0522
14722W        W30856   8.431   3.332   3.788  0.2435 -0.4781  0.1417
14723W        W30857   7.810   7.042   3.930 -0.1484 -0.1181  0.1825
14724W        W30858  11.261   7.094  11.275 -0.2773 -0.0080 -0.4033
14725W        W30859   6.077  11.803  14.908 -0.1078  0.3316  0.1387
14726W        W30860  17.636   3.434  12.315  0.1829  0.4401 -0.0271
14727W        W30861   3.763   7.018   2.907  0.0922 -0.0666  0.0839
14728W        W30862   2.922   0.455  12.443 -0.1487 -0.1643 -0.0527
14729W        W30863   0.221   6.862   3.365 -0.0544  0.1046  0.3300
14730W        W30864  12.851   6.411   4.454 -0.1025  0.0945 -0.0514
14731W        W30865  10.568   6.926   2.450 -0.1084  0.1034 -0.0313
14732W        W30866  15.139   1.256   4.041  0.0778 -0.1014 -0.2175
14733W        W30867   7.745   7.673   9.243 -0.0704 -0.1932 -0.3393
14734W        W30868   7.607  13.484   3.766  0.0742 -0.2532  0.1916
14735W        W30869   2.676   6.424  13.131 -0.1506 -0.2883  0.1951
14736W        W30870   9.126   7.570   3.483  0.0064 -0.1746 -0.2793
14737W        W30871  16.227  18.222  10.249  0.3965  0.0328  0.1695
14738W        W30872   5.910   3.411  12.102 -0.2899  0.0036 -0.2183
14739W        W30873   0.254  18.289   1.037  0.0665  0.0480  0.0356
14740W        W30874  14.201  15.743   0.423  0.1309 -0.0535 -0.4820
14741W        W30875   1.063  18.022   3.133 -0.0805 -0.2964 -0.2356
14742W        W30876   4.339  10.133   4.473 -0.3010 -0.0657  0.0488
14743W        W30877  14.884  14.237   2.490 -0.4064 -0.1714  0.0945
14744W        W30878  12.499  17.678   3.285  0.2152 -0.0762 -0.1761
14745W        W30879   1.968   0.089  13.102  0.1440  0.1135 -0.2041
14746W        W30880  10.464  12.184   2.708  0.0491 -0.0234 -0.2922
14747W        W30881   4.428  16.113   0.166  0.3990 -0.3317 -0.0787
14748W        W30882   2.417  14.809   4.184 -0.0805 -0.4159 -0.5406
14749W        W30883   9.052  10.718   5.654  0.0791  0.0963  0.0066
14750W        W30884  16.070  11.394  14.846  0.2998  0.0149 -0.0696
14751W        W30885  13.662  14.784   5.920  0.0538 -0.0556 -0.1381
14752W        W30886  10.137   8.033  10.362 -0.0562  0.0055 -0.0117
14753W        W30887   5.897   4.117   3.481  0.3267 -0.0096  0.2401
14754W        W30888   7.323   9.074   2.898  0.2233  0.1916  0.2256
14755W        W30889  13.898   9.682   3.178 -0.0023 -0.1520 -0.4348
14756W        W30890   3.491  11.357  13.713  0.1464 -0.0395 -0.2556
14757W        W30891  10.783  15.457   3.860  0.1120 -0.2967 -0.1709
14758W        W30892   3.846   1.452  11.267 -0.1258  0.1664 -0.4166
14759W        W30893  11.432   9.806   5.079  0.1440  0.1499 -0.1426
14760W        W30894  17.546  17.991   0.237  0.4319  0.0466  0.1465
14761W        W30895   9.006  16.770   0.388  0.1043 -0.1769  0.4288
14762W        W30896   6.330  19.348   1.130  0.1963  0.1611  0.1824
14763W        W30897   8.439  11.972  13.692 -0.1234 -0.0389  0.2538
14764W        W30898  13.295   2.728   3.388 -0.1129 -0.0765 -0.0701
14765W        W30899   4.887  14.191  14.630 -0.0038  0.1215  0.2515
14766W        W30900  12.441   3.170   0.333  0.2482 -0.0155 -0.1388
14767W        W30901  11.608   7.956   3.613  0.0591 -0.2020 -0.2775
14768W        W30902  16.325   4.600   4.712 -0.3359  0.0159  0.3303
14769W        W30903   2.956   4.696  11.410 -0.3155  0.1707  0.1059
14770W        W30904   0.923   2.331  12.150  0.1996  0.2227  0.1016
14771W        W30905  13.921   1.572   3.752  0.0916  0.0857  0.3195
14772W        W30906   2.114  12.150   0.910  0.1301 -0.0753 -0.1749
14773W        W30907   5.379   5.150  13.977 -0.1032 -0.2387  0.1240
14774W        W30908   3.689  16.815  14.193  0.3163  0.4709  0.0649
14775W        W30909   4.792  14.912   2.235 -0.3931  0.1475  0.2702
14776W        W30910   8.907  15.681   4.014  0.0040  0.0688 -0.1338
14777W        W30911  12.208   9.363  13.077  0.2201 -0.3176 -0.1210
14778W        W30912  13.536  13.706  12.699  0.1561  0.2367 -0.0973
14779W        W30913  14.089   8.398  13.987 -0.1702 -0.0036  0.1427
14780W        W30914  14.481  10.015  12.544 -0.0641 -0.0166  0.0005
14781W        W30915   6.553  13.407   4.517 -0.0961  0.1626  0.1982
14782W        W30916   1.987  18.725   1.202 -0.1126 -0.0681  0.0375
14783W        W30917   6.026   3.140   4.622  0.0467 -0.2045 -0.2668
14784W        W30918  14.139  18.453  14.405 -0.0266 -0.0676 -0.2158
14785W        W30919   1.302  18.323   1.848  0.1654  0.0500  0.2174
14786W        W30920   8.554  15.948   3.764  0.0117 -0.2203  0.2921
14787W        W30921  15.840  11.448   1.260  0.1020 -0.1309 -0.4013
14788W        W30922   9.854   8.934   1.088  0.0255 -0.0726  0.2541
14789W        W30923   7.649   5.908  14.637 -0.1215 -0.1897 -0.0444
14790W        W30924   4.151  12.995  12.768  0.0134  0.0627  0.2507
14791W        W30925  18.575   2.576  13.269 -0.0634 -0.1972 -0.0267
14792W        W30926   7.311  14.280   4.662  0.2496 -0.2202  0.3270
14793W        W30927   9.610   6.137  14.419  0.2764  0.1396 -0.2093
14794W        W30928  10.156  10.854   1.235  0.1224 -0.0424 -0.1785
14795W        W30929   9.238  15.538  12.099  0.0773 -0.3618 -0.1218
14796W        W30930   0.827   7.681  13.190 -0.3365  0.1057  0.1967
14797W        W30931  15.124  10.330   4.047 -0.3732 -0.2265 -0.2352
14798W        W30932   2.930  11.894   3.134  0.0087 -0.1972  0.1853
14799W        W30933   6.206  13.736   3.550 -0.0073 -0.1969  0.1985
14800W        W30934  13.866   3.209  13.248  0.1312 -0.1458  0.0878
14801W        W30935  10.283  11.431  11.191 -0.4848  0.0858  0.4270
14802W        W30936  10.883   0.161   9.466  0.1638  0.0016  0.1330
14803W        W30937   2.343  17.455   5.165  0.0025 -0.3113 -0.1410
14804W        W30938   3.334  16.422  14.393 -0.0260 -0.0340  0.0345
14805W        W30939   2.229  15.733   2.864 -0.1097  0.1462 -0.0657
14806W        W30940   3.293  18.065   0.327 -0.2169  0.4993 -0.0563
14807W        W30941  10.736   4.111  12.241  0.2490 -0.3047  0.2483
14808W        W30942   8.785  11.901   2.718 -0.1236  0.0010 -0.1542
14809W        W30943   9.919  12.674   5.122 -0.0194  0.2493  0.1458
14810W        W30944   3.196  10.798  10.145  0.0153 -0.1581 -0.1993
14811W        W30945   7.091  15.371  13.765  0.0881 -0.0121 -0.0207
14812W        W30946  16.044  10.068   2.924  0.0553  0.2495 -0.0742
14813W        W30947  17.922   4.439   2.993  0.0970 -0.4053 -0.2003
14814W        W30948  17.175  14.932  13.117 -0.0564  0.2714  0.1980
14815W        W30949  13.507   2.329   5.657 -0.2361 -0.0716  0.0065
14816W        W30950  19.129   8.254   4.223  0.2765  0.0206 -0.4058
14817W        W30951  15.577   8.119   0.160  0.0165  0.1454  0.0392
14818W        W30952  17.423   7.652   3.778 -0.0503 -0.0496 -0.1513
14819W        W30953   9.476  15.651  14.477  0.0285 -0.0775 -0.2681
14820W        W30954  11.551  13.936   1.561  0.2079 -0.2376  0.1206
14821W        W30955   1.692   8.776  11.885 -0.2962 -0.2971 -0.0036
14822W        W30956  11.166  16.130  11.640 -0.1151  0.1365 -0.0943
14823W        W30957   8.689   4.744  14.718 -0.1377  0.1582  0.2826
14824W        W30958  10.576   6.824  12.073 -0.0342 -0.0805 -0.2094
14825W        W30959   6.163   5.502  11.265 -0.2808 -0.4780  0.1245
14826W        W30960   6.478  13.163  13.758  0.6012  0.1430 -0.0173
14827W        W30961   8.994   4.631  10.178 -0.0546 -0.1687  0.0722
14828W        W30962   6.960  16.512  12.265 -0.1843  0.2255 -0.0069
14829W        W30963   8.474  14.942   0.104  0.0235 -0.2213 -0.1311
14830W        W30964  14.231  17.659  11.363  0.0924  0.0099  0.1243
14831W        W30965   7.812  15.160  12.719 -0.1074  0.0113  0.2207
14832W        W30966  17.288   3.439  14.247  0.1092 -0.2115 -0.0815
14833W        W30967   4.172   2.636   9.208 -0.1329  0.5264 -0.0057
14834W        W30968   3.582   8.540  12.570 -0.0952  0.2622  0.1151
14835W        W30969   8.748  12.623  11.510  0.0773  0.1411 -0.3496
14836W        W30970  10.271  16.449   0.792 -0.2048 -0.0400  0.1817
14837W        W30971   6.001   4.349   2.397 -0.0664 -0.1685  0.1511
14838W        W30972  18.402   7.299   3.400  0.2095 -0.1178  0.0612
14839W        W30973   3.642   1.454   2.795 -0.1931  0.3939 -0.2296
14840W        W30974  13.177  17.048  13.570 -0.2741  0.0794 -0.1724
14841W        W30975  13.005  13.740  12.032 -0.4806  0.1988  0.3948
14842W        W30976  14.195  13.570  14.573  0.0518  0.0493  0.2441
14843W        W30977  12.115   8.040  12.940 -0.1808 -0.2616 -0.1399
14844W        W30978  18.608  13.533  14.167  0.2684 -0.1715 -0.1601
14845W        W30979   1.586  11.345  13.257  0.4040  0.0186 -0.2172
14846W        W30980   0.307   4.252   3.705  0.0795  0.2171 -0.2117
14847W        W30981   1.215   3.157  11.640 -0.1484 -0.1111 -0.2529
14848W        W30982  10.642  18.591  11.590  0.2895 -0.0134  0.3484
14849W        W30983   1.837  16.288   0.708 -0.0955 -0.3121 -0.0317
14850W        W30984  10.083   2.248   2.737 -0.1228 -0.2174  0.0175
14851W        W30985   6.394   1.162   3.253  0.3157  0.1193  0.1933
14852W        W30986  17.675  17.102  14.777  0.0751 -0.0401 -0.2226
14853W        W30987   8.851   2.296  13.430 -0.1670 -0.1176 -0.0442
14854W        W30988  12.067   9.621   3.386 -0.1344  0.2654 -0.0237
14855W        W30989   8.254  15.565   3.453 -0.0706 -0.0286  0.1653
14856W        W30990  16.557   8.835   3.757  0.1952 -0.0916  0.2224
14857W        W30991   5.268  16.893   1.638  0.3063  0.1428  0.5949
14858W        W30992  19.289  11.149   0.600  0.2332 -0.0964  0.1980
14859W        W30993   1.140   6.673   2.044 -0.0370  0.3066  0.0010
14860W        W30994  17.358   7.678   2.028  0.1668 -0.2358 -0.0947
14861W        W30995  19.115  14.497   2.035  0.0718 -0.0644 -0.0837
14862W        W30996  17.666   2.028  14.082 -0.0366  0.1366 -0.1253
14863W        W30997   4.031  14.249  11.552 -0.2868  0.3173 -0.0106
14864W        W30998   5.175   9.879  10.984  0.2248 -0.0538  0.2393
14865W        W30999   1.554   6.505   1.195 -0.3420 -0.1109  0.0880
14866W        W31000  18.733  11.445   2.598  0.2032 -0.2281  0.2012
14867W        W31001   0.798   2.230  14.227 -0.0322  0.1627  0.0796
14868W        W31002   7.011  11.112   0.235  0.0037  0.0456  0.1339
14869W        W31003   9.418   9.150  10.206  0.1406  0.2436  0.1070
14870W        W31004  18.131   1.873   0.621 -0.1397  0.3013  0.1261
14871W        W31005   2.337   4.976  13.371 -0.0013  0.4251  0.1389
14872W        W31006   2.074   7.566  11.425  0.2865 -0.0613  0.1400
14873W        W31007   6.231   1.681   2.391  0.1891  0.1412 -0.5749
14874W        W31008  16.984   9.926   5.138 -0.2941  0.0342  0.2436
14875W        W31009  10.913  18.700  12.106 -0.1480  0.2214  0.0476
14876W        W31010  17.524  11.270  10.312  0.1473 -0.0896 -0.1414
14877W        W31011  12.833  16.837   1.530  0.1882  0.1441 -0.0268
14878W        W31012  10.734   5.565   0.098 -0.1810 -0.1435 -0.3108
14879W        W31013   4.309  16.513   3.357 -0.1219 -0.1698  0.1090
14880W        W31014  17.342  17.397  13.416  0.1971  0.0187 -0.0682
14881W        W31015   0.604  16.179  11.218  0.2911 -0.1917  0.0226
14882W        W31016   7.443   0.806   3.175 -0.1346  0.4018  0.0279
14883W        W31017   0.063   5.235  12.046 -0.1424  0.2595 -0.1365
14884W        W31018   8.329   8.634  13.197 -0.3785  0.6022 -0.1664
14885W        W31019   8.741   1.740  12.059 -0.0013 -0.0181 -0.1473
14886W        W31020  13.414  17.302  11.425  0.1894 -0.0020 -0.0894
14887W        W31021  11.396   9.890  13.542 -0.3141 -0.7053  0.0624
14888W        W31022  14.030   0.425  13.550 -0.1250 -0.1057 -0.0119
14889W        W31023  12.019   7.274  13.923 -0.3591  0.0524  0.1001
14890W        W31024  17.290   0.350  10.638  0.2820 -0.1812 -0.6255
14891W        W31025  13.817   4.451  12.808 -0.2124 -0.1362  0.1086
14892W        W31026   3.855   5.790   2.850 -0.2088  0.1974 -0.1134
14893W        W31027   4.034   3.355  14.325  0.1839 -0.0421  0.4273
14894W        W31028  15.329  17.610  11.666  0.0276 -0.2294 -0.0030
14895W        W31029   6.667   9.126   0.593 -0.0657  0.0624 -0.0503
14896W        W31030  13.197  17.994   5.333 -0.2399 -0.2513 -0.1498
14897W        W31031   5.493  13.333   2.152  0.1538 -0.3542  0.1148
14898W        W31032   3.419   2.316   3.730  0.1117  0.4392  0.0577
14899W        W31033  11.030  18.256  11.501  0.0440 -0.0421  0.3751
14900W        W31034  14.670   3.239  12.914 -0.1509  0.2030  0.2815
14901W        W31035  17.020  17.395   2.821  0.0427  0.0221  0.2310
14902W        W31036   4.403   0.218  11.419  0.1652 -0.2590  0.2807
14903W        W31037  14.773  17.103   1.260 -0.1635 -0.1239  0.0615
14904W        W31038   2.007  13.681   0.010 -0.1573 -0.1903  0.0552
14905W        W31039  18.217  15.874  14.326 -0.1570 -0.0511  0.2678
14906W        W31040  18.409   1.984  10.930 -0.0152  0.0140  0.1300
14907W        W31041  13.055  13.093   3.523  0.4442 -0.1525  0.1557
14908W        W31042  13.759   7.869   4.100  0.1389  0.0087 -0.1764
14909W        W31043   1.912   0.925   3.793 -0.5243 -0.2287  0.1814
14910W        W31044   2.210   8.373  14.532  0.1120  0.0200  0.0180
14911W        W31045  15.651  15.383   2.175 -0.2094 -0.2038 -0.0379
14912W        W31046   8.138   1.872   1.289  0.0247  0.0840 -0.0516
14913W        W31047  16.435   5.123  11.884 -0.0858  0.0029  0.1773
14914W        W31048  15.873   6.288   4.657  0.2491 -0.2044 -0.0346
14915W        W31049   1.966   4.299  14.960 -0.0211 -0.0372 -0.0498
14916W        W31050   4.472  10.479   9.727 -0.0852 -0.5269  0.0879
14917W        W31051  10.583   2.125   1.209 -0.0246  0.1123 -0.1354
14918W        W31052  11.628  18.301  11.534  0.1438 -0.0226 -0.1910
14919W        W31053  14.281  10.018   0.403  0.2779  0.1193 -0.0011
14920W        W31054  15.005   0.301   2.299  0.0357  0.0972  0.0729
14921W        W31055  12.227   5.983  10.070 -0.0030  0.0754 -0.1199
14922W        W31056   7.660  17.103  13.551 -0.1752 -0.3127 -0.2619
14923W        W31057  15.814  11.951   2.646 -0.1812  0.2117  0.0429
14924W        W31058   0.650   4.792   3.549 -0.3248 -0.0114 -0.0047
14925W        W31059  11.604  16.652  13.693  0.0690  0.0497 -0.1043
14926W        W31060   4.546  13.135  10.722  0.0244  0.0531 -0.1657
14927W        W31061  13.677   6.723  10.545 -0.1800  0.0793 -0.0558
14928W        W31062   7.005   2.690  11.456  0.1039  0.2194 -0.0722
14929W        W31063   8.525   7.981  11.938  0.3688  0.0958  0.0754
14930W        W31064   7.434   6.883   5.349 -0.0076  0.2522  0.0954
14931W        W31065  14.085   2.139  11.398 -0.0460 -0.0706 -0.0414
14932W        W31066  14.414   2.594  10.125  0.0235 -0.0639 -0.1828
14933W        W31067   0.959  11.977   3.907  0.0572 -0.1240  0.0905
14934W        W31068  14.481   3.948   0.694  0.0750 -0.3690  0.0536
14935W        W31069   9.052   7.301   1.040 -0.0947 -0.3039  0.2874
14936W        W31070   8.585   1.888   0.524  0.0934  0.0932  0.0504
14937W        W31071  16.979  15.926   5.057 -0.0104 -0.0345 -0.1017
14938W        W31072  12.840  15.396   0.417  0.0635  0.2150 -0.0500
14939W        W31073   1.662  14.740  12.811  0.0016 -0.3264  0.0406
14940W        W31074   0.984  10.481  11.931  0.2228 -0.0264 -0.0245
14941W        W31075   3.613  14.925  11.642  0.1896  0.3970  0.1729
14942W        W31076  10.420  17.467   0.082  0.0474 -0.0510 -0.0396
14943W        W31077  13.645   2.518   5.164 -0.0611  0.0834 -0.2947
14944W        W31078   1.216   4.336  13.725  0.1495  0.3654  0.0046
14945W        W31079  12.262  18.911   2.850  0.3443  0.0849  0.2504
14946W        W31080  12.962   2.453  14.721  0.0866 -0.0375  0.0966
14947W        W31081   4.294   3.785  10.779 -0.0281 -0.2354 -0.0004
14948W        W31082   0.572   6.669   3.917 -0.0868 -0.2088 -0.1750
14949W        W31083  18.649  18.844  13.988 -0.1648 -0.1632  0.1727
14950W        W31084  14.577   7.754  10.944 -0.1500  0.3078 -0.0233
14951W        W31085   2.810   5.410  11.914  0.1478 -0.0211  0.0720
14952W        W31086   7.442   8.704   0.358  0.2851 -0.1328 -0.2735
14953W        W31087   8.576   7.181  12.990  0.0020  0.1368 -0.2615
14954W        W31088   9.018   2.796  13.571  0.0507 -0.0005 -0.1520
14955W        W31089  18.546  14.897   3.518  0.3358  0.0391 -0.0197
14956W        W31090   3.122   0.786   4.334 -0.1992  0.1098 -0.1774
14957W        W31091  18.798  17.327   4.194  0.1679 -0.1151  0.1373
14958W        W31092   6.639  19.229   0.751 -0.0172  0.5532  0.1164
14959W        W31093  18.148   8.556   0.508 -0.2044  0.1781 -0.0955
14960W        W31094   7.405   5.034   1.668  0.3259  0.2128  0.0217
14961W        W31095  16.329   7.407  12.067  0.0870  0.1579  0.2811
14962W        W31096   4.515   2.029   2.457  0.0286 -0.4899 -0.2250
14963W        W31097   8.488  15.558  12.001 -0.2225  0.2052 -0.2525
14964W        W31098  14.401   2.821  12.331  0.2554 -0.3711  0.2029
14965W        W31099   0.307  19.273   5.243  0.1884 -0.0906  0.1633
14966W        W31100  18.885  16.821   0.432 -0.0803 -0.0123 -0.4033
14967W        W31101  19.253   3.837   1.519  0.1410 -0.0043 -0.0911
14968W        W31102   8.123   0.952  12.814  0.1117  0.1450  0.3913
14969W        W31103   6.185  13.032   0.806  0.1081 -0.1676 -0.2015
14970W        W31104  11.048   9.192  10.145  0.0860 -0.0231  0.1433
14971W        W31105   7.249   3.207  13.921 -0.1257  0.1822  0.1227
14972W        W31106   2.304  11.716   4.185  0.5079 -0.1834  0.2871
14973W        W31107   3.763  14.288   4.100 -0.2616 -0.1311  0.0794
14974W        W31108   1.359   8.934   0.722 -0.0704  0.0804  0.0256
14975W        W31109   6.550  18.492   4.746  0.1021 -0.0045 -0.1704
14976W        W31110   1.115   7.152   4.273  0.2663 -0.0108  0.1979
14977W        W31111   8.735  12.604   4.893 -0.0024  0.0997 -0.0837
14978W        W31112  18.790  16.247  11.149 -0.2801  0.1200  0.1012
14979W        W31113   9.082   8.104   1.790 -0.0309 -0.2359  0.0782
14980W        W31114   5.921   6.006  11.002  0.1578  0.0419 -0.0369
14981W        W31115   4.455   5.553  14.009  0.3930  0.2941 -0.2891
14982W        W31116   8.032  11.784  13.196 -0.1202  0.0428  0.0179
14983W        W31117   7.627  12.988  14.180 -0.6425 -0.0491 -0.0126
14984W        W31118   4.721   8.000  10.466  0.2541 -0.2174  0.0464
14985W        W31119  10.003  15.771   5.757 -0.2070  0.1530 -0.0748
14986W        W31120   4.799   4.282   1.760  0.0221  0.0658 -0.0422
14987W        W31121   3.167   8.498  14.087 -0.0601 -0.1860 -0.0170
14988W        W31122   0.452  12.810  12.398 -0.1193  0.1344 -0.1814
14989W        W31123   8.426  17.385   4.935  0.2917 -0.0664  0.2418
14990W        W31124   3.876   9.866   0.790  0.0781  0.1409  0.0137
14991W        W31125  18.554   2.032  10.411 -0.1064 -0.0663 -0.0409
14992W        W31126  16.826   8.351  13.289 -0.3101  0.0891  0.5525
14993W        W31127   3.512   8.526   1.221 -0.2832  0.1663  0.0593
14994W        W31128  15.935  16.288   1.326  0.0338 -0.3689 -0.0319
14995W        W31129  13.266   3.292   2.757 -0.0121  0.0745 -0.3646
14996W        W31130  18.288  11.500  10.100 -0.0804 -0.0734 -0.1825
14997W        W31131   6.805  14.430  10.358 -0.0369  0.1481 -0.2993
14998W        W31132   9.071   1.477  11.570 -0.0678 -0.0576  0.2581
14999W        W31133   3.573   1.707   2.061 -0.1025 -0.1991  0.1024
15000W        W31134  14.394   1.203   5.512 -0.0317  0.0991  0.0172
15001W        W31135   9.910  14.483   3.072 -0.0174  0.0684 -0.1299
15002W        W31136   8.834   8.215  11.296  0.0010 -0.0317 -0.3662
15003W        W31137  17.291   7.671  12.886  0.0782 -0.1464 -0.2069
15004W        W31138  17.267   8.576  14.362 -0.2732 -0.0718  0.1081
15005W        W31139  10.663  16.780  12.656  0.3326 -0.2156 -0.3789
15006W        W31140  15.259  12.104   3.123 -0.1601 -0.0091  0.0107
15007W        W31141  13.790  11.258  14.937 -0.0667  0.2064 -0.0687
15008W        W31142   9.074  14.399  14.417 -0.0679 -0.2572 -0.0586
15009W        W31143  10.573  11.981   4.407 -0.0726 -0.0388  0.0228
15010W        W31144   9.523   8.677  10.703  0.1554 -0.0055 -0.2507
15011W        W31145   5.586  10.843   2.805 -0.0887  0.0576 -0.0966
15012W        W31146   1.553   0.659  14.472 -0.0418 -0.1182  0.2077
15013W        W31147   9.965   7.065   3.083 -0.2452 -0.2364  0.0445
15014W        W31148  19.184   1.222   4.787 -0.2243 -0.0465  0.2443
15015W        W31149  12.529  12.115   1.208 -0.0313  0.4437  0.1429
15016W        W31150   5.733   9.257   1.295  0.1030 -0.1200  0.2081
15017W        W31151   2.273   5.278  11.739  0.2511  0.2047  0.1598
15018W        W31152  14.864   6.278   4.136 -0.1347 -0.3851 -0.2225
15019W        W31153   1.967  14.701   2.413 -0.2497 -0.0601 -0.1010
15020W        W31154   5.347   2.660  14.778 -0.2032  0.1619  0.2538
15021W        W31155  17.952   5.047  11.290  0.2161  0.1027 -0.2114
15022W        W31156  16.698  15.270   4.544  0.3090 -0.2246  0.0476
15023W        W31157   3.978  11.076   0.417  0.2167 -0.0871  0.1711
15024W        W31158  18.930   0.925   5.174 -0.0789  0.0156 -0.1520
15025W        W31159  10.688   6.521  13.072 -0.0420 -0.1938 -0.2672
15026W        W31160  10.761   9.368   3.513 -0.0621 -0.2150 -0.1633
15027W        W31161  16.833   8.134  11.362  0.0385 -0.1161 -0.2584
15028W        W31162  14.298   3.087  11.044 -0.3137  0.0220 -0.0441
15029W        W31163  16.977  19.112  10.862  0.2726 -0.3534 -0.0742
15030W        W31164   1.751  12.520  12.332 -0.2077  0.0536 -0.1271
15031W        W31165  15.278  10.560   9.975  0.3784  0.0947 -0.0757
15032W        W31166  16.033   5.998   2.756 -0.0655  0.1660  0.1849
15033W        W31167  18.169  15.211   0.511 -0.2396  0.1936 -0.1607
15034W        W31168  16.529  15.903  13.901  0.0023 -0.1050 -0.0185
15035W        W31169   1.740  14.135  14.581  0.1168 -0.4490 -0.1535
15036W        W31170   8.329  13.208   4.109 -0.0077 -0.0364  0.0734
15037W        W31171  17.278   2.086  14.391  0.4063 -0.1761 -0.1625
15038W        W31172  14.620   7.976  13.590  0.1010  0.3786 -0.1524
15039W        W31173  14.733  18.890   5.907  0.0473 -0.1154 -0.0624
15040W        W31174  11.354  10.338   3.003  0.0881  0.0875 -0.2183
15041W        W31175   5.113   0.718  10.564  0.0245 -0.4735 -0.1025
15042W        W31176   6.459  18.828  12.450  0.2548  0.0372 -0.2591
15043W        W31177   6.393  11.569  14.010 -0.0633 -0.0175 -0.3360
15044W        W31178   6.699  14.130  11.855  0.1433 -0.0257 -0.1766
15045W        W31179  15.525  13.662   0.176  0.0236  0.3235 -0.0634
15046W        W31180  11.985  15.987   0.369 -0.1658  0.0912  0.0968
15047W        W31181  11.001   9.931   2.961  0.3060  0.1733 -0.1849
15048W        W31182   2.727  14.222   0.073  0.1320 -0.0034 -0.2876
15049W        W31183   9.992  10.057   3.971 -0.1401  0.0823 -0.1230
15050W        W31184  11.787  16.869   4.230 -0.0383  0.4403 -0.3153
15051W        W31185   7.283  12.060   0.415 -0.0108  0.1963 -0.3978
15052W        W31186   4.769   0.111   1.270  0.2862  0.1677  0.1787
15053W        W31187  10.815   6.439  11.863 -0.1052 -0.1172 -0.0231
15054W        W31188  17.441  11.021  10.731 -0.1112  0.1329  0.3889
15055W        W31189   8.344  10.967   1.841 -0.1222 -0.2744  0.0445
15056W        W31190  17.303  14.707   1.081 -0.0368 -0.3455  0.1214
15057W        W31191  18.456   2.535  10.925 -0.1200 -0.1629  0.2253
15058W        W31192   5.047  16.725   4.988 -0.3977 -0.2486 -0.0932
15059W        W31193   4.864  16.937  12.552  0.2386 -0.0881  0.0757
15060W        W31194   0.422  11.989   0.113 -0.1896  0.0087  0.0713
15061W        W31195  17.134   4.068   2.612  0.0056 -0.1036 -0.1029
15062W        W31196  13.554   9.205  12.003 -0.0070  0.2493 -0.1819
15063W        W31197   0.654   0.822   4.361 -0.1571  0.4174  0.3344
15064W        W31198   0.955  18.092  14.042 -0.0881  0.2972  0.1109
15065W        W31199  18.945  15.753   0.864  0.0136 -0.2520  0.4654
15066W        W31200   2.082   4.097   2.435 -0.0135  0.0646 -0.0166
15067W        W31201  10.915  10.514   0.777 -0.0831 -0.1280  0.0354
15068W        W31202  15.102   6.666  13.830 -0.1293 -0.1223  0.1130
15069W        W31203   7.794   6.813   4.902 -0.1813 -0.0376  0.2047
15070W        W31204  18.953  14.651   3.735  0.1792 -0.4856 -0.1844
15071W        W31205   9.635  16.280   2.603 -0.1622 -0.2570 -0.2607
15072W        W31206   5.470  15.907   3.496 -0.1116 -0.1085  0.2686
15073W        W31207  18.613   9.253  13.023 -0.2116 -0.0860 -0.1442
15074W        W31208  12.537  16.405  13.547 -0.0458  0.4148  0.0582
15075W        W31209   1.278   6.283  11.742 -0.3374  0.0244 -0.0447
15076W        W31210   7.532  14.986  12.282  0.1863 -0.1576  0.0551
15077W        W31211   7.194  14.231   3.455  0.3435 -0.2960 -0.0322
15078W        W31212  14.816   7.581   0.793 -0.2901 -0.4057 -0.1827
15079W        W31213   3.968   8.103  10.974  0.2318 -0.0139 -0.1463
15080W        W31214   0.658  13.532   0.363  0.0806 -0.0728 -0.0718
15081W        W31215   1.581  11.264   3.624 -0.3457  0.0003 -0.1869
15082W        W31216   1.337   3.048   4.226 -0.0928 -0.0325  0.1970
15083W        W31217  10.841   6.265  10.089 -0.0116 -0.1252  0.1274
15084W        W31218   1.145   1.347  11.078  0.0845 -0.5135  0.1328
15085W        W31219  12.752  12.215   3.210  0.2661 -0.1711  0.1646
15086W        W31220   0.646  14.713   4.163 -0.0450 -0.2140 -0.1800
15087W        W31221  15.228   3.973   4.286 -0.1731  0.3223 -0.0500
15088W        W31222  17.813   6.359   0.183 -0.3229  0.0602  0.1749
15089W        W31223   8.089  10.695  11.746 -0.0451 -0.1343  0.0912
15090W        W31224   8.393  16.208   1.589  0.0207 -0.0978  0.1688
15091W        W31225   6.838   8.912   1.542 -0.1070 -0.0922  0.3069
15092W        W31226   6.624   5.538  12.897 -0.2995  0.3877  0.1932
15093W        W31227   9.347   8.593   5.789 -0.2307 -0.0048  0.1142
15094W        W31228   3.562   8.913  12.158  0.0281  0.1025 -0.0305
15095W        W31229   1.371   6.158   1.926 -0.0575  0.1311 -0.1816
15096W        W31230   2.812  13.213  13.886 -0.1432  0.0921 -0.0521
15097W        W31231  14.789   6.006   2.952  0.0709  0.0784  0.2113
15098W        W31232   9.253   9.863  11.247 -0.1055 -0.1148  0.3597
15099W        W31233  14.822  14.342  13.930  0.0825  0.2896  0.2141
15100W        W31234  11.638   0.657   1.761  0.1562  0.0796 -0.1872
15101W        W31235   6.366   2.193   1.010  0.0698 -0.0297 -0.1340
15102W        W31236   9.767  15.564  14.834 -0.6094  0.0926  0.1017
15103W        W31237   4.328  12.766   1.481  0.0156 -0.1762 -0.0535
15104W        W31238  14.082  14.821  10.402  0.1833  0.0668  0.1552
15105W        W31239  10.510  16.644   1.700 -0.0283  0.1344  0.2773
15106W        W31240   6.414   6.880  11.211 -0.4597  0.3242  0.1817
15107W        W31241  18.576   1.241   4.351  0.2125 -0.1950 -0.2640
15108W        W31242  14.619  15.396   4.645  0.0304  0.0741 -0.3363
15109W        W31243   8.756  13.324  12.179 -0.1638 -0.1474  0.1982
15110W        W31244   9.783  16.226  14.038 -0.1259 -0.1997  0.3046
15111W        W31245  11.557   7.847  11.857 -0.1856 -0.0428 -0.0001
15112W        W31246  14.063  11.984  14.358  0.1275 -0.2905 -0.0611
15113W        W31247   9.598   1.238   0.417 -0.1608  0.0370  0.1164
15114W        W31248  10.056   6.239   0.532  0.1702 -0.1057 -0.0951
15115W        W31249  13.447  15.965   1.350 -0.2903 -0.0600 -0.4327
15116W        W31250   0.484  10.388   2.156 -0.1339  0.0685  0.0626
15117W        W31251   4.537   1.614   3.538  0.1614 -0.2613 -0.2433
15118W        W31252  18.580  10.046   2.064  0.3070  0.0510  0.2266
15119W        W31253  15.076   8.561  11.863 -0.0686  0.0848 -0.0577
15120W        W31254  12.597  13.074   4.115 -0.2878 -0.0548  0.2711
15121W        W31255  18.122   9.161   1.348  0.2988  0.0190  0.1868
15122W        W31256  17.125   3.026   4.172  0.0997 -0.1565 -0.0769
15123W        W31257  15.230   3.886   1.772 -0.0486 -0.0712 -0.0534
15124W        W31258  13.177   7.752   1.492  0.4996 -0.1703  0.0487
15125W        W31259  11.794  17.323   2.008  0.2271 -0.4104  0.6417
15126W        W31260  18.884  16.361  12.341  0.0394 -0.1004  0.2216
15127W        W31261   8.331   8.736   3.361  0.2299  0.0844  0.2683
15128W        W31262   1.570  13.218   3.679 -0.0348 -0.0121  0.1337
15129W        W31263  13.449   3.973   1.576 -0.0469  0.0217 -0.0700
15130W        W31264  10.293   9.182   0.529 -0.1930 -0.1493  0.2041
15131W        W31265   3.503  17.934   4.559 -0.1872 -0.0971  0.0686
15132W        W31266  12.929   5.285  12.068 -0.1925 -0.0330 -0.2694
15133W        W31267  15.241   0.161   2.697 -0.0289  0.2605 -0.2214
15134W        W31268   9.136  17.453  10.253  0.0806  0.1569 -0.3215
15135W        W31269   9.811  15.523  11.704  0.0873  0.1555  0.1760
15136W        W31270   5.077   0.499  12.633 -0.1388  0.0790  0.1903
15137W        W31271   9.329  15.333   5.731 -0.3072 -0.0686  0.1771
15138W        W31272   5.730  10.101   3.285 -0.1287 -0.0517 -0.0193
15139W        W31273   7.621   9.410   2.184 -0.2497 -0.2200  0.1978
15140W        W31274  14.688   3.531   1.157  0.5662  0.2213  0.1744
15141W        W31275   4.463  18.005   4.127 -0.0491  0.1291  0.1912
15142W        W31276  12.843  13.414   3.822 -0.3708 -0.2100  0.0573
15143W        W31277   5.812   7.330  14.043  0.1525  0.0924 -0.0743
15144W        W31278  10.100   1.263  14.725 -0.2010 -0.2674  0.1532
15145W        W31279   9.451  19.132   0.552  0.0259 -0.1611 -0.1799
15146W        W31280  17.326   0.223  12.074  0.2344  0.2958 -0.0382
15147W        W31281  18.787   7.650  10.620 -0.0867  0.1012  0.0588
15148W        W31282   0.967  12.814  10.645 -0.0856  0.2678  0.0075
15149W        W31283  15.639  17.980   2.137 -0.1987  0.2066  0.2754
15150W        W31284  15.513   7.498  13.477  0.1714  0.3213  0.2563
15151W        W31285   8.002   3.819   2.994 -0.1247  0.0690 -0.1067
15152W        W31286   3.899   8.096  12.363 -0.1827 -0.1904  0.0028
15153W        W31287   1.716   6.463  11.906  0.1488 -0.0334  0.0224
15154W        W31288  18.421  16.168  12.545 -0.1769  0.0519 -0.0224
15155W        W31289  13.665   9.950   4.061 -0.1035 -0.1060  0.0335
15156W        W31290  12.958   2.929  14.889  0.1850  0.0163 -0.0918
15157W        W31291  12.608  13.729  12.819  0.3925  0.1766  0.1738
15158W        W31292  12.863   3.857  14.654  0.0177 -0.0021 -0.0138
15159W        W31293  13.298  12.660  11.187  0.0791 -0.0225  0.2813
15160W        W31294   0.330  10.941  12.835 -0.1975 -0.2511 -0.2235
15161W        W31295  12.416  17.179   3.606  0.5601  0.1990 -0.3236
15162W        W31296  10.504  17.099   2.663  0.1788 -0.2479  0.3239
15163W        W31297  12.664   1.807   2.636 -0.0972  0.1563  0.1631
15164W        W31298   1.398  10.826   2.184 -0.1233 -0.1571  0.0521
15165W        W31299  15.015   3.334   0.819  0.3013 -0.2151 -0.1291
15166W        W31300  14.225   0.367  11.426  0.0634 -0.1727 -0.0080
15167W        W31301   5.472  15.663  10.946  0.0433 -0.0031 -0.1511
15168W        W31302  19.259   2.545   0.229  0.1812 -0.3574  0.0369
15169W        W31303   7.883  10.084  13.253 -0.0079 -0.0849  0.0356
15170W        W31304   2.776   6.810  13.482  0.1058  0.0547 -0.0782
15171W        W31305  17.666  13.369  12.760  0.0792  0.0616  0.0960
15172W        W31306   8.859   1.920   2.483 -0.3493  0.0265 -0.2963
15173W        W31307   1.697  17.179   3.834  0.1339 -0.0735 -0.0242
15174W        W31308   0.672   8.457  10.104  0.3593 -0.2622 -0.2950
15175W        W31309  10.707   0.932   1.550  0.3802  0.1050  0.1576
15176W        W31310  13.569  17.149  11.959  0.1574 -0.0532  0.2197
15177W        W31311   1.796  10.567   3.057  0.2171  0.2292  0.3334
15178W        W31312  13.085  12.834   0.185 -0.9495 -0.2270  0.1509
15179W        W31313  10.214  10.176  11.705 -0.1740 -0.1431  0.0171
15180W        W31314   1.830   8.328   9.409  0.1753  0.0091  0.0122
15181W        W31315  16.336  10.173   1.255 -0.1567  0.0035 -0.0487
15182W        W31316  10.930   5.149   0.862  0.1962  0.0823  0.1673
15183W        W31317  14.224   8.688  10.955  0.1013  0.2330 -0.2913
15184W        W31318  16.494   6.173   5.140  0.0896  0.4097  0.0893
15185W        W31319  10.202   2.269  10.742 -0.0727 -0.0505  0.3517
15186W        W31320  17.711  18.524   2.159  0.1975 -0.0279  0.1823
15187W        W31321   3.255  16.404   4.884  0.2898  0.1433 -0.1178
15188W        W31322  10.671   9.663   0.636  0.0947 -0.1651  0.0742
15189W        W31323  18.217  16.303   2.108  0.3955 -0.0661  0.1800
15190W        W31324  18.212   7.072  12.935  0.1066 -0.2383 -0.0441
15191W        W31325   2.822  11.219   2.274  0.1414 -0.0708 -0.2979
15192W        W31326  12.407   7.959  14.837  0.3435 -0.0425  0.2503
15193W        W31327  13.141  12.574  12.857 -0.1366  0.6032  0.0575
15194W        W31328  11.832   3.785   3.895 -0.3024 -0.4565  0.1062
15195W        W31329  18.666   7.465  13.469 -0.1664  0.2550 -0.0308
15196W        W31330   0.818   9.569  13.063 -0.2567 -0.0100  0.1198
15197W        W31331   5.766  15.101  11.667  0.5743 -0.1491  0.0395
15198W        W31332  11.483   5.790  14.772  0.0155  0.0749  0.0623
15199W        W31333  12.300  11.639   1.339 -0.2471  0.3068 -0.0013
15200W        W31334   7.980  12.707  12.573 -0.1690 -0.4771 -0.1912
15201W        W31335  14.145   8.245  12.748 -0.0082  0.0559 -0.3038
15202W        W31336   8.320   0.617   4.267  0.4128  0.1763  0.0802
15203W        W31337   0.099   0.633   4.081  0.4543  0.2707  0.1528
15204W        W31338   2.752  13.748   4.039 -0.2352  0.1328  0.2151
15205W        W31339  18.330  13.832   1.099 -0.0011  0.2246 -0.0496
15206W        W31340  14.605  14.612   3.289  0.3312  0.1129 -0.1775
15207W        W31341   7.104   1.251  14.374  0.0372  0.0618  0.2793
15208W        W31342  19.162  10.430  10.259  0.1861  0.1398  0.0604
15209W        W31343   8.134  12.285   2.164  0.4915 -0.1030  0.2489
15210W        W31344  13.621   7.467   4.557  0.0205  0.4421  0.0313
15211W        W31345  10.676  15.458   5.278 -0.2850 -0.0622 -0.0626
15212W        W31346   4.055  17.946   0.288 -0.0454  0.0250  0.3285
15213W        W31347  15.584   4.187  14.159 -0.0262 -0.0172  0.2093
15214W        W31348   3.605  10.763   4.163 -0.2642 -0.1007 -0.0351
15215W        W31349   3.698  16.717  14.719  0.0903 -0.0743 -0.0411
15216W        W31350  13.973  16.678   3.923 -0.0665  0.0534  0.1177
15217W        W31351  12.932   7.554  14.970 -0.1648 -0.2898  0.2125
15218W        W31352   1.024  16.447   0.882 -0.0552 -0.1310 -0.1046
15219W        W31353   9.151   2.684  13.149  0.2010  0.4707 -0.0867
15220W        W31354   7.834   8.457   2.007  0.0272 -0.0474  0.0292
15221W        W31355  10.337   9.612   3.698  0.6968 -0.1935 -0.0466
15222W        W31356   8.029  10.810  14.841  0.1681  0.0145 -0.2239
15223W        W31357  18.857   7.184  14.586  0.4684  0.3275 -0.3121
15224W        W31358  14.744   8.863  13.970  0.0722  0.1015 -0.4007
15225W        W31359  14.571   0.708  13.878  0.0496  0.2429  0.1473
15226W        W31360  11.195  10.017   4.682  0.2061  0.0811  0.3465
15227W        W31361   7.606   7.052   1.413 -0.0302 -0.1926 -0.1389
15228W        W31362   8.930  10.925   4.342  0.0014 -0.0162  0.0950
15229W        W31363  15.016  10.280   0.695 -0.0410  0.0984 -0.3175
15230W        W31364   4.291   7.722   9.289  0.0018 -0.0630 -0.4190
15231W        W31365   7.946  19.025   2.880  0.3628 -0.2014  0.2629
15232W        W31366   2.409   0.876   2.986  0.0987  0.0886 -0.1049
15233W        W31367  17.539   9.491   0.619  0.2044  0.3552  0.1416
15234W        W31368   8.309   6.169   0.870  0.0830  0.1416  0.1605
15235W        W31369  11.644   6.858   3.650 -0.0922 -0.3265 -0.0614
15236W        W31370  18.594   5.497  12.535 -0.1966 -0.0510 -0.1085
15237W        W31371   5.802   4.938  14.209 -0.3266  0.0375  0.0642
15238W        W31372   9.971  17.677   3.995 -0.1096 -0.2409 -0.2087
15239W        W31373   9.159  10.187  12.257  0.0867 -0.1570  0.3467
15240W        W31374  10.322  16.616  11.737 -0.1129 -0.0119 -0.0387
15241W        W31375  12.835   9.994   3.967 -0.0728  0.2183  0.1593
15242W        W31376  13.863  13.729   5.329 -0.2366  0.0480 -0.1421
15243W        W31377  15.907   4.631   2.694  0.2370 -0.1557 -0.4325
15244W        W31378  13.954   8.110  14.945  0.1066 -0.0745  0.1886
15245W        W31379  13.617  19.065   2.083 -0.1889  0.1123 -0.0126
15246W        W31380  15.511  14.578   3.194  0.2020 -0.0052  0.2731
15247W        W31381   6.847  14.840   2.907 -0.2968  0.1253  0.1508
15248W        W31382  19.065  10.495  11.292 -0.1407  0.0389  0.2147
15249W        W31383   8.080  13.319  14.364  0.1143 -0.0542  0.1451
15250W        W31384   0.396   4.749  14.969  0.2888  0.0771  0.0600
15251W        W31385  17.670  13.829  14.665 -0.0203  0.3655  0.0495
15252W        W31386   3.028   2.529   1.978  0.0741 -0.1329 -0.0646
15253W        W31387  10.144  15.242  14.865  0.1619 -0.0592 -0.1110
15254W        W31388   6.414   6.676   9.134  0.1293  0.0716  0.1314
15255W        W31389   9.162   7.025   3.690  0.0875 -0.4720  0.0923
15256W        W31390   2.031  12.571  14.498  0.2112 -0.0053 -0.0328
15257W        W31391  17.685   7.899   3.424 -0.2018 -0.2824 -0.3610
15258W        W31392   3.180   9.495  13.387 -0.1851 -0.1935  0.4076
15259W        W31393  17.117  12.433   1.847  0.2076  0.0233 -0.2141
15260W        W31394   1.957  17.185   9.855 -0.2936 -0.0166 -0.2746
15261W        W31395  15.071   4.008  11.164 -0.1117 -0.1425 -0.3930
15262W        W31396  18.216   4.171   3.357 -0.0074  0.3122 -0.0144
15263W        W31397  11.578   4.392   2.401  0.1185  0.0675  0.1691
15264W        W31398   0.108  13.330  10.535  0.0332 -0.1536 -0.2611
15265W        W31399   5.152   6.823   1.235  0.2382  0.2728 -0.2332
15266W        W31400   0.758  15.410  11.182 -0.1144 -0.1267  0.0445
15267W        W31401   7.445   7.361   2.895  0.2174  0.2224  0.1375
15268W        W31402  12.345  15.671   4.802  0.0009 -0.2379  0.1984
15269W        W31403  18.519  12.447  12.777 -0.1820  0.0133 -0.0278
15270W        W31404   1.450   1.423   0.516 -0.0079 -0.1432  0.1083
15271W        W31405   0.356  13.531   2.709 -0.5862 -0.1803  0.1671
15272W        W31406   8.820   6.352  14.859 -0.2038  0.1751 -0.0363
15273W        W31407  15.350   0.776  13.186  0.2109  0.1290  0.1858
15274W        W31408  13.432   4.360  14.057  0.2052 -0.3640 -0.0758
15275W        W31409  10.574  16.620   5.218  0.0447 -0.0052 -0.1457
15276W        W31410  12.686   2.442  14.323  0.1828  0.4353 -0.0894
15277W        W31411  12.001  14.258   0.525  0.1383  0.0660 -0.1801
15278W        W31412  11.426   0.403   4.980 -0.2620 -0.0382 -0.0953
15279W        W31413  15.217  13.509  14.588  0.4228  0.0436  0.2616
15280W        W31414  12.870  14.941  13.545 -0.1203  0.1285  0.0233
15281W        W31415  18.298  12.028  11.520 -0.0461 -0.1945 -0.0661
15282W        W31416  10.445  19.188  11.677 -0.0328 -0.1301 -0.2696
15283W        W31417  15.353   0.368  14.964  0.0407  0.1461  0.2560
15284W        W31418   4.346   5.447   0.402 -0.0351  0.0690  0.0294
15285W        W31419   3.858   4.646  10.840 -0.3822  0.0302 -0.4700
15286W        W31420   9.224   0.937  12.189  0.1687  0.4138  0.0918
15287W        W31421   6.622  12.601   1.397  0.0661  0.2955  0.2800
15288W        W31422  12.586   4.322  12.157 -0.0501 -0.1508  0.0870
15289W        W31423   3.144   1.177  11.441  0.0050 -0.0245 -0.1054
15290W        W31424   0.233  12.350  10.492 -0.1397  0.0708 -0.1579
15291W        W31425  15.577   6.529   4.044 -0.0965 -0.1284  0.1309
15292W        W31426  19.302   0.758  12.968  0.0603  0.1599  0.0243
15293W        W31427  10.070   5.786  10.675 -0.2132 -0.1452  0.2842
15294W        W31428  17.030  14.101   0.525  0.0762  0.0312 -0.0326
15295W        W31429  14.068  18.785  12.537 -0.2081 -0.5226  0.0741
15296W        W31430  13.975   9.516   4.907 -0.4128  0.1313 -0.3034
15297W        W31431  16.831   7.698   3.482 -0.1119 -0.1611  0.1362
15298W        W31432  14.737   8.884  12.704 -0.2506  0.1503 -0.0940
15299W        W31433   6.923   9.850   8.752 -0.0680 -0.0393 -0.1027
15300W        W31434   8.491   7.220  10.881  0.2088 -0.1116  0.2791
15301W        W31435  17.618   4.440  14.598  0.2798  0.0774 -0.0772
15302W        W31436   6.379  17.890   5.105  0.3246  0.3699  0.1592
15303W        W31437   3.440  13.611   3.382 -0.2962  0.0768  0.2390
15304W        W31438   4.523   0.087   2.232  0.2345  0.0506  0.0443
15305W        W31439  15.479  11.221   1.993 -0.2493 -0.2561 -0.2543
15306W        W31440   9.072   5.218   2.051 -0.0614  0.1305  0.3061
15307W        W31441  18.257   9.495   3.684  0.0294  0.0356 -0.0076
15308W        W31442  13.182  14.888   4.527 -0.0606 -0.1523  0.3104
15309W        W31443   0.460   8.718   2.315  0.0653 -0.3036 -0.0654
15310W        W31444  14.946   2.992  12.081 -0.2824  0.1330 -0.1712
15311W        W31445   2.284   0.631   1.430  0.1427  0.1695  0.3140
15312W        W31446   4.667  12.526  11.940 -0.1519 -0.0876 -0.0995
15313W        W31447   6.192   3.740  12.378 -0.3039  0.3292  0.2088
15314W        W31448   5.214   2.851  11.397  0.1616 -0.0708 -0.2879
15315W        W31449  11.855   1.661   2.780  0.1688  0.0372  0.1187
15316W        W31450   8.386   6.318   2.255  0.3566  0.2127  0.2235
15317W        W31451  13.820   3.006   5.279  0.3587  0.0348  0.0938
15318W        W31452  11.719   5.475  14.403  0.0593  0.2546 -0.0482
15319W        W31453   6.965  10.996   9.294  0.3373  0.0185  0.1533
15320W        W31454   0.646   2.251   4.625 -0.3154 -0.2091  0.2177
15321W        W31455   4.267  12.718   2.362  0.3294 -0.0924 -0.2904
15322W        W31456   0.045   0.372   1.357  0.4207 -0.0652 -0.4598
15323W        W31457  15.885  14.971   1.013  0.2363  0.0114 -0.0615
15324W        W31458   7.116  14.063   2.508  0.2338  0.0803  0.0572
15325W        W31459   8.152  18.992   1.332  0.1246 -0.1356 -0.1156
15326W        W31460   9.550   9.899   2.472  0.1056 -0.1546 -0.0046
15327W        W31461   0.890   6.201   0.115 -0.0094  0.0920  0.0110
15328W        W31462  13.609  15.076  10.469  0.0652  0.2032 -0.0111
15329W        W31463   0.720   4.122   4.118 -0.0034 -0.0004  0.0998
15330W        W31464  17.938  10.993   1.428 -0.0772 -0.1196 -0.2797
15331W        W31465   9.998   9.724   3.283  0.1074 -0.0888 -0.1463
15332W        W31466  13.947   8.999   0.302 -0.5011  0.1826 -0.2772
15333W        W31467   7.605   5.601  13.437  0.2470 -0.0742 -0.1030
15334W        W31468  11.808  14.633  14.805 -0.1152  0.2892 -0.0654
15335W        W31469  17.228   2.169  13.787  0.0538 -0.2202 -0.1572
15336W        W31470   9.124   3.663   2.198 -0.4595  0.0796  0.2055
15337W        W31471   5.834  16.735  13.806 -0.0159 -0.1621 -0.0032
15338W        W31472   6.485   2.335   4.378  0.2169 -0.0018 -0.3410
15339W        W31473   3.384  12.919  13.184 -0.0735  0.2498  0.3534
15340W        W31474  16.911  15.726   3.302  0.0756  0.2782 -0.0935
15341W        W31475   1.553   3.660   1.378 -0.2398 -0.0881 -0.0467
15342W        W31476   9.617   6.166  10.991  0.2101  0.4239 -0.2031
15343W        W31477  15.174  16.628  11.649 -0.1759 -0.0236 -0.2298
15344W        W31478   2.534   1.491  13.575  0.2094 -0.0853 -0.0587
15345W        W31479  10.459   9.745   5.321  0.0384 -0.2379  0.2454
15346W        W31480  18.921   8.129   4.772 -0.4882  0.1800 -0.1396
15347W        W31481   1.252   7.928   8.957  0.0550 -0.1612 -0.1956
15348W        W31482  12.782  17.888   1.608  0.0759  0.1283 -0.0867
15349W        W31483   3.665   9.038   0.441  0.2792  0.1002 -0.0179
15350W        W31484   5.432  15.550   1.909  0.1446  0.0408  0.1972
15351W        W31485   8.452  13.107   4.627 -0.0204  0.0756  0.3133
15352W        W31486   3.062  15.136  12.300 -0.3440  0.1975  0.1731
15353W        W31487   0.303   2.078   3.781 -0.1797 -0.0352  0.4185
15354W        W31488   0.788  17.090   3.964  0.1074 -0.1315 -0.2017
15355W        W31489   0.531   2.039   1.092 -0.3224 -0.2442 -0.0547
15356W        W31490   6.012  16.773   0.820  0.1173 -0.1309 -0.0525
15357W        W31491  15.032   4.160   2.858 -0.0135  0.1824 -0.3590
15358W        W31492   3.751   0.072   3.817 -0.0398  0.0512  0.1244
15359W        W31493  17.405   5.241   4.465  0.0713 -0.1110  0.0128
15360W        W31494  15.060  16.878  10.494 -0.0645 -0.0041  0.1177
15361W        W31495   7.222  18.850   1.886 -0.0692  0.3320  0.0844
15362W        W31496  12.896   8.664   1.414 -0.0724  0.3392  0.1705
15363W        W31497   1.419   3.406   3.867 -0.1796 -0.1624  0.0542
15364W        W31498   2.408  15.720   3.371 -0.1943 -0.0191  0.0891
15365W        W31499  11.087  15.219   0.022  0.0282 -0.0960 -0.0753
15366W        W31500  16.833   5.445  14.416 -0.1405 -0.1799 -0.2662
15367W        W31501   9.882  18.438   5.559  0.1089  0.3651  0.1602
15368W        W31502  10.927   3.958  11.778 -0.1526 -0.0366 -0.0584
15369W        W31503  15.525  15.952   1.030 -0.0377  0.1044 -0.0155
15370W        W31504  10.856   2.611   2.513  0.0884  0.1083  0.0289
15371W        W31505  10.819  11.861  10.777  0.0970 -0.2807  0.1114
15372W        W31506   9.027  14.605  13.956  0.0581 -0.1877  0.0175
15373W        W31507  17.675   4.575   0.350  0.0750 -0.1385 -0.0200
15374W        W31508   8.643   2.251  12.048 -0.1448  0.0925 -0.0262
15375W        W31509   4.645   2.612  11.431  0.2967 -0.1471 -0.1801
15376W        W31510  16.096  17.757  14.356 -0.0349 -0.1031 -0.1938
15377W        W31511  13.264  17.711  14.907  0.0877  0.3572  0.3500
15378W        W31512   5.228   1.896   4.192 -0.1128  0.0174 -0.0769
15379W        W31513  15.865  14.943  12.774 -0.0019 -0.4323  0.0889
15380W        W31514   0.610  13.750   3.583  0.1016 -0.1332 -0.4558
15381W        W31515   5.914   3.376  13.243  0.0073  0.0844  0.0338
15382W        W31516   7.514  15.816   1.384 -0.5004 -0.1305 -0.3256
15383W        W31517  16.488  10.674   1.099 -0.1679 -0.0155 -0.0053
15384W        W31518  14.834   9.459   3.113 -0.1929  0.2280  0.2100
15385W        W31519   4.109   2.712   2.043  0.3995  0.1550 -0.0199
15386W        W31520   9.607  10.889   3.340  0.3570  0.2890 -0.1766
15387W        W31521   7.061   4.677   3.351 -0.1114  0.0885 -0.3182
15388W        W31522   9.251  16.042  14.816  0.3112  0.2654  0.0086
15389W        W31523  18.186  16.944  14.752  0.0464  0.2249 -0.0514
15390W        W31524   6.753  16.739   1.927 -0.0737  0.3572  0.0367
15391W        W31525   9.373  15.447  10.307  0.0433 -0.0616 -0.0196
15392W        W31526   0.037   2.945   4.858  0.3724 -0.0547 -0.0025
15393W        W31527   2.286  12.642  10.054 -0.3094  0.2456 -0.2996
15394W        W31528   5.635   3.337   9.966 -0.0767  0.0520  0.0886
15395W        W31529  15.066   3.010  14.680  0.1821  0.0205 -0.2322
15396W        W31530  13.720   8.663   9.464 -0.0382 -0.2536  0.2898
15397W        W31531   2.412   8.393   5.112 -0.1064  0.2965  0.1933
15398W        W31532  12.905  14.305   0.852  0.0955  0.1363 -0.1926
15399W        W31533   6.053  11.547  10.503 -0.0698  0.4044 -0.1006
15400W        W31534   3.633   4.110  13.594  0.3872 -0.0178  0.1318
15401W        W31535   4.010   3.526  13.471 -0.1342 -0.1557 -0.0531
15402W        W31536   9.785  12.219   4.326  0.0354  0.1859 -0.2779
15403W        W31537  14.978  11.609  10.310 -0.0534  0.0308  0.2232
15404W        W31538   9.431  11.834   1.767  0.1036  0.0945  0.0501
15405W        W31539   0.463  10.953   4.452 -0.0583 -0.2778 -0.0508
15406W        W31540   5.978   8.463  14.802 -0.4143  0.0236  0.0650
15407W        W31541   4.007   4.177   0.517  0.4724  0.2119 -0.3862
15408W        W31542   1.318  16.049  11.240 -0.0561 -0.0146 -0.2488
15409W        W31543   9.482  15.021   1.739  0.0585 -0.0322  0.0674
15410W        W31544  12.358  13.474   5.616  0.0547  0.0657  0.2456
15411W        W31545   5.795   4.216   0.693 -0.2122 -0.2257  0.0917
15412W        W31546   0.099   9.230  11.045  0.1370 -0.2683  0.3218
15413W        W31547   5.480  14.104   3.947 -0.0782 -0.2478  0.1053
15414W        W31548  12.194  14.199  11.503  0.1137 -0.0785 -0.0600
15415W        W31549  15.499   9.254   4.502 -0.2691  0.0549 -0.0294
15416W        W31550  18.658   0.393   2.450  0.0713  0.1005  0.3377
15417W        W31551   5.489  13.245  12.897  0.1063  0.0365  0.0263
15418W        W31552   3.251   4.192   4.372  0.1175  0.2340  0.2003
15419W        W31553  16.496   2.228   2.468 -0.3502 -0.2331 -0.1922
15420W        W31554   2.256   3.115  14.258  0.1405  0.3141  0.2693
15421W        W31555  15.830   8.483  10.534  0.0744  0.1530  0.3435
15422W        W31556  17.089   3.496  12.543  0.1953 -0.3694 -0.0220
15423W        W31557   8.031   6.066   5.637 -0.0124  0.0051 -0.1505
15424W        W31558  18.300  10.175  11.961 -0.0584 -0.1818 -0.0736
15425W        W31559  16.880   5.195  14.895 -0.1002 -0.1327 -0.1434
15426W        W31560  15.150   7.890   2.960  0.0611  0.0976 -0.0499
15427W        W31561   8.402  14.782   9.640 -0.2155  0.1137  0.0753
15428W        W31562   8.532   6.777  13.247  0.5869  0.1263 -0.0110
15429W        W31563  18.691   5.399  14.719 -0.0731  0.1011 -0.1335
15430W        W31564  18.517  14.421   3.644  0.4772  0.2937 -0.0677
15431W        W31565  11.035  14.723   1.451  0.0842  0.0398  0.0705
15432W        W31566   9.784   9.335   5.125  0.2154  0.0562  0.1973
15433W        W31567  14.396   3.024   1.070 -0.1729 -0.0679 -0.1708
15434W        W31568  15.047  11.370  13.263  0.0133 -0.1198 -0.1188
15435W        W31569   0.695  13.943  10.296  0.1153  0.1939  0.4483
15436W        W31570  14.382   5.020   0.609 -0.4034  0.0437  0.3037
15437W        W31571  15.971  18.841   2.523  0.0964  0.1338 -0.1692
15438W        W31572   2.535   7.786  12.074  0.1638 -0.1021  0.2685
15439W        W31573   7.152  10.206   4.393 -0.0745  0.1105 -0.0440
15440W        W31574   7.862   9.304  12.006 -0.2222  0.0846  0.2241
15441W        W31575   4.734   0.768  14.441 -0.0339  0.1223 -0.0832
15442W        W31576   3.856  10.764  14.279  0.3749 -0.0124 -0.0011
15443W        W31577   5.330   8.823  10.813 -0.1893  0.1215 -0.0137
15444W        W31578   6.024   1.707  14.676  0.0598  0.0050 -0.0672
15445W        W31579  10.841   5.422   2.291 -0.3785 -0.0624  0.0705
15446W        W31580  18.708   5.736  11.731  0.1590  0.1108 -0.0241
15447W        W31581   9.632  12.383  14.865  0.2718 -0.1079  0.2059
15448W        W31582   1.496  13.683   4.284 -0.2016  0.2250 -0.2947
15449W        W31583   5.126  10.781  13.120 -0.2111  0.1218  0.0894
15450W        W31584   5.641   3.296   3.944  0.0125 -0.1189 -0.0081
15451W        W31585   1.868  14.214  14.084  0.2776  0.1306 -0.0934
15452W        W31586  12.132  11.041  14.180  0.1211 -0.0230 -0.0172
15453W        W31587   3.605  13.700  12.150 -0.1708 -0.1850 -0.3164
15454W        W31588   4.982   6.062  11.312 -0.1526 -0.3736  0.3673
15455W        W31589  16.233  11.593  10.934  0.2644  0.4758  0.1423
15456W        W31590   6.105   6.705   1.164 -0.0909  0.2263  0.0822
15457W        W31591  11.104  16.210   4.338 -0.1305  0.0531  0.1839
15458W        W31592   5.798   8.159   3.572 -0.3348  0.1588  0.0873
15459W        W31593   5.447  12.007   3.784  0.1256 -0.3375 -0.1696
15460W        W31594   9.644  12.963   1.676 -0.2814  0.3048 -0.0322
15461W        W31595  14.907  10.555  12.740 -0.1339  0.0519  0.0314
15462W        W31596  12.827   8.707  13.074 -0.0913  0.2320 -0.0058
15463W        W31597   2.485   8.776  12.792  0.0744  0.0098 -0.0442
15464W        W31598  16.422   7.016  14.935  0.2746 -0.0634 -0.0926
15465W        W31599   4.341   8.499   5.209 -0.1868 -0.0461 -0.3713
15466W        W31600   4.762   3.737   0.821  0.2942  0.1410 -0.1581
15467W        W31601   6.312  16.088  11.620 -0.0130  0.3342  0.0448
15468W        W31602  13.108   6.999  14.757  0.2465  0.1241 -0.0007
15469W        W31603   0.044   4.654   2.884  0.2605  0.0531 -0.1624
15470W        W31604   0.254  17.711  11.956 -0.0641 -0.2177 -0.2135
15471W        W31605  11.531  14.052   3.874 -0.3248 -0.4610 -0.1219
15472W        W31606   1.840   9.445  13.115  0.1180  0.5414 -0.1552
15473W        W31607  14.397   6.489  10.974 -0.0961 -0.0824 -0.1631
15474W        W31608   0.148  13.990  14.341  0.2634 -0.4941  0.2640
15475W        W31609  18.013  14.694   3.656 -0.1279  0.0875 -0.0248
15476W        W31610  18.603  13.667  14.690 -0.1299  0.2261 -0.1430
15477W        W31611  15.512   7.322   3.958  0.1494 -0.2357  0.0003
15478W        W31612  15.990   3.854  10.771 -0.1296  0.0651 -0.1046
15479W        W31613  19.319   7.183   2.389  0.1774 -0.1801 -0.3266
15480W        W31614  16.199   1.788   2.978 -0.1257  0.1004 -0.0385
15481W        W31615  13.417   9.945   5.177  0.1678  0.2125 -0.2694
15482W        W31616   6.969  17.088  12.531  0.1249 -0.1397  0.3473
15483W        W31617   0.043   2.777  13.976  0.0476 -0.0444 -0.1830
15484W        W31618  11.653   1.374  11.995  0.1687 -0.0088 -0.0000
15485W        W31619  17.000  18.273  12.425 -0.1792 -0.0916  0.0703
15486W        W31620  11.240  17.112  14.524  0.0337 -0.0739 -0.1159
15487W        W31621  12.798  17.031   0.310 -0.3150 -0.1458  0.0801
15488W        W31622  11.827   7.328  11.038 -0.1905 -0.0680 -0.0912
15489W        W31623  11.529   6.577   1.744  0.0895 -0.2800  0.1607
15490W        W31624  10.421  16.409  10.128 -0.2707 -0.0177 -0.0815
15491W        W31625  15.097  10.128   4.988 -0.2195 -0.0311 -0.0237
15492W        W31626  17.763   4.344  10.461 -0.1614 -0.0839  0.0215
15493W        W31627   4.712  17.411  12.432  0.0236 -0.1749  0.1624
15494W        W31628   2.777  14.823  11.088  0.2110 -0.2881  0.4599
15495W        W31629   2.842  14.763   1.074 -0.0916 -0.1463  0.5148
15496W        W31630  12.729  13.467  14.649 -0.0852  0.2473 -0.0382
15497W        W31631   8.506   0.368   1.678  0.4297  0.0525  0.1168
15498W        W31632  12.455  10.487  10.707  0.0203  0.0852 -0.3909
15499W        W31633  18.441   4.468   2.742  0.0006  0.0823 -0.1494
15500W        W31634   3.574  10.237  10.885  0.1630  0.0727  0.1156
15501W        W31635  19.224   2.325   1.834 -0.1026  0.1002  0.0618
15502W        W31636  18.368   4.534   1.550  0.0388  0.0552  0.2744
15503W        W31637   3.306   6.790   1.951 -0.1222 -0.1123 -0.1742
15504W        W31638   6.419  10.605   1.898 -0.1852 -0.0371 -0.2290
15505W        W31639   2.055  14.395  10.504 -0.1060  0.4295 -0.1829
15506W        W31640   1.009  19.286   2.878 -0.0215 -0.3365  0.1988
15507W        W31641  16.101  17.495  13.948 -0.1485 -0.1369  0.2599
15508W        W31642   2.722   1.646  14.844 -0.0123  0.0101 -0.1417
15509W        W31643  14.244  14.770   0.596 -0.3031 -0.2146  0.0095
15510W        W31644   0.518   7.815   3.699  0.0886 -0.0714  0.3070
15511W        W31645  10.150   7.080  12.229  0.2075  0.0802  0.1895
15512W        W31646  15.513  12.989   2.864  0.0992 -0.0191  0.0068
15513W        W31647   1.200   7.387  13.432 -0.3120  0.2584 -0.2114
15514W        W31648  11.570  14.891  12.251 -0.1676 -0.3503 -0.3239
15515W        W31649  18.756   7.601   0.502 -0.1801  0.1070 -0.1847
15516W        W31650   1.140   9.372  11.881 -0.0256 -0.1602 -0.0365
15517W        W31651   3.488   5.319   3.204 -0.0159 -0.2866  0.1323
15518W        W31652  13.275  13.338   0.462 -0.0539  0.3163 -0.1812
15519W        W31653  17.007  11.689   1.205 -0.1148 -0.1692  0.0430
15520W        W31654   6.102  17.763   3.405 -0.0939  0.1305 -0.2133
15521W        W31655   8.193  13.849  14.578 -0.2275 -0.0102  0.2071
15522W        W31656  17.090   8.014  14.476  0.0364  0.1401  0.0852
15523W        W31657   8.563   4.797   4.218 -0.3517 -0.3074 -0.0808
15524W        W31658  18.440   4.051   2.448  0.2055  0.0546  0.1571
15525W        W31659  14.480  13.140   0.004 -0.2651  0.1307 -0.0738
15526W        W31660   2.563   5.019  10.513 -0.2733 -0.0544  0.0183
15527W        W31661   9.900   5.020   1.209 -0.0923  0.0864 -0.1607
15528W        W31662   2.227  12.993   4.183 -0.2083 -0.3575  0.3735
15529W        W31663  15.138   3.455   4.861 -0.0159 -0.2652 -0.2447
15530W        W31664   7.070   1.829  12.075  0.2612 -0.1494  0.0883
15531W        W31665   3.420   5.840   0.101  0.1052  0.2609 -0.1068
15532W        W31666   9.357  10.224  14.412 -0.1187  0.0328 -0.3245
15533W        W31667  15.378  18.415   2.008 -0.0140 -0.0369 -0.3095
15534W        W31668  17.883  16.180   0.162  0.0269  0.1081 -0.1426
15535W        W31669   5.570  17.115   0.433  0.1604 -0.3150  0.0938
15536W        W31670  13.088   2.444  12.321 -0.2287  0.2384 -0.0516
15537W        W31671   7.998   1.406   3.908  0.2424 -0.0041  0.1312
15538W        W31672  10.130  10.036  13.299  0.1534 -0.0581  0.0315
15539W        W31673   7.431  10.084   4.901 -0.2843 -0.1356  0.2593
15540W        W31674   7.931   6.734  11.387  0.2299 -0.1271 -0.2874
15541W        W31675  11.917  14.810   3.838  0.0667 -0.0676  0.0118
15542W        W31676  16.883  11.462   2.889 -0.0375  0.0646  0.0848
15543W        W31677   5.530   2.812   0.299  0.1134 -0.4611  0.1502
15544W        W31678   1.217   6.009  10.744 -0.1976  0.0034 -0.0614
15545W        W31679  18.783   8.751   1.722  0.0195 -0.1887 -0.4381
15546W        W31680  13.511  10.237   2.551  0.2917 -0.2179  0.1986
15547W        W31681   9.760  11.809  14.157 -0.1408 -0.0164 -0.0055
15548W        W31682   3.177  10.817   0.045  0.0352 -0.1730 -0.1153
15549W        W31683   9.855   1.914   1.225  0.2315 -0.1079  0.2537
15550W        W31684   7.484  13.172   3.404  0.0150  0.2122 -0.1512
15551W        W31685  10.751   9.125  10.572  0.2152  0.2216 -0.1222
15552W        W31686  10.647   9.179   1.380 -0.4172 -0.2313 -0.2184
15553W        W31687  18.924  12.912   1.187 -0.0787  0.1332  0.4138
15554W        W31688  15.419  16.096  10.262 -0.1144  0.0793 -0.1737
15555W        W31689  12.776  15.463   1.566 -0.2080  0.1306 -0.0411
15556W        W31690   1.349  17.843   5.529  0.2487 -0.1492 -0.0950
15557W        W31691   6.864  16.779   4.585 -0.2963 -0.1367  0.0882
15558W        W31692   6.773  11.153   5.349  0.0314 -0.1489  0.3345
15559W        W31693  17.843   5.546  11.303 -0.2057 -0.0105 -0.0683
15560W        W31694  13.091   4.282   1.413 -0.2624 -0.2565 -0.2721
15561W        W31695   0.758  12.537   4.740 -0.2209 -0.0381 -0.1894
15562W        W31696  12.155   3.703   3.479  0.1894  0.2206  0.0847
15563W        W31697   8.410  16.003  14.261  0.0132  0.2354 -0.0587
15564W        W31698   2.032   7.110  10.269 -0.1639 -0.4687 -0.0658
15565W        W31699  18.248   0.407  13.029  0.0991  0.1746 -0.0126
15566W        W31700  17.418   6.480   4.760 -0.1624 -0.0978  0.2465
15567W        W31701  17.908  14.594   1.806 -0.1095  0.1286  0.0106
15568W        W31702   1.004   7.963  11.771  0.2097 -0.2379  0.0326
15569W        W31703   2.886  11.000  10.487  0.2520  0.1323  0.2070
15570W        W31704  16.515   4.487  14.413  0.0571  0.2194 -0.2507
15571W        W31705  14.593   7.125   0.723  0.1202 -0.1086  0.2713
15572W        W31706   0.234   8.056   4.087 -0.0398  0.1213 -0.1003
15573W        W31707   2.912  18.828  12.131 -0.0175  0.2084 -0.2431
15574W        W31708  16.552   6.523  10.230  0.2036  0.1804  0.0174
15575W        W31709  18.357   8.875  14.523  0.0253 -0.3255  0.1337
15576W        W31710  12.028   2.116   1.185  0.0224 -0.2631  0.0999
15577W        W31711   8.913   9.265   3.734 -0.1303 -0.1004 -0.0209
15578W        W31712  16.462   2.840   4.780  0.2947 -0.3340  0.2402
15579W        W31713   0.937  15.925  14.933 -0.0044 -0.1193 -0.1748
15580W        W31714   8.526   0.107   5.555  0.1092 -0.0716  0.0153
15581W        W31715  18.335  19.258   2.672 -0.1982 -0.1255 -0.2384
15582W        W31716  12.380  12.124   4.519  0.2301 -0.0367 -0.1923
15583W        W31717  18.230   5.108  13.444  0.0302  0.2079 -0.0747
15584W        W31718   5.688   3.755   0.468 -0.0224  0.0039  0.2784
15585W        W31719   6.566   0.828   1.343  0.2921  0.1802 -0.2374
15586W        W31720  15.335   6.144   9.955 -0.1961  0.0840  0.1482
15587W        W31721   0.943   8.617   3.575 -0.0987 -0.1789 -0.2942
15588W        W31722  14.848   0.873  14.399 -0.2154 -0.0872  0.3318
15589W        W31723  14.936  13.547   1.307  0.2198 -0.0370  0.1687
15590W        W31724   2.687  13.753   0.309 -0.0728  0.0092 -0.1602
15591W        W31725  12.635   9.800   2.516 -0.1976  0.0694  0.0730
15592W        W31726   9.220  16.007   2.471  0.2400  0.0131 -0.5004
15593W        W31727  13.919   9.202   3.405 -0.1262 -0.0316  0.3215
15594W        W31728  13.281  13.328   5.952 -0.3806  0.2131  0.2384
15595W        W31729  12.430   2.262   4.034  0.0470  0.0148 -0.1040
15596W        W31730  11.553   6.156   3.270  0.0986  0.1672  0.1751
15597W        W31731  15.984   8.405   0.193 -0.4681 -0.0589 -0.0380
15598W        W31732  11.812   0.980  14.175  0.0093  0.2667 -0.0872
15599W        W31733  14.269  15.257  13.771 -0.0768 -0.3657 -0.0887
15600W        W31734   5.644   5.970   9.229  0.0062  0.1820 -0.1573
15601W        W31735   2.862   9.912   3.011 -0.0958 -0.0334  0.2345
15602W        W31736   4.051  13.495  12.017  0.1867 -0.4683 -0.0294
15603W        W31737  14.397  11.627  14.554 -0.0391  0.0143  0.0327
15604W        W31738  18.304   6.044   4.038 -0.1251 -0.0396  0.0911
15605W        W31739  18.016  12.931   3.609 -0.1916 -0.0508 -0.2752
15606W        W31740  10.922  13.291  10.877  0.0088  0.1967 -0.0693
15607W        W31741   8.335   4.228   9.937  0.1811 -0.3338  0.2140
15608W        W31742   3.598  11.085   0.898  0.0763  0.0622 -0.0775
15609W        W31743  16.215  11.777   0.679 -0.2611  0.3864  0.0168
15610W        W31744   3.530  15.868   3.298  0.1739  0.0381  0.2545
15611W        W31745   9.890  14.700   0.980 -0.3068 -0.1232 -0.1667
15612W        W31746   3.365   9.037  13.462 -0.3178 -0.1032  0.3220
15613W        W31747   8.200  11.845   5.819  0.2471 -0.1045 -0.1439
15614W        W31748   5.516   1.045  10.606 -0.0759  0.0021  0.1517
15615W        W31749   0.282  11.778  10.566 -0.1258 -0.4219 -0.0732
15616W        W31750  12.197   7.229   1.957  0.1391 -0.1988  0.1153
15617W        W31751   2.625  12.171  13.936 -0.2370  0.2792  0.0477
15618W        W31752  13.598   3.704   2.585  0.1321  0.0646  0.2094
15619W        W31753  18.820   8.734   3.613 -0.3072 -0.1036  0.1948
15620W        W31754   0.258  11.209  13.318  0.1856  0.2194  0.2040
15621W        W31755  12.747   6.504  14.514 -0.4140  0.1778  0.0599
15622W        W31756  15.776  10.167   4.256  0.0249 -0.2783  0.0585
15623W        W31757  11.525  11.057   9.685  0.0949 -0.0331  0.4400
15624W        W31758   4.394   7.985  13.775 -0.2038  0.1588  0.1716
15625W        W31759  17.118  13.696  10.794  0.0162 -0.1143  0.0152
15626W        W31760  10.497  12.837  13.004  0.1021 -0.0966  0.4927
15627W        W31761  16.236  14.350   2.132  0.2144 -0.1253  0.0125
15628W        W31762   2.244  16.948   4.900  0.3336 -0.1849 -0.2210
15629W        W31763  19.196   3.383   4.949 -0.0645  0.0756  0.0301
15630W        W31764   1.161   5.465   4.383 -0.2192  0.0620  0.1638
15631W        W31765  15.156   4.954  13.833 -0.0791 -0.0952 -0.1549
15632W        W31766   8.109   6.229   9.621 -0.1860 -0.0846 -0.4519
15633W        W31767  19.077  13.852  12.246  0.1865 -0.0208  0.2211
15634W        W31768  18.339   1.333  12.060  0.0275 -0.2180  0.0592
15635W        W31769  16.019  16.795  14.764 -0.0190 -0.0267 -0.1418
15636W        W31770   8.876   9.352  12.164 -0.0215  0.1711  0.2005
15637W        W31771  17.674  12.772  14.247  0.1112  0.2884 -0.0429
15638W        W31772   4.005   4.174  10.581 -0.0822  0.0233 -0.0373
15639W        W31773   9.445  17.700   3.875 -0.3775  0.1177 -0.2390
15640W        W31774  10.572   1.829  11.948 -0.1808  0.1130  0.0435
15641W        W31775   7.895   7.917   0.432  0.2584  0.0235  0.2640
15642W        W31776  18.152   9.217  10.924 -0.2801  0.1014  0.1388
15643W        W31777  14.644  18.434   1.596  0.1459  0.1840  0.2857
15644W        W31778  11.153  17.095  11.581  0.0025  0.2153 -0.2931
15645W        W31779  18.813  16.887  12.347  0.1261  0.1674  0.0168
15646W        W31780  14.837  14.776  13.637 -0.1868  0.1573  0.1596
15647W        W31781  16.698  10.398  11.475 -0.1663 -0.0616 -0.1139
15648W        W31782   7.662  13.773   2.393 -0.0608 -0.3267  0.2197
15649W        W31783  17.478  13.747   4.860  0.0061 -0.1055  0.0170
15650W        W31784   2.909  11.741  12.423  0.0099  0.2395 -0.1023
15651W        W31785  18.654   2.760   1.920 -0.2075  0.0103  0.0119
15652W        W31786   2.495  18.803   2.691 -0.2777  0.4506  0.2006
15653W        W31787   6.092   6.121  11.629 -0.0962 -0.1552 -0.0358
15654W        W31788   9.374   9.464   3.327  0.0417  0.2496 -0.1181
15655W        W31789  13.029   2.881   2.375  0.2480  0.2291  0.1877
15656W        W31790   0.782  10.230  12.526  0.2294  0.1465 -0.2905
15657W        W31791  14.908   0.568   2.867 -0.2113  0.2142 -0.0845
15658W        W31792  10.396   0.754  13.048  0.2131 -0.0154 -0.0427
15659W        W31793   8.030  18.113   1.506 -0.0421 -0.0293  0.1524
15660W        W31794   2.017   8.609  12.650 -0.1079  0.0077 -0.1876
15661W        W31795  14.196   5.430  13.677 -0.1911 -0.3247 -0.2935
15662W        W31796  18.140  12.109   0.406 -0.2079  0.0543  0.1179
15663W        W31797   6.701   9.447   0.970  0.2441 -0.0098 -0.2848
15664W        W31798   9.328  10.492  10.721  0.2741  0.2808  0.2502
15665W        W31799  16.242  11.885  11.387  0.0620 -0.2006 -0.1353
15666W        W31800  18.144  11.913   1.471 -0.3058  0.2746 -0.2685
15667W        W31801  11.038  11.287  14.649  0.0995 -0.0186  0.1550
15668W        W31802   6.347   2.141   2.151 -0.0177 -0.0793 -0.2086
15669W        W31803   7.281  19.298   3.437 -0.1074 -0.0036 -0.1455
15670W        W31804  10.986  16.965   6.464  0.3590 -0.0076 -0.3899
15671W        W31805  13.229   0.453   0.226  0.3730 -0.0025 -0.0681
15672W        W31806   7.393   2.840  14.649  0.1921  0.0040  0.3501
15673W        W31807  15.387  15.464   4.173  0.0187  0.3134  0.1026
15674W        W31808  15.373   8.293  10.674  0.2053  0.2526 -0.1996
15675W        W31809   9.778   9.372   0.605 -0.1681  0.2938 -0.2755
15676W        W31810  10.021  12.659   1.854  0.3444  0.1129  0.0035
15677W        W31811   2.660   8.159   2.938  0.2428 -0.1639 -0.0410
15678W        W31812   2.197   7.583   1.477 -0.0634 -0.5026 -0.0506
15679W        W31813  14.190  15.640   1.573 -0.0538  0.4622  0.3578
15680W        W31814   8.108  11.537   9.434 -0.1198 -0.0441 -0.2086
15681W        W31815   2.674  15.998   0.210 -0.1002 -0.0855 -0.2870
15682W        W31816  13.634   0.365  12.932 -0.1788  0.0109  0.2007
15683W        W31817   9.530  14.452  10.956  0.1741  0.0353  0.1737
15684W        W31818   4.208   3.962  13.655 -0.0341  0.1672  0.0946
15685W        W31819   1.776   2.289   1.541  0.0820  0.1451  0.1770
15686W        W31820  17.464   0.109  13.674 -0.1152  0.1202 -0.3593
15687W        W31821   5.911   2.846  13.810 -0.3374  0.0961  0.1452
15688W        W31822   4.647   4.041   4.231  0.1390 -0.0192 -0.0771
15689W        W31823   4.372   8.068  11.803 -0.3450 -0.0734 -0.3960
15690W        W31824   0.678   6.685   1.371  0.0802  0.3007  0.2078
15691W        W31825   6.471  19.280  10.989 -0.1357  0.2370 -0.0356
15692W        W31826  16.972  17.835   4.405 -0.1764  0.0129 -0.0278
15693W        W31827   7.079  18.200   2.506 -0.2441  0.0331 -0.0923
15694W        W31828  13.724  18.881   1.357 -0.1823 -0.0221 -0.3159
15695W        W31829  12.984  15.478  12.108  0.0112 -0.2365  0.0889
15696W        W31830  19.352   2.929   1.946 -0.3494 -0.0055 -0.2182
15697W        W31831   3.318   1.470  11.058 -0.2819 -0.0897 -0.1399
15698W        W31832   3.739   7.201  13.617  0.0748  0.2926  0.0572
15699W        W31833   1.126   5.642   3.495 -0.3883  0.1160 -0.0590
15700W        W31834   5.697  18.544  11.716  0.2449  0.1681 -0.0355
15701W        W31835   9.210  10.690   3.014  0.0748 -0.1194  0.3963
15702W        W31836  15.781   7.488  13.959 -0.2482 -0.0389  0.0618
15703W        W31837  18.945  15.712   3.213 -0.0778  0.0817 -0.0412
15704W        W31838  15.048   4.495  10.941 -0.1141  0.1658 -0.4894
15705W        W31839  10.301   0.550   3.466  0.2906  0.0145 -0.2935
15706W        W31840   0.577  17.801   2.358  0.0390  0.0721  0.2068
15707W        W31841  10.636  17.944   1.570  0.1975  0.2774 -0.2324
15708W        W31842  18.364  12.533  10.385 -0.1640 -0.0948 -0.0589
15709W        W31843   9.507  11.152   0.496  0.0668 -0.0705 -0.2745
15710W        W31844  19.056  17.003  13.626 -0.1088 -0.0188 -0.2066
15711W        W31845   0.121  17.805   2.152  0.2777  0.0633  0.2268
15712W        W31846   9.812   9.304  10.521 -0.2345 -0.2536  0.3574
15713W        W31847   9.901   0.071  10.895  0.1637 -0.3009 -0.0549
15714W        W31848  18.608   3.417  12.168 -0.1021 -0.2511 -0.0748
15715W        W31849  14.327   2.186   2.603  0.0160  0.1242  0.1694
15716W        W31850   2.778  10.798   4.120  0.4213  0.3709 -0.1176
15717W        W31851  10.509   8.320   4.135  0.1065 -0.2072 -0.2411
15718W        W31852   6.593  14.727  14.437  0.0788  0.1473 -0.1690
15719W        W31853  12.106   1.978   9.809 -0.0488 -0.0994 -0.1281
15720W        W31854  16.486  19.093  11.078  0.0858 -0.1729 -0.0952
15721W        W31855   3.166   5.831  13.586  0.0721  0.1357 -0.0697
15722W        W31856   1.210   6.782  11.931  0.1372  0.1979 -0.1382
15723W        W31857  17.112  16.873  14.224 -0.3777  0.0317  0.0440
15724W        W31858   5.914   5.562  13.462  0.0442  0.0276 -0.2688
15725W        W31859   9.997  10.766   2.524  0.1271  0.0345  0.0290
15726W        W31860   3.988  16.515  11.686  0.0590 -0.0679  0.0631
15727W        W31861  10.073  16.616  13.902  0.0896  0.0678 -0.2766
15728W        W31862  11.896   9.616  11.296 -0.5344  0.3658 -0.4113
15729W        W31863  15.900   2.541   2.458  0.1023  0.0325  0.0568
15730W        W31864  12.703   5.642   4.273  0.0542 -0.0941  0.3696
15731W        W31865  16.074  18.478   3.518 -0.2582 -0.0758  0.0879
15732W        W31866  11.720  15.401  14.262  0.2282  0.2635  0.2532
15733W        W31867   7.466  13.570  13.510  0.2830  0.2441 -0.0155
15734W        W31868   6.826  10.432   0.686  0.0272  0.0008  0.3188
15735W        W31869   5.915   2.499   0.578  0.0889  0.0652  0.1563
15736W        W31870   2.104   2.299  10.337  0.3234 -0.1570  0.3478
15737W        W31871  11.558  15.453   2.836  0.0691 -0.0364  0.6974
15738W        W31872  10.099  18.397   2.921 -0.2711 -0.0520 -0.2331
15739W        W31873   0.464   3.819   0.981 -0.2181 -0.1430 -0.1619
15740W        W31874  14.235   7.935   4.798 -0.0137  0.2549  0.0855
15741W        W31875   0.268  17.676  12.573  0.0013 -0.2888  0.1569
15742W        W31876  14.513  11.294  12.461 -0.0049  0.1792 -0.1892
15743W        W31877   0.011   1.120   3.931  0.0353  0.4780  0.1456
15744W        W31878   7.350  18.261  10.964  0.1068  0.2939  0.3326
15745W        W31879  17.701  10.603   4.281 -0.0321  0.0359  0.2389
15746W        W31880  11.458  11.579  14.672 -0.2521  0.1249  0.0426
15747W        W31881   9.688   4.927  10.629  0.3016 -0.0075 -0.1604
15748W        W31882  17.221   0.692   5.026  0.0666 -0.1797 -0.1043
15749W        W31883  13.646  17.127   5.898  0.0753 -0.0832  0.1364
15750W        W31884   4.640   5.455   1.643  0.3031  0.0190  0.0198
15751W        W31885   2.635  18.348   2.970  0.1606  0.1240  0.3501
15752W        W31886  19.321   8.970  14.350  0.1417  0.2589 -0.1513
15753W        W31887   4.857   2.835  11.000  0.0641 -0.0986  0.2895
15754W        W31888   3.883   7.527  12.444 -0.2079  0.1353 -0.3703
15755W        W31889  10.027   0.087   1.467 -0.2015 -0.4468  0.0389
15756W        W31890  11.623  15.682  10.168  0.3689  0.0638 -0.0214
15757W        W31891   6.002   5.350   4.637  0.0857 -0.0418  0.1642
15758W        W31892  14.767   8.549   2.551 -0.2281  0.4360 -0.3279
15759W        W31893  14.441  10.590   5.581  0.2308  0.2475 -0.5041
15760W        W31894   8.470  12.498  12.559  0.1154  0.1011 -0.1022
15761W        W31895  12.680  12.222   0.055 -0.2171  0.1713 -0.2680
15762W        W31896   1.978  10.824  10.964  0.0415 -0.2823 -0.1091
15763W        W31897   0.067   9.104  12.743 -0.0928  0.2486  0.1611
15764W        W31898  11.735   2.168  14.487  0.0337 -0.0980 -0.1652
15765W        W31899   6.063   6.666   0.607 -0.1177 -0.0188 -0.3523
15766W        W31900   9.549   4.180   9.840  0.1564 -0.2431  0.1563
15767W        W31901   1.341   5.053  11.581 -0.1322  0.2371  0.1829
15768W        W31902  11.887  13.067  10.073 -0.1537  0.1715 -0.2045
15769W        W31903  11.296  10.170  11.248  0.0073  0.0396 -0.2077
15770W        W31904  11.091   8.455   0.417 -0.0085  0.1192  0.2598
15771W        W31905   8.867  17.804   3.396 -0.3459 -0.0093 -0.2580
15772W        W31906  10.401  19.246   2.172  0.1894  0.1284 -0.1867
15773W        W31907   6.706   2.112   0.239  0.2587  0.4271  0.1288
15774W        W31908  17.343   6.604  14.749  0.3202  0.0938 -0.4256
15775W        W31909   7.363   4.107  12.588 -0.1264 -0.2115  0.0644
15776W        W31910  19.125  17.893   3.454  0.0166  0.2793  0.0669
15777W        W31911  13.380  18.817   2.904  0.0630  0.1133  0.1480
15778W        W31912   7.065   0.275   2.041  0.2539 -0.1893  0.2272
15779W        W31913   2.001   8.097   4.916 -0.0057  0.3102  0.0914
15780W        W31914  15.464   0.487   0.453 -0.2895  0.0837 -0.1127
15781W        W31915  13.490   2.716   2.271  0.2257 -0.0536 -0.2085
15782W        W31916  13.516   4.185  12.529  0.0688 -0.0649  0.1640
15783W        W31917  14.065   5.116   2.027 -0.1973  0.3440 -0.0976
15784W        W31918  17.035  11.194  14.677  0.2527 -0.0773 -0.2212
15785W        W31919  11.526  18.093   2.461 -0.1117 -0.0991  0.2383
15786W        W31920  16.669   4.892   4.381 -0.0075 -0.3448 -0.2551
15787W        W31921   9.912  13.483   5.797  0.3189  0.0733  0.0586
15788W        W31922  14.670  13.068   4.563  0.1560 -0.0791  0.1694
15789W        W31923  17.314   9.292  14.206  0.0802 -0.0926 -0.1801
15790W        W31924   0.516   9.106   0.879  0.0951  0.0854  0.1992
15791W        W31925   8.939  15.870  14.144  0.1027  0.1595 -0.4153
15792W        W31926  17.061   2.017   4.845 -0.0271 -0.3028  0.0616
15793W        W31927  17.125   9.740   1.448 -0.1701 -0.0576  0.1269
15794W        W31928   6.549   4.990   4.642  0.3259 -0.0790 -0.1416
15795W        W31929   8.192  16.375   3.019 -0.4174 -0.1486  0.1680
15796W        W31930  19.097  14.971   4.844  0.3193 -0.0769 -0.0808
15797W        W31931   2.852   1.851   1.343  0.0862 -0.0358  0.1483
15798W        W31932   9.886  18.934   1.358 -0.0610 -0.2099  0.0812
15799W        W31933   3.296  18.179  12.023  0.0690 -0.2954 -0.2079
15800W        W31934  10.461  19.084   3.560 -0.0059  0.0125 -0.3999
15801W        W31935  17.414   3.059  13.923  0.1271  0.0499 -0.1141
15802W        W31936   4.416  16.053   3.109 -0.2206  0.2393 -0.3533
15803W        W31937   1.997  13.582  13.290 -0.0704 -0.1020  0.1904
15804W        W31938  19.342  17.636   2.605 -0.0893  0.1733  0.3355
15805W        W31939  16.881   5.756   2.560  0.4930  0.0783 -0.1743
15806W        W31940   0.306   8.907   2.797 -0.1663  0.3362 -0.0719
15807W        W31941   9.687   5.111   5.590 -0.2325 -0.1184 -0.1295
15808W        W31942  16.168   4.846  14.565  0.0472 -0.3567  0.1291
15809W        W31943  17.741  14.508   4.215  0.1130  0.0944 -0.3689
15810W        W31944  15.279  14.562   5.252  0.1652 -0.0425  0.4198
15811W        W31945  15.999   7.730   3.418 -0.3364 -0.2118 -0.2580
15812W        W31946  15.126   7.218  13.193  0.1266 -0.1642  0.1584
15813W        W31947  16.555  12.965  13.394 -0.0106  0.0704 -0.2371
15814W        W31948   8.839   5.197  12.875 -0.0077  0.0485  0.6377
15815W        W31949  17.971   4.032  14.580 -0.3538  0.1679  0.0788
15816W        W31950   2.977  18.293  14.443 -0.1877 -0.0100 -0.1483
15817W        W31951  17.310  16.922   2.683 -0.2959 -0.1493  0.3216
15818W        W31952   5.593  11.363  12.718  0.0947  0.0965 -0.0960
15819W        W31953   4.860  14.201   0.481  0.0214  0.2366  0.1830
15820W        W31954   3.685  13.652   0.127  0.3489 -0.0157  0.0696
15821W        W31955   9.993  15.136   3.873  0.2335  0.2392  0.1258
15822W        W31956  15.187  14.093  13.701 -0.2518 -0.2494  0.0607
15823W        W31957   6.741   6.709  12.496  0.0145  0.1421 -0.2385
15824W        W31958   7.005   3.689  11.807 -0.1538 -0.3469  0.1323
15825W        W31959   6.333  10.076  11.044 -0.2218  0.1240  0.1186
15826W        W31960   8.528  12.499   1.877 -0.0993 -0.1480  0.4182
15827W        W31961  19.067   9.420   2.628 -0.0758 -0.3917 -0.1016
15828W        W31962  10.001   8.038   3.420  0.1494  0.3569  0.0317
15829W        W31963   1.902   3.617   3.192  0.2269 -0.2023 -0.0416
15830W        W31964  17.566  18.543  13.658  0.0518 -0.1501 -0.1658
15831W        W31965  13.920   3.437   2.351  0.1076 -0.1149 -0.0595
15832W        W31966   3.911  12.164   4.338  0.1083  0.1205 -0.2719
15833W        W31967   8.508  16.687   4.804  0.4550  0.0651  0.1540
15834W        W31968   0.570  15.483   3.140 -0.1594 -0.1861 -0.0482
15835W        W31969  11.215   9.936  14.162  0.1606 -0.1705 -0.0843
15836W        W31970   6.705  17.414   3.293  0.0690  0.4307  0.1529
15837W        W31971   3.460   6.370  10.455 -0.3765 -0.3053 -0.1046
15838W        W31972   5.578  10.951   0.637  0.2445 -0.1485 -0.0750
15839W        W31973   4.694  14.668  11.924 -0.1580  0.0040  0.0598
15840W        W31974  17.635   5.823   9.040  0.4259  0.0621 -0.0591
15841W        W31975  16.146   0.535   3.182 -0.1509 -0.3087 -0.0224
15842W        W31976   8.276   6.423  11.468 -0.1637  0.2720 -0.0909
15843W        W31977  17.941  19.052  12.277  0.5558  0.0777 -0.1649
15844W        W31978   5.370  12.991  12.418  0.0373 -0.2526  0.2251
15845W        W31979   6.672  12.222  10.487  0.0965  0.2978  0.1281
15846W        W31980  13.851   8.221  11.823  0.0557 -0.0962 -0.4405
15847W        W31981  13.816   1.757  12.369  0.2893  0.0833  0.1164
15848W        W31982  11.737   9.713   0.648 -0.0375 -0.0999  0.2184
15849W        W31983   5.618  13.683   2.486  0.2828  0.0139  0.1527
15850W        W31984   1.814   9.443  10.926  0.0969  0.1537 -0.2688
15851W        W31985  15.124   4.664   0.764  0.1273  0.0907  0.2547
15852W        W31986  18.354   0.478  11.766  0.2496  0.6078 -0.0020
15853W        W31987   0.127   1.329  14.687  0.0610  0.1552  0.2840
15854W        W31988   6.109   4.595  11.988 -0.0253 -0.2338 -0.0853
15855W        W31989   5.151   0.262  12.129 -0.1920  0.0724 -0.0875
15856W        W31990  13.515  12.430   1.043 -0.0030 -0.1166  0.2216
15857W        W31991  19.175   8.244  11.242  0.2216 -0.0790  0.1386
15858W        W31992  13.240   9.461  11.662 -0.0941  0.2136  0.0575
15859W        W31993   3.174  12.055   1.443  0.0194 -0.2715  0.2056
15860W        W31994   7.664  17.887   5.112 -0.1578 -0.1562  0.0474
15861W        W31995   8.689   2.898  13.240 -0.1017  0.5112  0.1444
15862W        W31996   5.875   2.056   0.912 -0.1749  0.0126  0.2359
15863W        W31997  13.593  15.246   4.282 -0.1465 -0.2325 -0.0081
15864W        W31998   7.773  15.118  14.816  0.3381  0.0450  0.1939
15865W        W31999   1.555  11.097   3.132  0.1447  0.0809 -0.0151
15866W        W32000  14.088   9.492   0.340 -0.1149  0.0734 -0.0605
15867W        W32001  10.638   5.722  10.722 -0.0398  0.0991  0.1584
15868W        W32002  10.926  14.682   4.493  0.0450  0.1190  0.0389
15869W        W32003  16.378   6.909  13.496  0.1634  0.0722  0.0741
15870W        W32004   1.528   9.720  11.873 -0.1047 -0.2074 -0.1626
15871W        W32005   6.438  13.710   1.884  0.1799 -0.0263 -0.3088
15872W        W32006   0.193   0.374  14.620  0.0398 -0.0675 -0.1615
15873W        W32007   7.970  11.131  12.023 -0.0550 -0.0847  0.0026
15874W        W32008   2.641   4.524   9.764  0.0900 -0.0255 -0.1416
15875W        W32009  15.818  13.086  11.881 -0.1994 -0.2372 -0.1852
15876W        W32010   0.415   2.661   3.964  0.0170  0.0605 -0.0346
15877W        W32011   8.765  10.661  12.240  0.0230  0.2954 -0.4194
15878W        W32012   6.501   6.470   2.547 -0.1503  0.2842  0.1008
15879W        W32013  18.123   8.479   2.170 -0.2794 -0.3178 -0.1754
15880W        W32014  16.145  15.141   3.864 -0.0875  0.2182  0.0817
15881W        W32015   8.258   0.636  11.385  0.0726 -0.0235 -0.0482
15882W        W32016  16.691  14.212  13.027  0.0241  0.0009 -0.0504
15883W        W32017  13.367  18.242   0.153  0.0999 -0.0895 -0.0194
15884W        W32018   0.807   8.033  10.859  0.0632  0.0679  0.0257
15885W        W32019   9.436  12.893  11.649 -0.1289  0.1060 -0.2019
15886W        W32020   5.511  16.326  13.816 -0.1149  0.0950 -0.0120
15887W        W32021  10.739  14.757  13.654  0.1449 -0.0848 -0.1550
15888W        W32022   7.719  13.724   4.691  0.0693 -0.0363  0.0713
15889W        W32023  14.673  17.312   0.017 -0.1445 -0.0555  0.1080
15890W        W32024  13.726  18.173  13.916 -0.1995  0.0161  0.2882
15891W        W32025  12.939  17.602   3.015  0.1860  0.1726  0.4237
15892W        W32026  15.566   4.954  14.138 -0.1458  0.0616 -0.1144
15893W        W32027   7.656   0.106   4.140  0.2128  0.0697 -0.1845
15894W        W32028   3.841  17.355   3.898 -0.1739 -0.0696  0.0592
15895W        W32029  16.564  17.522   4.214  0.1241 -0.1025 -0.0375
15896W        W32030  12.031  10.269   1.015  0.0628  0.1183 -0.0632
15897W        W32031  16.328  12.101   4.462 -0.1731  0.0084  0.0416
15898W        W32032   2.465  14.616   2.488 -0.0528  0.0471  0.2258
15899W        W32033   2.164   1.032   1.656  0.3093  0.2388 -0.3547
15900W        W32034   9.283   2.274  12.852  0.2731  0.2159 -0.2165
15901W        W32035  19.194  16.673  11.962  0.1776 -0.2144  0.0873
15902W        W32036   4.053   2.379   2.869  0.2004  0.3637 -0.0640
15903W        W32037  16.624  13.316   4.584 -0.0261 -0.0187  0.1042
15904W        W32038   5.337  12.721  10.575 -0.0074 -0.0057 -0.1882
15905W        W32039  14.043   8.203  10.631  0.0660 -0.1093  0.1761
15906W        W32040  17.871  10.298   9.911 -0.0920  0.2333 -0.3584
15907W        W32041  15.954  16.084  11.039  0.1607  0.3154  0.1529
15908W        W32042  12.061   5.776  13.631  0.0678 -0.0051 -0.4434
15909W        W32043   1.775  11.089  11.356  0.0921  0.1185 -0.0539
15910W        W32044   5.699  12.192  14.801 -0.1442 -0.2177 -0.1151
15911W        W32045   4.086  17.252  11.155  0.1424  0.0583  0.2193
15912W        W32046   4.773  10.962  10.493  0.0798 -0.1463  0.3633
15913W        W32047  16.124   9.050   3.803  0.3863 -0.0943 -0.0261
15914W        W32048  16.199  13.990   0.902  0.2246 -0.0933  0.0415
15915W        W32049  10.673   4.964  13.727 -0.2391 -0.0186 -0.0539
15916W        W32050  19.024   0.589  11.077  0.2633  0.0395 -0.1279
15917W        W32051   1.213  14.912  12.487  0.1797  0.0567  0.0024
15918W        W32052  11.185   3.855  11.014  0.1351 -0.0607  0.1888
15919W        W32053  12.356  13.569  13.852  0.1165 -0.0728 -0.1249
15920W        W32054  10.128  18.829   4.559  0.0452  0.1554 -0.2355
15921W        W32055   1.135  11.223   0.201 -0.0273  0.0506 -0.0180
15922W        W32056  11.904   9.899  14.439 -0.0219 -0.0168 -0.1558
15923W        W32057   2.137   8.156   2.704  0.0464  0.0340 -0.1900
15924W        W32058  17.947  10.498  12.155  0.1600 -0.1925  0.2173
15925W        W32059   8.567  16.145  12.230  0.1655 -0.5024  0.0240
15926W        W32060   2.349  13.142   2.023 -0.1218  0.0953  0.1541
15927W        W32061   3.370  18.477   0.573  0.2726 -0.1158 -0.4670
15928W        W32062  14.662  17.109   2.704  0.0511 -0.4877  0.4017
15929W        W32063   3.026  16.207  14.037 -0.1464  0.4089 -0.1108
15930W        W32064   6.346  17.411   3.625 -0.0988  0.3186 -0.0069
15931W        W32065   4.649   1.054  14.046  0.0864  0.1108 -0.0015
15932W        W32066   6.564  15.558  13.341  0.0836 -0.1211 -0.1172
15933W        W32067  15.746   4.246   2.175 -0.0176 -0.0405 -0.1082
15934W        W32068  16.018   6.630  14.312 -0.2584 -0.1166  0.1131
15935W        W32069  16.353  13.718   3.116  0.0743 -0.1143 -0.0691
15936W        W32070  17.585  18.135  14.670  0.0689  0.1267 -0.3866
15937W        W32071   1.609  14.249  12.835  0.0679  0.0177  0.0061
15938W        W32072  12.969  13.893   3.842 -0.1301 -0.0262 -0.2235
15939W        W32073  13.401   3.560  13.944  0.2073  0.0504  0.0624
15940W        W32074   9.118   9.262  11.416 -0.2047 -0.2844 -0.1017
15941W        W32075   9.152   4.147   1.987  0.2520 -0.1684 -0.0174
15942W        W32076  14.745   8.401  12.248 -0.0712 -0.0696  0.0606
15943W        W32077  13.453  11.464   3.327 -0.0086 -0.2406  0.1827
15944W        W32078   3.064   3.277   2.625 -0.1498 -0.1144 -0.2226
15945W        W32079   8.207  18.301  13.529  0.1180  0.1848 -0.0342
15946W        W32080  16.630  16.838  14.146 -0.1765 -0.3006 -0.0167
15947W        W32081   6.398   0.025  10.470 -0.1565 -0.0099  0.0119
15948W        W32082   2.560   9.708   0.902  0.0108  0.0814 -0.3213
15949W        W32083   2.228   4.790  11.859  0.1006 -0.1172 -0.1176
15950W        W32084   4.055   2.824   0.699 -0.1796 -0.1548 -0.1415
15951W        W32085   9.122  14.563  11.746  0.2375 -0.2798 -0.0440
15952W        W32086   1.331   9.484  12.313  0.1380 -0.2479  0.4252
15953W        W32087  11.947  17.473  14.875 -0.1089 -0.3371  0.0057
15954W        W32088   5.810   8.986   9.283 -0.0241  0.1212  0.0952
15955W        W32089   5.172   0.870  14.876  0.0566  0.1170  0.1277
15956W        W32090   7.638   8.776   2.577 -0.3616 -0.2613 -0.0152
15957W        W32091  18.037   3.191  10.365 -0.1820 -0.2632 -0.0174
15958W        W32092   5.217  12.025   2.658 -0.0441 -0.1365 -0.1514
15959W        W32093  10.080  12.205  12.938 -0.2205 -0.3081  0.0598
15960W        W32094  15.474  14.148   3.508  0.2500  0.3588  0.1282
15961W        W32095  17.577  18.642   4.274  0.0345  0.1195 -0.1899
15962W        W32096   5.639  16.617   3.771  0.1877  0.0681  0.3098
15963W        W32097  10.252   9.646   0.303 -0.4508 -0.2420 -0.1657
15964W        W32098  15.596   4.453   3.562  0.0776 -0.4068 -0.2565
15965W        W32099   5.580  14.898  14.601  0.0709  0.0442 -0.2567
15966W        W32100  10.025   8.058  12.679  0.2871  0.0231  0.1528
15967W        W32101  11.473   6.040   0.843  0.1432  0.0623  0.2105
15968W        W32102  16.937   3.986   3.116  0.0336  0.0086  0.1199
15969W        W32103  13.928   7.000   4.606  0.1423  0.1429  0.1022
15970W        W32104   6.952   9.412   2.110  0.2468  0.0232  0.1609
15971W        W32105   0.667   4.589   1.396 -0.0662  0.0818  0.0291
15972W        W32106  12.801   9.142   3.660  0.0452 -0.1668  0.2287
15973W        W32107  16.891  13.981   4.076 -0.1528  0.0850 -0.0685
15974W        W32108   9.193   8.895   2.347  0.4163  0.2211  0.3225
15975W        W32109   8.383  17.784   3.714 -0.0352 -0.0569 -0.0454
15976W        W32110  16.801   4.612   9.049 -0.5423  0.1223 -0.0613
15977W        W32111   7.284   2.531  11.096 -0.3208  0.3146 -0.1317
15978W        W32112  11.708  10.022  10.981  0.0900 -0.1121  0.0578
15979W        W32113  12.683   5.828  13.871 -0.1199  0.1654 -0.1137
15980W        W32114  11.260   3.804   4.766  0.0549  0.0374 -0.2225
15981W        W32115  18.865  12.175  13.621  0.2346  0.7673 -0.1160
15982W        W32116   9.503  14.466  14.191  0.0771 -0.4749 -0.0544
15983W        W32117   6.298  17.897  12.018  0.0587  0.5220  0.0985
15984W        W32118   4.085  12.596   4.115 -0.1974 -0.2671  0.0129
15985W        W32119   3.082   6.171   2.777  0.0465 -0.2622  0.4156
15986W        W32120  10.431  17.486  11.923  0.0500 -0.0866  0.0164
15987W        W32121  15.091   1.350   4.569  0.1171 -0.2511 -0.0406
15988W        W32122   9.120  13.052   3.624  0.3511 -0.0267  0.0002
15989W        W32123   6.857  16.600   1.449 -0.0024 -0.1583 -0.2511
15990W        W32124   1.702   4.419   1.668  0.0492  0.2357 -0.5068
15991W        W32125   1.940  10.178   3.854  0.0112  0.2228 -0.1377
15992W        W32126   4.029  14.747  11.430  0.1095  0.1494  0.0537
15993W        W32127  18.748  18.627   0.747 -0.1307 -0.0548 -0.4528
15994W        W32128   0.163   3.491  12.303 -0.1743  0.1901 -0.1190
15995W        W32129   5.853   0.573  14.312  0.1232  0.1215  0.2266
15996W        W32130  10.676   5.485  13.735  0.1739 -0.2587 -0.0194
15997W        W32131  17.531   2.784   4.392 -0.1233 -0.0081 -0.1980
15998W        W32132  16.827  15.041   2.806 -0.2938 -0.3647 -0.0500
15999W        W32133   4.518   2.174   3.001  0.0632 -0.1141 -0.0794
16000W        W32134   5.913  18.914  13.148  0.1415 -0.1135 -0.1202
16001W        W32135   8.135  10.435   2.072  0.3726  0.0790  0.0213
16002W        W32136  10.971  14.916  14.574  0.3977  0.0414  0.3748
16003W        W32137  10.341  17.725  12.489 -0.2792  0.1884 -0.5047
16004W        W32138   0.257  10.560  11.110 -0.0315  0.2037 -0.1565
16005W        W32139   1.813   6.024   4.518  0.0444 -0.0459  0.1685
16006W        W32140   9.087   5.854  11.502 -0.1989  0.2764 -0.0451
16007W        W32141  10.837  15.320   4.759 -0.0036 -0.4800 -0.0251
16008W        W32142  14.894  15.963   0.827  0.3330 -0.0780 -0.1356
16009W        W32143  12.747  11.807   2.014  0.3107  0.0686  0.2226
16010W        W32144   6.610  12.229  10.946  0.1067  0.0890 -0.2368
16011W        W32145  18.550   0.935  11.742 -0.1889 -0.2626 -0.0145
16012W        W32146   4.960  17.885  14.974 -0.0246  0.1391  0.1824
16013W        W32147  16.087   0.841  12.105 -0.0044  0.0526  0.0400
16014W        W32148   7.308  15.164   5.200 -0.0828  0.0351 -0.2263
16015W        W32149   2.955  17.478   5.145  0.0705 -0.4074  0.0576
16016W        W32150  18.596  12.214   3.789  0.0760  0.3631 -0.1736
16017W        W32151  12.357  14.735  11.603  0.2723 -0.0943  0.2471
16018W        W32152  18.266  12.648  14.074  0.1703 -0.3324  0.0714
16019W        W32153   8.053  10.404   4.029  0.0891  0.3267  0.1339
16020W        W32154  16.541  12.780  14.388  0.0359  0.3891  0.0479
16021W        W32155  15.683   5.420  13.716  0.0038 -0.3179  0.0493
16022W        W32156  10.268   4.713   3.382  0.1647 -0.0490  0.3373
16023W        W32157   7.367  12.834  12.484  0.1972 -0.0265  0.0022
16024W        W32158  17.897  14.022   1.892 -0.2455 -0.2094 -0.0783
16025W        W32159   1.605   5.902   5.042  0.0074  0.1830  0.0037
16026W        W32160   4.416   9.862   3.926  0.1200  0.2593 -0.1390
16027W        W32161  16.762   0.342   3.994 -0.1984 -0.0226 -0.3723
16028W        W32162  14.179   9.145  10.727  0.0569 -0.1265  0.0123
16029W        W32163  11.511  16.349   0.265  0.2825 -0.0582  0.0117
16030W        W32164   3.128   2.840   2.845 -0.0618 -0.1764  0.4385
16031W        W32165  11.616  10.662  11.716 -0.2692 -0.2873  0.0070
16032W        W32166  18.360  11.504   2.098  0.2501 -0.1095  0.0463
16033W        W32167  15.213   5.873  11.279  0.0333 -0.1655 -0.3342
16034W        W32168   2.423  13.778  13.480 -0.2413 -0.0926 -0.0976
16035W        W32169  10.999   4.414  10.851 -0.2042  0.1272  0.0797
16036W        W32170   2.418  15.140  10.644  0.0957  0.0648 -0.4434
16037W        W32171  16.931  11.962   2.712 -0.3164 -0.2986 -0.2304
16038W        W32172  18.065  18.088   1.968 -0.1074  0.0046 -0.1324
16039W        W32173  16.239  13.290   4.283 -0.0141  0.0899 -0.1328
16040W        W32174   8.724   3.378   3.333 -0.1920  0.1394 -0.1123
16041W        W32175  17.146  12.787  14.429 -0.0921  0.1287  0.1703
16042W        W32176   4.682   2.255   3.466 -0.1648 -0.0102 -0.0643
16043W        W32177  15.265   3.778   1.274 -0.1024  0.3084  0.0899
16044W        W32178  17.050  13.272   1.287 -0.1573  0.0926 -0.2590
16045W        W32179   0.487  16.528  10.346  0.1868 -0.0168  0.4035
16046W        W32180  13.988  15.704   2.448  0.0711  0.1486 -0.0413
16047W        W32181   9.469  17.708  13.201  0.0632  0.4100  0.3195
16048W        W32182   6.668   9.342  14.490 -0.2481  0.0996 -0.2643
16049W        W32183   3.520   4.485   9.969  0.1482  0.1069 -0.0217
16050W        W32184   7.052  12.464   4.227  0.0513  0.2981 -0.1247
16051W        W32185   2.355   5.695   3.956 -0.1930 -0.0187  0.4117
16052W        W32186   2.590  12.093   4.089  0.1930  0.1478  0.0382
16053W        W32187  15.238  10.739  13.082  0.0501  0.2539  0.1528
16054W        W32188   1.263   1.021  11.453  0.2001 -0.1200 -0.1308
16055W        W32189  11.835  18.244  13.427  0.2715 -0.0836 -0.0499
16056W        W32190  18.087   0.859   0.558 -0.2035 -0.0597 -0.0482
16057W        W32191  12.915  11.816   0.424 -0.2435 -0.2768  0.1055
16058W        W32192  14.113   7.255   3.381  0.0725  0.2235 -0.0674
16059W        W32193   0.574  17.894   1.827 -0.1099 -0.0362 -0.0564
16060W        W32194   3.842  10.489   2.077 -0.0919 -0.1265 -0.0570
16061W        W32195   4.947  19.295  11.163  0.0607 -0.2234 -0.0375
16062W        W32196   4.549  10.395   2.613  0.0108 -0.0430 -0.0636
16063W        W32197   7.149  16.222   4.229  0.0589 -0.0948 -0.1048
16064W        W32198  13.701   5.782   1.098  0.1061  0.2197  0.3188
16065W        W32199   3.766  10.996  13.456  0.1018 -0.0679  0.2616
16066W        W32200  19.307   3.033  13.558  0.4143  0.0494 -0.0045
16067W        W32201   1.893   3.983  12.955  0.2921 -0.2012 -0.0826
16068W        W32202  11.705  14.626   2.747 -0.1852 -0.5267 -0.2145
16069W        W32203  18.539  17.468   2.382 -0.0287 -0.0665  0.0381
16070W        W32204  14.677   1.488   1.918 -0.0322 -0.1493  0.2186
16071W        W32205   6.003   5.756   4.310  0.0134  0.1268  0.2333
16072W        W32206   2.706   2.594   2.573  0.1774 -0.0919  0.0590
16073W        W32207   0.596   4.300   0.055  0.0077  0.0334  0.2063
16074W        W32208  17.392   7.511  10.670  0.3257 -0.3017  0.0533
16075W        W32209   3.371   4.422   4.841  0.1970 -0.0904  0.0607
16076W        W32210   4.258   4.846   3.687 -0.0624 -0.1453  0.4140
16077W        W32211   4.488   3.173   4.273  0.0400 -0.1796 -0.0524
16078W        W32212   7.479  19.023  13.387 -0.1083 -0.0082 -0.1963
16079W        W32213   8.127   8.725  12.700 -0.2446  0.1047 -0.1234
16080W        W32214   5.798  15.233  11.123  0.0062  0.0294  0.0695
16081W        W32215   1.056   5.846  14.779  0.1639 -0.3050  0.0591
16082W        W32216   3.574   7.523   0.886 -0.1694 -0.2592 -0.0443
16083W        W32217   7.314  18.660  12.290  0.2584  0.0142 -0.2925
16084W        W32218  10.455   4.068  11.471  0.0273 -0.1332 -0.1778
16085W        W32219  14.455  16.212  10.011 -0.0683 -0.0479 -0.1681
16086W        W32220  15.286  11.794  13.490  0.0503  0.1602 -0.1926
16087W        W32221   7.649   1.443   2.457  0.0178 -0.3270 -0.1907
16088W        W32222  18.664   2.148   1.082  0.2639 -0.0147  0.2403
16089W        W32223   3.550  13.636  12.722  0.2070 -0.1493  0.1250
16090W        W32224   0.404  14.006   2.753  0.1622 -0.2184  0.2615
16091W        W32225   3.798   6.364  12.188 -0.0862 -0.0588  0.0237
16092W        W32226   9.621  11.236  12.909 -0.2465 -0.2924 -0.0277
16093W        W32227   8.252  14.875   0.641 -0.1827  0.3868 -0.4042
16094W        W32228  13.186  14.379   3.130  0.2233 -0.0092 -0.0774
16095W        W32229  10.406   9.711  11.896  0.0897  0.1326  0.1947
16096W        W32230   3.671   2.062  14.323  0.1386  0.4048 -0.0006
16097W        W32231  14.163  10.687  14.073  0.3618 -0.1723  0.0882
16098W        W32232   3.225   9.852  11.087  0.2363 -0.0340  0.0360
16099W        W32233  10.809   6.848   5.193 -0.0652 -0.2525 -0.7140
16100W        W32234   3.754   7.110  13.108 -0.0210  0.0472  0.0815
16101W        W32235   1.729  10.879   4.419  0.3282 -0.1976 -0.1720
16102W        W32236   1.088   5.971   0.946 -0.1954 -0.0036 -0.0330
16103W        W32237   5.208   6.358   3.964 -0.1019 -0.0925  0.0482
16104W        W32238   5.479   3.108   1.103 -0.0949 -0.3317 -0.0935
16105W        W32239  18.200  15.898  12.997  0.0313 -0.0107 -0.2263
16106W        W32240   7.747   9.123  12.854 -0.3694 -0.0138  0.1246
16107W        W32241   9.196  14.063   2.755  0.0745  0.0130 -0.1510
16108W        W32242   8.036   6.738  14.170 -0.0782  0.0457  0.1446
16109W        W32243  14.912   7.075  11.611 -0.1072 -0.0200 -0.0251
16110W        W32244   0.255   6.483   1.266  0.0158 -0.0209 -0.1358
16111W        W32245   7.594   4.387   2.979  0.1233  0.1046 -0.1703
16112W        W32246   8.551   6.569   5.012  0.1494  0.0136  0.1481
16113W        W32247   9.459  19.161   2.028 -0.2407  0.1244  0.3117
16114W        W32248   8.869  16.493  12.565 -0.2119  0.1903 -0.1023
16115W        W32249   9.117   2.700   2.970  0.1799 -0.0124 -0.0077
16116W        W32250  14.140   5.680   1.229  0.0561 -0.1312  0.0913
16117W        W32251   6.766   5.009  10.560 -0.3460  0.0918 -0.0308
16118W        W32252   7.248  14.506  12.477  0.0812  0.2287  0.2082
16119W        W32253   1.124  11.322   2.998  0.2785 -0.1859  0.0985
16120W        W32254  18.493  18.243   2.707  0.2914 -0.1242  0.2766
16121W        W32255   1.460  11.826   4.826 -0.1737 -0.1972  0.3018
16122W        W32256  13.369   8.979   1.662 -0.0675 -0.3382  0.4204
16123W        W32257   9.061   2.838  14.078  0.0729 -0.0573  0.2625
16124W        W32258  13.956  17.216   5.495 -0.0268  0.0633  0.1029
16125W        W32259  19.011  16.468   9.798 -0.0631  0.1073 -0.1272
16126W        W32260  10.950   8.350  12.218 -0.1021 -0.4132 -0.0969
16127W        W32261   8.600   5.715  13.497  0.1660 -0.1208 -0.1443
16128W        W32262   6.082  11.772  13.441 -0.2259  0.0991 -0.0239
16129W        W32263   2.236  17.859   0.258  0.0003 -0.1288 -0.1899
16130W        W32264  12.039   0.719  13.748 -0.2137 -0.2758  0.3021
16131W        W32265   0.376  16.404  14.229 -0.0871 -0.3551 -0.1714
16132W        W32266   2.178  10.522  12.713  0.1275 -0.1372  0.1802
16133W        W32267  13.814   0.914  14.179  0.2616 -0.1350 -0.0628
16134W        W32268   8.147   2.534  13.991 -0.5277  0.5818 -0.2642
16135W        W32269   6.189   3.222   1.301 -0.3618 -0.1484  0.2308
16136W        W32270   6.569  11.148   2.572 -0.2836 -0.0749 -0.0201
16137W        W32271   3.097   9.525   4.770 -0.1132 -0.1555  0.0750
16138W        W32272  17.659   2.173  13.544  0.1334 -0.0741 -0.3247
16139W        W32273   5.136   5.722   3.056  0.0752  0.0654 -0.1640
16140W        W32274  15.192   6.819   2.867 -0.0037  0.1402 -0.0380
16141W        W32275  11.851  16.120  13.043  0.0064  0.0491  0.2779
16142W        W32276   1.683   0.254  10.506 -0.3016 -0.0373  0.0438
16143W        W32277  17.952   7.457  11.066  0.1935  0.3493  0.0085
16144W        W32278  17.289   0.188   1.197  0.0350  0.2706  0.2961
16145W        W32279   1.183   0.524   1.150  0.0126  0.3891 -0.1024
16146W        W32280  14.728  15.995   2.370  0.0581 -0.3990  0.0720
16147W        W32281   1.781   9.464  10.431 -0.0268 -0.2468  0.1890
16148W        W32282  16.131  16.279   4.775 -0.2687 -0.3679  0.1983
16149W        W32283   3.025   9.031   1.485 -0.2333 -0.0764 -0.0726
16150W        W32284  11.015  10.616   2.675 -0.1559 -0.0055  0.1255
16151W        W32285  12.617  12.817  11.836  0.0081 -0.0154  0.4477
16152W        W32286  18.422  11.544   0.735  0.1483 -0.0812 -0.0859
16153W        W32287   6.012  12.025   3.080 -0.1849  0.3051  0.3230
16154W        W32288   3.049  16.020  13.073  0.0975 -0.0252 -0.1714
16155W        W32289   5.967  12.611  13.929  0.1707  0.0145 -0.0906
16156W        W32290  17.983  17.635   2.388  0.1289 -0.0885 -0.1790
16157W        W32291  11.736   7.276  11.538  0.2070  0.1528  0.0515
16158W        W32292  11.853  14.855   5.667 -0.1262 -0.2722 -0.3234
16159W        W32293   6.283   7.072   3.050 -0.0444 -0.1714  0.0310
16160W        W32294  18.427   5.466   1.767  0.1106 -0.3634 -0.2280
16161W        W32295   3.656  15.857   1.221  0.3585  0.0606 -0.0368
16162W        W32296  17.297  14.419   0.275 -0.1158  0.0406  0.0146
16163W        W32297   4.596  19.107   3.667 -0.2698 -0.0699 -0.1097
16164W        W32298  10.391   9.945  13.684 -0.2971  0.0917  0.1579
16165W        W32299   2.569   6.430   0.567 -0.0519  0.3893  0.0997
16166W        W32300  13.467  15.662  10.756 -0.0417 -0.4468 -0.0555
16167W        W32301  13.768   1.741   2.712  0.0503  0.2826  0.2616
16168W        W32302   0.896  16.107   3.169  0.1266 -0.0555  0.2096
16169W        W32303   2.428  14.309  11.834 -0.1766 -0.0908 -0.0736
16170W        W32304  15.582  19.292  14.748  0.1340  0.2055 -0.0840
16171W        W32305  18.855   7.024   4.566 -0.1403 -0.0488 -0.3754
16172W        W32306  16.138  17.150   0.901 -0.0208  0.2365 -0.1462
16173W        W32307  14.843   9.911   2.983 -0.0589  0.0135  0.0389
16174W        W32308   4.728   1.366  12.687  0.0515  0.0236 -0.0447
16175W        W32309   6.151   6.282  10.329  0.0836 -0.3266  0.1415
16176W        W32310  15.303  17.074   1.848  0.1713  0.1413 -0.1825
16177W        W32311  16.515  10.656   1.724  0.1349  0.3193  0.0148
16178W        W32312  11.858  17.731  10.913  0.0625  0.0947 -0.2802
16179W        W32313  13.438   6.234   1.782  0.6401 -0.0911  0.2040
16180W        W32314  18.916  10.255  10.671 -0.1384  0.0196  0.2759
16181W        W32315   7.929   2.891  13.624  0.1840  0.0129 -0.2010
16182W        W32316  16.981   6.017  12.388  0.2429 -0.1797 -0.0054
16183W        W32317  13.940   5.885  13.930 -0.2389  0.2061  0.0397
16184W        W32318  13.445   4.006  13.608  0.2025  0.1262  0.0435
16185W        W32319   1.071   8.751  10.782  0.1635  0.1652  0.4157
16186W        W32320  15.653  17.095   4.295 -0.0451  0.2788  0.2976
16187W        W32321   1.362  17.529   2.654  0.1854  0.1863  0.2273
16188W        W32322   1.395  15.963   0.310  0.0411 -0.1041 -0.0842
16189W        W32323   1.321   3.138   1.308 -0.1066  0.1833  0.1291
16190W        W32324  17.322  15.022   1.940 -0.2966 -0.0909 -0.0423
16191W        W32325   0.968   3.632   3.610 -0.0519  0.2950  0.0131
16192W        W32326   2.510  11.507  12.330 -0.1028 -0.1118  0.0418
16193W        W32327   5.766   5.558  10.891  0.1210  0.4591 -0.1220
16194W        W32328   9.187   9.077  13.192  0.3084  0.2367 -0.6224
16195W        W32329   0.941  18.443  12.014 -0.0315  0.0156 -0.1544
16196W        W32330  18.943   6.824   1.116  0.2391  0.1160 -0.4925
16197W        W32331   1.907  12.001  12.543 -0.0107 -0.5155  0.0063
16198W        W32332   1.002  13.082   3.532 -0.2391  0.1524 -0.2300
16199W        W32333   6.369   5.405   4.341  0.0279 -0.0169 -0.0584
16200W        W32334  12.258   1.988  13.432  0.2298 -0.0217  0.1944
16201W        W32335  19.018   7.194   3.942 -0.0300 -0.1555 -0.1769
16202W        W32336  14.411   1.846   4.783  0.0529 -0.4726  0.1850
16203W        W32337  11.477   5.833   2.140 -0.3673 -0.1851  0.0389
16204W        W32338   6.583  13.352   6.285 -0.2392 -0.2940  0.1525
16205W        W32339  15.796  13.113   4.611  0.0060  0.2386 -0.3839
16206W        W32340   0.055  12.960   1.687 -0.0092  0.0894 -0.0510
16207W        W32341   4.927   9.091  10.913  0.0767 -0.0541  0.1188
16208W        W32342  12.848  16.939   1.026 -0.2703 -0.0724  0.0375
16209W        W32343   0.722  10.847   1.644  0.1113 -0.2115  0.2679
16210W        W32344  14.962   0.082  14.611 -0.0488  0.2139  0.1278
16211W        W32345   9.060   4.773  13.575 -0.2334  0.1802 -0.3933
16212W        W32346  10.154   5.463  13.470 -0.0627  0.3903 -0.0800
16213W        W32347  16.954   0.599  12.107  0.0417 -0.0892  0.0702
16214W        W32348  10.918  13.126  13.130 -0.0248  0.1763 -0.3297
16215W        W32349  16.563  18.933  11.711  0.2550  0.1551 -0.0960
16216W        W32350  13.936   9.895   9.480 -0.2314  0.1419  0.3752
16217W        W32351   6.594  13.713   5.469  0.2000  0.0146  0.4077
16218W        W32352  12.124  15.282  11.736  0.0082 -0.5640 -0.2298
16219W        W32353   5.893   5.000  13.431 -0.0854 -0.2058  0.3212
16220W        W32354  18.949   1.361   1.541  0.1538 -0.0233 -0.0302
16221W        W32355   1.423   6.238  12.601 -0.0196 -0.1288  0.1743
16222W        W32356  14.085   8.086  11.095 -0.3261 -0.0158 -0.0794
16223W        W32357   4.410  19.231  11.080  0.1249  0.5018  0.0524
16224W        W32358  15.635  10.463   1.709 -0.0946 -0.1933 -0.6406
16225W        W32359   6.152  18.661  12.806 -0.0553 -0.1076 -0.0946
16226W        W32360  11.207   7.503  13.949 -0.0674  0.4582 -0.0989
16227W        W32361   2.708  13.362  12.082  0.2091 -0.0630 -0.0941
16228W        W32362  11.813  15.455   5.113  0.0131 -0.2947  0.2971
16229W        W32363  15.908   8.481   1.470  0.3339  0.0787  0.1757
16230W        W32364  18.526  18.242  12.485 -0.4777 -0.0255  0.0048
16231W        W32365   0.255   6.681   4.311  0.1103  0.0753 -0.2062
16232W        W32366   3.837   0.853   3.991 -0.1151 -0.3421 -0.0484
16233W        W32367  14.609   5.936   2.132  0.1225  0.1013  0.0928
16234W        W32368   1.242  15.227  11.177 -0.3036 -0.1018  0.4603
16235W        W32369  16.495  11.255   4.297 -0.1290 -0.0092  0.2586
16236W        W32370   7.650  15.164  11.610 -0.1003 -0.2132 -0.1624
16237W        W32371   2.884   8.235  11.259 -0.1348  0.3063 -0.0497
16238W        W32372   5.110   1.658   1.684  0.2984 -0.3490 -0.0034
16239W        W32373  11.735  15.877   3.699  0.0483 -0.2121  0.1110
16240W        W32374   0.099  15.978   4.021 -0.0699 -0.0117  0.0574
16241W        W32375  13.612  18.978  11.469  0.1205 -0.0675 -0.1333
16242W        W32376  12.942   3.470   0.034 -0.0899  0.1491 -0.0331
16243W        W32377  18.066   2.522   5.146 -0.0230  0.2311  0.1653
16244W        W32378   4.232  13.727   0.059  0.0142 -0.0955 -0.1745
16245W        W32379  19.182  18.575   4.595  0.0562 -0.1046  0.3389
16246W        W32380  10.659   3.160  13.761  0.1162  0.3214  0.0068
16247W        W32381  16.455   6.563   3.796  0.4256  0.2246 -0.2121
16248W        W32382  16.308   1.682  12.595  0.3166  0.0610  0.1206
16249W        W32383  19.334   0.901  13.885 -0.0542 -0.0212  0.1833
16250W        W32384  16.082  17.486   1.389  0.1834  0.0198  0.0951
16251W        W32385  16.520  10.582  10.945  0.0923 -0.2710 -0.3182
16252W        W32386   8.317  14.043   4.821 -0.1934  0.1115 -0.3271
16253W        W32387  17.210   0.310  12.592 -0.0859 -0.1808 -0.0000
16254W        W32388   6.342  14.194  14.798 -0.2825 -0.0667  0.0341
16255W        W32389   5.845   7.921   2.079 -0.0522 -0.1832  0.0509
16256W        W32390   9.166  13.182  12.401 -0.5830  0.2740 -0.1335
16257W        W32391   6.062   7.049  11.629 -0.1502  0.1825  0.0967
16258W        W32392   5.347   7.350   0.270  0.2534  0.1986 -0.4640
16259W        W32393  16.845  18.683   3.536 -0.0576  0.0306 -0.0015
16260W        W32394  18.574  15.364   2.943  0.1057  0.0950 -0.1046
16261W        W32395   6.589  15.170  10.634  0.1111 -0.0876  0.3884
16262W        W32396  10.175  19.252   4.197 -0.2349  0.2108  0.0575
16263W        W32397   2.615   5.269   4.646  0.0970 -0.3397 -0.4754
16264W        W32398  13.007   8.102   0.201  0.0715  0.0060 -0.0206
16265W        W32399  14.832  16.926  11.338  0.3755 -0.2032  0.2302
16266W        W32400  10.606  10.989   0.013  0.2104 -0.0656 -0.0297
16267W        W32401  12.123   8.620   4.584 -0.1280  0.1958 -0.0793
16268W        W32402  19.232  18.900   2.728  0.0206  0.0288  0.0958
16269W        W32403   9.039   9.927   0.205 -0.2000  0.2144 -0.2433
16270W        W32404  17.508   9.127   2.842  0.2466  0.0739  0.2299
16271W        W32405  10.858   5.332  12.296 -0.1985  0.0212 -0.0681
16272W        W32406   1.067  10.521   3.964 -0.1261  0.2336 -0.1915
16273W        W32407   2.152   4.732  14.778  0.2549  0.0337 -0.0374
16274W        W32408  16.405  12.329  11.756  0.1837 -0.0501 -0.2407
16275W        W32409   2.896  18.692   0.647 -0.1760 -0.2590 -0.1719
16276W        W32410   8.850  18.142   2.186 -0.1943  0.4733  0.0388
16277W        W32411   0.300  17.458   1.679 -0.0774  0.2735  0.2094
16278W        W32412  14.899   1.569  12.738  0.1609 -0.1765 -0.2865
16279W        W32413  11.953   1.020   3.947  0.1610  0.0013 -0.0872
16280W        W32414  15.765   5.094   5.239  0.0091 -0.3276 -0.1448
16281W        W32415   0.105   7.868  11.876  0.2805  0.0723  0.0399
16282W        W32416   5.331  12.186  11.362 -0.3384  0.1709 -0.0881
16283W        W32417  12.851  12.207   4.502  0.0200  0.0435 -0.0871
16284W        W32418   0.194   8.990  13.381  0.2742  0.0793 -0.1609
16285W        W32419   4.345  18.783  14.580 -0.1337  0.1069 -0.2568
16286W        W32420  14.308   0.509  14.661 -0.3626  0.0734  0.1240
16287W        W32421   3.507   9.887   1.281 -0.0401 -0.2349 -0.0035
16288W        W32422  11.331   5.812  13.150 -0.4415 -0.2530  0.0048
16289W        W32423  18.844   7.526   3.564 -0.2108  0.2075 -0.0265
16290W        W32424  12.061   7.571  13.466  0.1895  0.3334  0.0660
16291W        W32425   9.391  18.869   1.597 -0.0977 -0.0074 -0.0584
16292W        W32426   8.702  12.323  10.749 -0.1589 -0.1774  0.2263
16293W        W32427   1.825  12.847   0.317 -0.2569  0.1178 -0.3177
16294W        W32428  18.016  12.326   3.543  0.2405  0.1664 -0.2133
16295W        W32429   7.390   2.638  13.984 -0.1714 -0.1428 -0.0487
16296W        W32430   8.531  15.929  13.723  0.1958  0.0163  0.1893
16297W        W32431   9.261   1.669   2.741  0.1675 -0.1123 -0.0394
16298W        W32432  18.455   5.267   4.787  0.1224 -0.0377 -0.2127
16299W        W32433   1.345  14.960   0.431  0.2265  0.2461 -0.1392
16300W        W32434  12.613   1.965   3.187 -0.0611  0.2900  0.6447
16301W        W32435   9.081   9.778  14.614  0.2846 -0.1719  0.0937
16302W        W32436  18.451   7.216  13.946 -0.2362  0.2304  0.1041
16303W        W32437   3.492   9.995   9.115 -0.0730  0.1797 -0.1976
16304W        W32438  18.191   6.159   4.512 -0.1828 -0.2310 -0.0103
16305W        W32439  13.002   3.509   1.545 -0.0410 -0.0522 -0.1165
16306W        W32440  11.330  16.557  14.079  0.3124 -0.1374  0.1379
16307W        W32441  12.489  17.321  12.724  0.0249  0.4360  0.1921
16308W        W32442   7.359   1.344   0.168 -0.1793  0.1455  0.1281
16309W        W32443  12.368  12.596  14.849  0.2389  0.1199  0.2301
16310W        W32444  10.811   2.902   0.389  0.3785 -0.0042 -0.3156
16311W        W32445   3.470   1.423   1.560 -0.3061 -0.1498 -0.2233
16312W        W32446   4.901  11.278  12.380  0.0944 -0.2459  0.0187
16313W        W32447  14.625  17.058   3.208  0.0446  0.1476  0.1701
16314W        W32448   7.591  14.572   1.093  0.0738  0.1252 -0.1862
16315W        W32449  15.937  10.311  10.667 -0.0913 -0.2796 -0.2653
16316W        W32450   4.469   6.518   4.349  0.0634 -0.1846  0.1514
16317W        W32451  15.416   4.999   0.389  0.3638 -0.3926  0.1526
16318W        W32452   2.491   3.556  14.518 -0.0611 -0.2531 -0.0270
16319W        W32453   3.920  16.334   3.959  0.2932  0.1503 -0.0884
16320W        W32454   6.388   6.983  14.882 -0.0585  0.1527 -0.0164
16321W        W32455   2.365   2.494   3.717  0.4015  0.5748 -0.0872
16322W        W32456   4.565  13.786   4.221 -0.1749  0.2046 -0.1118
16323W        W32457  13.185  17.937   1.293  0.1702  0.0884 -0.1161
16324W        W32458   2.733  12.813  11.489 -0.0304  0.2782 -0.0486
16325W        W32459   8.845   3.274   2.423 -0.0618  0.2227  0.0963
16326W        W32460  14.383  11.973  11.666 -0.2120  0.0650  0.0790
16327W        W32461  14.339  18.600  11.699 -0.0673  0.3137  0.3821
16328W        W32462   8.857  11.777   0.186  0.1039  0.1415 -0.1669
16329W        W32463  11.786  12.715   4.227  0.1881 -0.1288 -0.0415
16330W        W32464  16.416  10.763   5.057  0.0692 -0.0107  0.0791
16331W        W32465   3.571   6.380   2.732  0.0073  0.3167 -0.0361
16332W        W32466   2.091   3.795  14.731 -0.0166 -0.0585  0.0392
16333W        W32467   5.725   0.088   0.966 -0.1065 -0.0316 -0.2890
16334W        W32468  16.572  18.602   5.571  0.2048 -0.1317 -0.2156
16335W        W32469   4.788   0.250  12.933  0.0772 -0.1983 -0.2364
16336W        W32470  10.137  13.725  12.131  0.1780  0.0199  0.1348
16337W        W32471   0.626  11.635   0.681 -0.0815 -0.2850 -0.0512
16338W        W32472   8.092  17.142  12.412  0.0101  0.0198  0.1088
16339W        W32473  14.430  13.529   9.934  0.1401 -0.0402  0.0139
16340W        W32474   2.554   7.820  11.446  0.2544 -0.3019 -0.2209
16341W        W32475   9.167   6.162   1.530  0.0963  0.2060 -0.1477
16342W        W32476   6.822  16.053  12.535  0.1545 -0.2873  0.1579
16343W        W32477  16.063  15.815   1.422 -0.0733 -0.4672  0.0252
16344W        W32478  18.623  13.836  13.433  0.0366 -0.0163 -0.4066
16345W        W32479   7.612   1.912  12.906  0.1763  0.2588  0.0768
16346W        W32480   5.612   2.936  11.081 -0.0884  0.1525 -0.0018
16347W        W32481   7.893  15.388   3.166 -0.2569  0.0222  0.0429
16348W        W32482  12.159  11.104   3.707  0.2234  0.2251 -0.3279
16349W        W32483  14.558   5.054   4.518  0.0726  0.3029 -0.0612
16350W        W32484  16.365   1.940  13.395 -0.3330  0.0446 -0.0049
16351W        W32485   9.233  18.424  10.857 -0.1222  0.1553 -0.0778
16352W        W32486  11.749   6.262  11.176  0.0513  0.1390  0.2970
16353W        W32487  19.344  13.787  11.337 -0.0439  0.1700  0.2106
16354W        W32488  15.056  12.339  11.489 -0.2424 -0.3544 -0.0471
16355W        W32489   1.081   3.887   0.912 -0.1379 -0.2665  0.3645
16356W        W32490  19.240  11.014  12.405 -0.1395  0.2548  0.2776
16357W        W32491   9.396  12.613  12.523  0.1226  0.0764 -0.0387
16358W        W32492   9.338  16.598   2.879 -0.0190  0.2134  0.1167
16359W        W32493  16.818  12.626  14.786  0.2012 -0.2298 -0.1675
16360W        W32494  10.931  17.579   3.629 -0.2643  0.1705  0.0352
16361W        W32495   2.448  18.264  11.207 -0.0498  0.1871 -0.1893
16362W        W32496  14.630  10.461   4.252 -0.3423  0.0973 -0.0604
16363W        W32497   2.154  10.988   1.347 -0.3444  0.0999  0.0044
16364W        W32498   3.973   8.292   1.359  0.1876  0.2734 -0.0016
16365W        W32499  11.309  11.699   5.641  0.0227 -0.0092 -0.0033
16366W        W32500  10.064  19.352   3.280  0.0467  0.0487  0.1193
16367W        W32501  14.869   5.435   4.299  0.2187 -0.0398  0.0065
16368W        W32502  15.999   1.639  14.922 -0.0491  0.0215 -0.2371
16369W        W32503  19.083   5.537   0.109 -0.1994 -0.2254 -0.1265
16370W        W32504   5.325   2.541   2.745  0.1249 -0.0178 -0.2325
16371W        W32505   9.329  11.408   0.909  0.1410 -0.2420  0.1533
16372W        W32506   3.695  15.347   1.230  0.0058  0.3238  0.1287
16373W        W32507  15.013   4.442  13.736 -0.0751  0.3695 -0.0117
16374W        W32508   3.597  18.648   5.395 -0.0981  0.1051 -0.1215
16375W        W32509  12.505   1.622  12.410  0.0329 -0.2904 -0.2996
16376W        W32510  16.650  15.487   0.864 -0.1373 -0.0008  0.0912
16377W        W32511  19.064   3.235  12.407  0.1212  0.2708 -0.2422
16378W        W32512   3.786   4.535   0.816  0.0769  0.0354 -0.4209
16379W        W32513   2.879   4.974   1.329  0.0601  0.1511  0.0665
16380W        W32514  18.008  10.640  14.048 -0.5189 -0.5220  0.0741
16381W        W32515  17.410   1.456   1.696 -0.0740  0.3647  0.0529
16382W        W32516  16.693   3.554  12.195  0.0470 -0.0913  0.2867
16383W        W32517   5.261   6.343   1.228 -0.0301  0.1134  0.0891
16384W        W32518  18.397  18.089   4.631 -0.1163  0.0133  0.3125
16385W        W32519  18.060   7.613   0.347  0.1818 -0.0316 -0.3111
16386W        W32520   8.908   5.351   4.910  0.0571 -0.1569  0.1063
16387W        W32521  10.956  11.459   1.541  0.0888  0.0431 -0.1178
16388W        W32522   0.573   8.393   1.462 -0.0933  0.0920  0.1718
16389W        W32523  13.497  15.342  12.096 -0.3470  0.3584 -0.0456
16390W        W32524   1.331  18.990   2.652  0.0165  0.1543 -0.0708
16391W        W32525   0.873  14.636   3.296  0.1149  0.0932  0.4737
16392W        W32526   6.399  17.917   0.535  0.3245 -0.0270 -0.1989
16393W        W32527  12.114  17.833  14.263 -0.0249 -0.1751 -0.0337
16394W        W32528  18.864   5.776   3.204  0.1409  0.0772  0.0692
16395W        W32529  17.270  17.745  12.433  0.2353 -0.3000  0.1772
16396W        W32530  10.822  10.560   1.302  0.0907 -0.1276  0.0882
16397W        W32531  14.735  15.442  11.502  0.0020  0.2159  0.1492
16398W        W32532   0.347   5.587   5.337  0.5274  0.0465  0.2583
16399W        W32533  10.633   9.642  14.890 -0.1512 -0.0553  0.1230
16400W        W32534  11.684   0.543   3.810  0.2439 -0.1932 -0.0873
16401W        W32535  16.018  12.730  11.526 -0.0207  0.0120  0.1077
16402W        W32536   7.731  17.192  14.081 -0.1377 -0.2059  0.1496
16403W        W32537   5.194   8.884   1.230 -0.2607 -0.1150  0.0900
16404W        W32538  13.497   9.474   5.126 -0.1024  0.0850 -0.1085
16405W        W32539   6.548   4.403  12.138 -0.0608 -0.1211  0.1938
16406W        W32540  15.821  11.253  11.740 -0.1309  0.1578 -0.4837
16407W        W32541   8.622  11.519  13.884  0.3148  0.1209 -0.2406
16408W        W32542  10.351  12.073  12.080 -0.3110 -0.0355  0.0769
16409W        W32543   4.288  18.434   0.203  0.1091  0.1199 -0.1863
16410W        W32544   8.364  16.152   0.277  0.0850  0.0763  0.2448
16411W        W32545   4.069  14.832  12.716 -0.2745  0.1919  0.1611
16412W        W32546  14.449   1.557  12.964 -0.3518  0.0541  0.0858
16413W        W32547  11.862  16.720  10.970  0.2306  0.2239  0.1222
16414W        W32548   1.435  18.534   3.588 -0.3641  0.0468 -0.1363
16415W        W32549  13.982  14.975   1.002 -0.1416  0.5349 -0.0173
16416W        W32550  15.185  16.288   4.689  0.0605 -0.3509 -0.0691
16417W        W32551  15.617  10.254   3.319 -0.1737 -0.1589  0.2504
16418W        W32552  11.480  15.737  11.638  0.0990  0.4089 -0.1914
16419W        W32553   0.325   4.964  13.518  0.0774 -0.1143  0.4661
16420W        W32554  11.902   4.908   0.949 -0.2675  0.1753  0.1428
16421W        W32555  13.600  10.206  12.066 -0.2532 -0.0503 -0.3196
16422W        W32556   2.962  12.419   1.702 -0.2446  0.4022 -0.0690
16423W        W32557   7.823  10.103  14.828 -0.0551  0.1139  0.2280
16424W        W32558  16.231   9.493   0.071 -0.1536 -0.0748  0.2450
16425W        W32559   7.298  11.905   4.602 -0.0240  0.1985 -0.2108
16426W        W32560   5.715  16.978  11.970 -0.1664 -0.0763 -0.1110
16427W        W32561  18.983   4.739   2.528  0.1638  0.1981 -0.0867
16428W        W32562  18.060  12.920   2.168  0.0359 -0.4152  0.1576
16429W        W32563   1.856  17.325   4.931  0.0701  0.0598 -0.0109
16430W        W32564  16.827   4.694  13.210  0.1780 -0.0594  0.1197
16431W        W32565   9.315   9.633  12.475  0.0523 -0.0591  0.1253
16432W        W32566  19.005   5.930   4.364 -0.0471  0.0971 -0.0972
16433W        W32567  17.874   6.281  11.747  0.0463 -0.0279  0.2231
16434W        W32568   3.985   6.682   1.799  0.1474  0.1537  0.0089
16435W        W32569   6.040   2.676  12.298 -0.3746 -0.3464  0.0958
16436W        W32570  14.410  10.484  10.372 -0.0985 -0.3013  0.2715
16437W        W32571   2.827   9.751   0.473 -0.0965  0.0373 -0.0689
16438W        W32572   9.461  12.568   2.487 -0.4378 -0.0043  0.0302
16439W        W32573   6.853  16.124  14.350  0.0973  0.1654  0.1268
16440W        W32574   7.872  13.716  11.610 -0.0196  0.1769 -0.0907
16441W        W32575   0.022   9.672   4.348  0.1785  0.1766  0.1058
16442W        W32576   4.956  14.567   3.464  0.2764  0.2534 -0.0150
16443W        W32577   8.094   4.815   4.529  0.0309  0.1496  0.3189
16444W        W32578  14.690   0.945   1.591  0.2414  0.0303  0.2030
16445W        W32579   7.779   6.883  11.950 -0.0003  0.1274  0.0885
16446W        W32580   0.580   2.550   1.674 -0.2281 -0.0609 -0.1969
16447W        W32581  15.562   9.755   0.670 -0.0674  0.2142 -0.0314
16448W        W32582  16.074  18.979   3.044  0.2330  0.1679 -0.0081
16449W        W32583  15.026   2.546   1.338 -0.1741 -0.1214 -0.3339
16450W        W32584  11.603   1.159   4.815 -0.0520  0.0494  0.0423
16451W        W32585   8.991   5.617   0.067  0.2194 -0.0655 -0.0091
16452W        W32586   8.679  17.632   2.027 -0.1375  0.2470 -0.0723
16453W        W32587  17.699  12.815   2.578 -0.0814  0.0484  0.1526
16454W        W32588  16.773  13.289  11.434 -0.2442 -0.3857  0.4707
16455W        W32589   8.610   8.953  12.454 -0.0827 -0.2462  0.1128
16456W        W32590   6.851   1.601   3.347 -0.1861  0.0963 -0.2679
16457W        W32591  10.932  19.300   2.716  0.2761 -0.0764  0.0758
16458W        W32592  10.972   2.803   3.620  0.1812  0.1753 -0.1866
16459W        W32593  18.996  13.102   0.245 -0.0189 -0.1919 -0.2372
16460W        W32594   6.545   9.525   0.043 -0.0768  0.0339  0.1061
16461W        W32595   8.621   8.201   4.564  0.0391  0.2527 -0.1047
16462W        W32596  19.235  12.659   4.249  0.4234 -0.2228 -0.0059
16463W        W32597   7.119  14.652  14.810  0.0993 -0.1941  0.2075
16464W        W32598  18.059  13.050  13.309  0.0537  0.0491 -0.1261
16465W        W32599   7.119  18.343  14.642  0.0398 -0.0861  0.0562
16466W        W32600   8.672  18.777   0.865 -0.0436  0.0631  0.1130
16467W        W32601   9.393   0.465   1.249 -0.0789  0.0757 -0.0410
16468W        W32602   9.680   4.745   3.138 -0.0170 -0.2093 -0.0313
16469W        W32603   8.933   2.942  14.538 -0.0838 -0.2012  0.1480
16470W        W32604  10.431  17.695   3.984 -0.3094  0.3556 -0.1048
16471W        W32605  17.942   7.515  13.553 -0.0187 -0.0047 -0.0937
16472W        W32606   6.495   1.636  13.360 -0.0286  0.2704  0.2113
16473W        W32607  13.407  18.238   0.876 -0.0724  0.1337  0.0934
16474W        W32608  16.840   3.780   4.552 -0.3286  0.1563 -0.1870
16475W        W32609  15.111  10.326   2.988  0.0284 -0.1003  0.1724
16476W        W32610  18.761  16.886  14.768 -0.1105  0.0620  0.0845
16477W        W32611  18.175  17.408  14.864 -0.0326  0.0487  0.0961
16478W        W32612  13.357   4.546   3.588  0.1909 -0.4369 -0.2634
16479W        W32613  11.688   9.022  14.356 -0.1620 -0.3148 -0.1083
16480W        W32614   4.272   4.056  11.783  0.0424 -0.0561 -0.0551
16481W        W32615   8.595  18.919  12.432  0.1178 -0.0797  0.0362
16482W        W32616   9.233  13.988  12.596  0.2217  0.0221 -0.0620
16483W        W32617  12.085   0.545   4.536  0.1783 -0.2074  0.2043
16484W        W32618   4.297  13.589  10.981  0.1400  0.0609 -0.0879
16485W        W32619   0.431  15.819   4.339  0.1431  0.1649 -0.0331
16486W        W32620  16.635  10.052  11.092  0.0739 -0.1905  0.1333
16487W        W32621  10.863   1.783   2.994 -0.0567 -0.0314  0.1421
16488W        W32622   1.647   1.123   4.622  0.1000  0.0402  0.1076
16489W        W32623   2.957   4.574  14.543 -0.0060  0.2009  0.0341
16490W        W32624   4.212  10.034  14.802 -0.3951 -0.2182  0.1154
16491W        W32625   2.176   0.438  10.451 -0.1527 -0.1063  0.2471
16492W        W32626   3.020  12.450  11.046 -0.1645  0.2419 -0.2399
16493W        W32627   9.107   5.471   1.506 -0.1412  0.2116  0.3600
16494W        W32628  19.344  12.028  12.344 -0.1789 -0.1764  0.1325
16495W        W32629   3.791   3.077   2.155 -0.2987  0.0790  0.2988
16496W        W32630  15.482  11.018   2.759  0.0403  0.0506  0.0892
16497W        W32631   0.541   9.106   4.294 -0.0481  0.1235 -0.2957
16498W        W32632   6.129  17.808   2.009 -0.2286 -0.1657 -0.1968
16499W        W32633  14.817  16.916   1.952  0.1716  0.0349  0.1854
16500W        W32634   9.005  11.815  13.998  0.1203  0.2033 -0.2477
16501W        W32635   6.690  16.536  12.720 -0.0265 -0.1304  0.0571
16502W        W32636   8.587   1.745  14.473  0.0510  0.0839 -0.4042
16503W        W32637  18.317   8.073   0.240 -0.2690  0.2232  0.2341
16504W        W32638  18.448  16.396  13.565 -0.0317  0.0988  0.0923
16505W        W32639   7.153   5.152   3.544  0.0193 -0.0289 -0.0602
16506W        W32640  17.413   9.655   3.789  0.1139  0.2556 -0.0834
16507W        W32641  18.255   8.144  12.997 -0.0024  0.1335  0.6384
16508W        W32642  11.110   3.814   3.093  0.0346 -0.0797  0.0998
16509W        W32643   3.173  14.090  11.216 -0.1543 -0.0262 -0.4000
16510W        W32644  13.714  16.387  11.412  0.0836 -0.3092  0.0452
16511W        W32645   8.680  17.587   5.342  0.1934  0.1110  0.1611
16512W        W32646  18.387   0.952   1.036 -0.3478 -0.1953 -0.0169
16513W        W32647  15.016   3.168   2.318 -0.2712  0.1362  0.0555
16514W        W32648   6.038   4.265  11.454 -0.1120  0.1526 -0.0744
16515W        W32649   3.904   2.708   2.527  0.1567  0.3554  0.0106
16516W        W32650   9.782   5.279  13.827  0.3682 -0.0069 -0.0564
16517W        W32651  10.659   7.348  14.014  0.2602  0.0153 -0.2056
16518W        W32652  13.506   9.902   3.467 -0.2112  0.0074 -0.0420
16519W        W32653   3.374  18.445  12.433 -0.1971 -0.1248 -0.0910
16520W        W32654   0.831  13.108  10.148 -0.1484  0.2904 -0.0197
16521W        W32655  11.766  17.578   4.715  0.1600 -0.0945 -0.3050
16522W        W32656   3.271  14.626   0.893  0.1686 -0.2557 -0.3300
16523W        W32657   7.196  15.761   1.920 -0.4262 -0.2998  0.1752
16524W        W32658   1.339   7.665  12.341  0.2605  0.1565  0.0010
16525W        W32659  19.279   9.767   0.360  0.4366  0.1463 -0.0565
16526W        W32660  15.527  13.974  10.685  0.0523  0.1590 -0.1211
16527W        W32661  11.749  12.128  14.108  0.2142  0.1937 -0.2175
16528W        W32662  10.682  13.710   0.374 -0.1099 -0.0513  0.0035
16529W        W32663   0.513   4.156  13.387 -0.3324  0.0938 -0.0618
16530W        W32664   1.696  16.834  13.664 -0.0686 -0.0300  0.2274
16531W        W32665  13.073   0.447   3.453 -0.0899 -0.1364  0.2976
16532W        W32666   3.406  10.650   0.475  0.0714 -0.1976 -0.2004
16533W        W32667   3.491  14.051   9.438  0.1666  0.4039 -0.1491
16534W        W32668  15.699  17.816   5.171 -0.3144  0.0030  0.1464
16535W        W32669  15.588  18.752   4.967  0.3241 -0.1758 -0.0490
16536W        W32670  18.357   7.512   9.803 -0.0194 -0.1305  0.0828
16537W        W32671   2.965   6.294   1.163  0.1487 -0.4842 -0.0750
16538W        W32672   3.122   5.082   1.756 -0.0490 -0.0199 -0.4053
16539W        W32673   5.260  10.132   3.511  0.3076 -0.0432  0.1877
16540W        W32674   3.605   5.039  14.540 -0.0634 -0.1879  0.2072
16541W        W32675  13.839   4.025  13.292  0.0801  0.2772  0.2539
16542W        W32676   5.041   8.170   0.527 -0.2186 -0.0707  0.0634
16543W        W32677  11.959  11.566   2.233 -0.0829 -0.0793  0.3748
16544W        W32678  12.105  16.669  11.712  0.0414 -0.1877  0.2432
16545W        W32679  16.952  15.895   2.331  0.2904 -0.2854 -0.2242
16546W        W32680   2.160   0.038  12.675 -0.1258 -0.2717 -0.2564
16547W        W32681   3.368  19.126   3.716  0.0157 -0.0964 -0.1785
16548W        W32682   3.848  16.227   1.488 -0.1361  0.1139  0.1107
16549W        W32683  12.320  13.757   5.193 -0.0480  0.1458  0.0173
16550W        W32684  15.211   6.808  12.391  0.1650 -0.0542 -0.0558
16551W        W32685  16.617   2.761  13.400  0.0857 -0.0114  0.1616
16552W        W32686   3.900   1.346  13.369 -0.1013 -0.1043 -0.1273
16553W        W32687   8.130   6.400   3.575 -0.1488  0.2540 -0.1759
16554W        W32688  15.837  14.302  11.723  0.0902  0.0411  0.0948
16555W        W32689  11.794  11.278  13.936  0.2288  0.2068  0.0071
16556W        W32690   2.295  17.910   3.930 -0.0820 -0.3096  0.3338
16557W        W32691   8.711   0.045  12.369 -0.1021 -0.2809  0.1199
16558W        W32692   9.318   2.876   0.629 -0.0530 -0.0634 -0.4272
16559W        W32693   1.818   2.044   3.226  0.1614 -0.4377 -0.1279
16560W        W32694   0.204  13.975  13.579 -0.0143  0.1504  0.0050
16561W        W32695  15.896  13.881  11.995 -0.0969 -0.0715 -0.2665
16562W        W32696   9.265  13.065   3.135 -0.1731  0.0423  0.1834
16563W        W32697  13.249  17.029  10.859 -0.0047  0.1981  0.0510
16564W        W32698   0.710   3.145  14.314  0.2830  0.0534 -0.3175
16565W        W32699  15.987  12.533  14.316  0.0031  0.0391  0.3755
16566W        W32700   9.579   0.709  12.520 -0.1761 -0.0635 -0.0985
16567W        W32701   4.505  17.721   1.784  0.0386 -0.0166  0.1679
16568W        W32702   9.115   6.516  13.905  0.0125 -0.2720  0.3805
16569W        W32703  10.423   8.097  13.971  0.2050  0.0054  0.2236
16570W        W32704   3.552  17.266   5.077 -0.4252  0.3972  0.0376
16571W        W32705  13.580  16.197  13.530  0.0691  0.1073  0.2397
16572W        W32706   2.699  10.953   1.436 -0.1300 -0.1187 -0.0606
16573W        W32707  15.982  12.271  10.797 -0.0960 -0.3326 -0.1793
16574W        W32708   5.836  18.897   2.333  0.3541 -0.1226  0.2237
16575W        W32709  18.654   2.695   2.974  0.3762  0.3061 -0.1418
16576W        W32710  15.051   6.380  12.133  0.3343 -0.0004  0.0627
16577W        W32711   8.205   1.630   0.227  0.0280 -0.2807  0.1936
16578W        W32712   6.037  10.444  10.193  0.1381 -0.1802  0.2560
16579W        W32713   7.815   7.509  10.938  0.2661  0.3353 -0.0969
16580W        W32714   4.261   1.553  12.845 -0.1899  0.1115 -0.2581
16581W        W32715   8.545  16.517   1.222  0.2962 -0.1654  0.1821
16582W        W32716   8.157   8.467  13.673 -0.1533 -0.2605  0.0905
16583W        W32717  18.693  16.951   5.238 -0.2086 -0.1730 -0.2098
16584W        W32718  19.243   9.959  10.400 -0.0869 -0.0579  0.1321
16585W        W32719  12.967  14.081  10.966 -0.1833 -0.0030 -0.2079
16586W        W32720   1.491  13.565  10.955  0.0545  0.1777 -0.0784
16587W        W32721   2.611  12.500   3.677 -0.0864 -0.0600 -0.0854
16588W        W32722   1.059   8.308  13.448  0.2249 -0.4415  0.1336
16589W        W32723   2.548   8.290   3.398  0.0906 -0.0437  0.0472
16590W        W32724   1.668   4.834  10.663  0.1389 -0.5078  0.1730
16591W        W32725   8.631   9.105   4.252 -0.1090 -0.2787  0.2017
16592W        W32726   5.325  12.655   1.643  0.0477 -0.0003 -0.0767
16593W        W32727  14.784   3.032   3.236  0.1826 -0.2124  0.1261
16594W        W32728   8.556  11.198   4.087  0.3522  0.0593  0.2457
16595W        W32729   3.325   0.449  14.637 -0.1603  0.1454  0.1385
16596W        W32730   5.731  13.985   0.684 -0.0579  0.4161 -0.1294
16597W        W32731  17.753   6.225   4.078  0.0474 -0.1444 -0.2295
16598W        W32732   4.283  11.121  14.959 -0.1614 -0.1573 -0.0817
16599W        W32733   1.318  17.187  14.558  0.1747  0.0823  0.2031
16600W        W32734   3.338   2.069   0.794 -0.3900 -0.1301  0.2761
16601W        W32735  11.777  18.547   4.624 -0.0471  0.2331  0.1541
16602W        W32736  15.358   9.601  14.120 -0.0730  0.3520 -0.2579
16603W        W32737  12.226   7.060  14.421 -0.2889  0.0203 -0.1257
16604W        W32738  13.922  11.311   4.301 -0.2134 -0.0600  0.0417
16605W        W32739  12.865   8.552   5.187 -0.0234 -0.0975  0.0679
16606W        W32740   0.869   7.820  13.664 -0.1385  0.0237 -0.0106
16607W        W32741   5.749   2.395   3.817 -0.0776  0.3256  0.0544
16608W        W32742   9.501   6.941   9.203  0.0926 -0.0773 -0.1126
16609W        W32743   2.620   7.753  13.284 -0.3043  0.1180  0.1999
16610W        W32744   3.828  13.572   1.819 -0.0653 -0.0415 -0.2215
16611W        W32745  16.758  15.102  13.790 -0.0114 -0.3117 -0.2238
16612W        W32746   5.805   8.118  10.736  0.2446 -0.1024 -0.2314
16613W        W32747   7.727  16.128   1.047 -0.1880 -0.2306 -0.1947
16614W        W32748   2.835   7.300  13.408  0.1368  0.1989 -0.3365
16615W        W32749   7.521   1.141  14.102  0.0865  0.0354  0.3273
16616W        W32750  14.173   5.547  10.739 -0.0575  0.0664  0.2098
16617W        W32751  16.336  12.370   9.657 -0.2275 -0.2509 -0.2436
16618W        W32752  10.995   7.282   1.211 -0.0189 -0.4023  0.2733
16619W        W32753  10.026  13.821   3.917  0.0852  0.2399 -0.0354
16620W        W32754   3.005   7.415   0.026 -0.0940  0.3617 -0.0670
16621W        W32755   5.871   6.635  14.598  0.1998 -0.3680 -0.3657
16622W        W32756  12.596  13.834  11.146  0.1298 -0.1331 -0.2755
16623W        W32757   5.426   6.242   3.141 -0.0651 -0.0692 -0.1752
16624W        W32758  15.867  16.244   0.633  0.0473 -0.2084  0.1048
16625W        W32759   6.783   7.571  10.143  0.0084  0.0871 -0.0991
16626W        W32760   0.069   8.742  10.701 -0.2775  0.2061 -0.0962
16627W        W32761   8.555   2.914   4.030  0.1177  0.0939  0.5483
16628W        W32762   6.374  14.152   1.591 -0.1806 -0.0300 -0.2602
16629W        W32763  13.110   0.020   1.423 -0.0047 -0.2657  0.2309
16630W        W32764   8.740  11.510  12.108  0.3700  0.2242  0.2123
16631W        W32765   7.845   0.987   4.042 -0.0115  0.0338  0.1656
16632W        W32766  11.688   5.594   0.801 -0.0744  0.0398  0.1793
16633W        W32767  19.096   4.570  10.791  0.0484 -0.0969  0.3481
16634W        W32768   0.380  14.723  13.911  0.0453 -0.1763  0.2739
16635W        W32769  10.221  15.761   0.139  0.0577  0.0180 -0.0117
16636W        W32770   4.760  10.574   2.202 -0.1112 -0.1779 -0.1385
16637W        W32771   9.204   8.272  10.436  0.2023  0.2780  0.2047
16638W        W32772  19.155  17.462   1.235 -0.0830  0.2473 -0.0730
16639W        W32773   2.980  10.553   4.909 -0.0553 -0.0132  0.1687
16640W        W32774  13.768   6.825   0.918  0.1143 -0.0274 -0.0850
16641W        W32775  15.649   1.939   0.115 -0.1851 -0.1891 -0.2365
16642W        W32776   5.349   1.386  14.055  0.2689 -0.0571  0.3837
16643W        W32777  16.251  11.081   2.454 -0.2459 -0.1836  0.0377
16644W        W32778   4.993   1.883   2.185  0.0645 -0.1496 -0.1581
16645W        W32779   6.891  14.304   0.720  0.0759  0.2623  0.0545
16646W        W32780   0.861   1.745  13.904  0.1043 -0.0612 -0.0894
16647W        W32781   8.981  13.602   0.021 -0.4053 -0.0562 -0.0824
16648W        W32782   7.641  11.889   5.064 -0.0420 -0.1769 -0.1953
16649W        W32783   4.377  14.076   9.276  0.1363 -0.5053 -0.2230
16650W        W32784   0.390  17.989  14.048  0.3010  0.1426  0.4739
16651W        W32785   8.324   8.470  10.057 -0.3827 -0.1143 -0.0879
16652W        W32786   7.857   4.201  11.714 -0.0838  0.2694 -0.3855
16653W        W32787  18.100   2.258  10.632  0.0555 -0.0605  0.1874
16654W        W32788   8.033   4.982   3.112 -0.1285  0.2002 -0.1036
16655W        W32789  19.154   4.165   4.631  0.3566 -0.0510 -0.0116
16656W        W32790  19.081   0.089   1.076  0.1953  0.2612  0.3630
16657W        W32791   1.074  10.459  10.759  0.1882  0.1546  0.2591
16658W        W32792   3.924   5.306  12.920 -0.1231 -0.1228  0.1970
16659W        W32793  14.778  10.778   4.630  0.1391 -0.0020  0.1711
16660W        W32794   5.789  18.711   4.989  0.0261  0.1050  0.0090
16661W        W32795  14.459   9.942  14.865 -0.1252 -0.2326 -0.2122
16662W        W32796   9.162  16.049  12.492  0.1192  0.0213  0.2282
16663W        W32797   6.289  19.172   2.186 -0.1949  0.3069 -0.3056
16664W        W32798   4.027  11.444  13.444  0.1360 -0.0031  0.0156
16665W        W32799   5.790  11.219  14.188  0.0373  0.0741  0.0835
16666W        W32800   7.529  17.668  14.061  0.1863  0.1889  0.2721
16667W        W32801   0.636   8.164  13.404 -0.1483  0.1943  0.1663
16668W        W32802  19.319   3.175   0.798  0.1144 -0.3787  0.2837
16669W        W32803  16.378  11.326   9.749 -0.2067 -0.2656 -0.0981
16670W        W32804   9.733  17.375   4.325  0.0592 -0.0135 -0.1143
16671W        W32805  17.998  17.919   9.725 -0.1297  0.0215 -0.3268
16672W        W32806   4.261  15.548  11.709  0.1448  0.1363  0.2564
16673W        W32807   7.117   8.613  12.236  0.0472 -0.2121  0.1871
16674W        W32808  11.457  17.084  11.982 -0.1002  0.1494  0.2708
16675W        W32809  13.604   2.498  12.094 -0.2309  0.2555 -0.0526
16676W        W32810  16.819  18.988   2.461 -0.0644  0.2868  0.1046
16677W        W32811  16.858   6.101   0.212 -0.2367  0.2037 -0.3623
16678W        W32812  10.629  10.504  11.859  0.1788  0.3195 -0.4720
16679W        W32813  17.330   6.621   9.862 -0.0724  0.0657 -0.0116
16680W        W32814  18.816  18.300   4.354 -0.4414  0.1294 -0.0009
16681W        W32815   0.652   8.108   0.090  0.2497 -0.1315  0.2661
16682W        W32816  15.936  12.136   4.848  0.1813 -0.2245 -0.2075
16683W        W32817   4.166   1.028   2.190  0.0420 -0.4075  0.1597
16684W        W32818  16.836   6.758   2.788 -0.1075 -0.1223 -0.3359
16685W        W32819   7.329  17.607   4.696 -0.0350 -0.2476  0.2805
16686W        W32820  13.227   5.981   2.173  0.2439 -0.2719 -0.0647
16687W        W32821   6.059   1.065   9.242 -0.1072 -0.1923 -0.2838
16688W        W32822  15.449  12.495   4.761  0.0036  0.0060 -0.0009
16689W        W32823  12.183   9.569   0.417  0.2089 -0.1190 -0.2097
16690W        W32824   9.633  15.937   4.498 -0.0675 -0.0423  0.0221
16691W        W32825  15.260   7.702  13.987 -0.0734  0.2142  0.0573
16692W        W32826   3.497   9.116  11.328 -0.1746 -0.1212  0.0221
16693W        W32827   4.844   2.219  13.882 -0.0119 -0.0386  0.3765
16694W        W32828  15.764  19.225   4.813 -0.3827  0.0306 -0.0333
16695W        W32829  10.895   3.987   3.512  0.3222 -0.1256 -0.2333
16696W        W32830  15.262  11.036   3.677  0.1040 -0.2008  0.2510
16697W        W32831  10.680  16.455  10.529 -0.0636 -0.0105 -0.0104
16698W        W32832   8.190   8.958  13.616 -0.2091  0.0592  0.2018
16699W        W32833  13.722  10.594  11.712 -0.0210 -0.1999  0.1168
16700W        W32834  14.063   5.197   4.477 -0.2491  0.0486  0.1052
16701W        W32835   9.535  17.991  11.622  0.1609  0.2447 -0.0245
16702W        W32836  14.799  15.094   5.963  0.0202  0.0356 -0.2667
16703W        W32837   3.364   1.186  13.566 -0.1995 -0.1243  0.0417
16704W        W32838   8.956   4.357  13.870  0.0196  0.1588  0.0173
16705W        W32839  15.203  18.967   5.388 -0.1129  0.3143  0.0197
16706W        W32840  17.609  16.760   3.723 -0.0612  0.1405 -0.2005
16707W        W32841   7.677   6.179   3.668 -0.0002  0.2116 -0.4238
16708W        W32842   0.317   8.487  13.740 -0.0632 -0.2575 -0.2283
16709W        W32843  11.892  10.933  12.987  0.3086 -0.2477  0.1627
16710W        W32844  19.083  17.010  12.823  0.1838  0.2668 -0.1538
16711W        W32845   5.085   7.491   2.141  0.0049  0.0167 -0.0326
16712W        W32846  17.448   9.127  13.741  0.1753  0.2160  0.2310
16713W        W32847   8.860  15.766   3.438 -0.0488 -0.1594  0.0408
16714W        W32848   4.379  18.244   3.653  0.0404  0.0177 -0.3617
16715W        W32849  12.091   2.539   3.754 -0.1985  0.1591 -0.3416
16716W        W32850   2.061  13.809   1.499 -0.2032 -0.0588 -0.2696
16717W        W32851   4.558   7.592  12.091 -0.0950 -0.0329  0.0262
16718W        W32852   0.643  16.263  11.828 -0.2652  0.0923 -0.0887
16719W        W32853  13.423  14.691   4.945  0.4488  0.2824 -0.1921
16720W        W32854  11.768   8.470   3.618 -0.0430 -0.1602  0.1802
16721W        W32855  14.541  13.184   1.254 -0.2307  0.2410 -0.0189
16722W        W32856   3.573   3.473   4.781 -0.3245  0.2166  0.1896
16723W        W32857  18.282   5.808   1.419  0.0153  0.1521 -0.3554
16724W        W32858   3.017   2.144  13.512  0.2568 -0.2179  0.3222
16725W        W32859  10.188  14.736  12.448 -0.1500  0.3708 -0.0103
16726W        W32860  14.376   1.834  13.417  0.2888  0.0376 -0.1118
16727W        W32861   0.231   0.348   5.514 -0.3538  0.2849 -0.1866
16728W        W32862   1.096  10.212  14.435 -0.1475  0.2866 -0.0733
16729W        W32863  16.312   4.529  13.721 -0.0929  0.1161  0.1798
16730W        W32864  13.580  11.239   0.949  0.1246 -0.0864 -0.1312
16731W        W32865  13.739   7.977   4.560 -0.0415 -0.1397 -0.3047
16732W        W32866  10.503   1.719  13.390  0.2910 -0.4819  0.1507
16733W        W32867   0.134   9.114  10.236 -0.2517  0.1721  0.1469
16734W        W32868  15.086  15.872   1.377  0.0321 -0.1941  0.1716
16735W        W32869  17.013  11.411  10.356 -0.0058  0.0155  0.1503
16736W        W32870   1.007   2.105   3.287 -0.1798 -0.2943 -0.0442
16737W        W32871   4.240   0.044   1.299  0.3302  0.0480 -0.0948
16738W        W32872   2.764   6.771   1.021 -0.5792 -0.0503 -0.3066
16739W        W32873  15.015   0.437   4.420  0.1241 -0.0586 -0.1589
16740W        W32874  18.698   3.773  14.530 -0.1954  0.3152  0.1295
16741W        W32875  10.138   5.216   3.357  0.0479  0.1331 -0.0174
16742W        W32876   6.074   9.676   2.079 -0.3198  0.0524 -0.1891
16743W        W32877   6.260   8.398   1.929 -0.3668 -0.2014  0.1892
16744W        W32878   5.895  10.634   4.117  0.1074  0.0376 -0.4313
16745W        W32879  15.462  11.787   1.869 -0.1977 -0.3782 -0.0527
16746W        W32880  13.768   7.702  14.645 -0.0815 -0.2432  0.1205
16747W        W32881  11.759  17.418  12.878  0.0041  0.1955  0.2262
16748W        W32882  13.206   3.370  12.115  0.0338  0.1054 -0.2243
16749W        W32883  16.819   8.253  14.783 -0.0642  0.1251 -0.0132
16750W        W32884  19.292   9.466  11.725  0.0027  0.1287  0.0741
16751W        W32885   0.259  13.276   3.463  0.2673  0.0814 -0.5079
16752W        W32886   9.792  10.659   9.396  0.0975  0.0975  0.0721
16753W        W32887  12.121   8.095  11.734 -0.0054  0.0626 -0.2203
16754W        W32888   9.053   3.213   2.970  0.2518 -0.1591 -0.1853
16755W        W32889   8.940  16.683   2.061 -0.1666 -0.2167  0.1643
16756W        W32890   5.175  18.971  13.155  0.1558  0.1651 -0.1207
16757W        W32891   7.091  14.392   5.688  0.1410  0.2585  0.1824
16758W        W32892  18.668   5.419  10.207  0.1132 -0.2215  0.0050
16759W        W32893   6.105  10.061   0.626 -0.2492 -0.0350  0.0451
16760W        W32894   1.115   4.887   3.928 -0.0533  0.1858 -0.2283
16761W        W32895  14.791   0.985   3.796  0.2242  0.0588  0.2433
16762W        W32896   9.194   7.549  14.183 -0.2566 -0.1931 -0.0505
16763W        W32897   3.958  15.402  10.896  0.1414 -0.3044 -0.1405
16764W        W32898  10.551  16.898   3.993  0.0341  0.1054 -0.3540
16765W        W32899  10.493  16.516  12.151  0.0350 -0.3116  0.0617
16766W        W32900  13.675   7.801  11.298  0.3740  0.0684 -0.0369
16767W        W32901  14.350  18.134  11.958  0.0437  0.0886  0.0417
16768W        W32902   1.892   6.967   1.455  0.0078 -0.2345 -0.1129
16769W        W32903   8.509   6.664   2.964  0.1784 -0.0921  0.0973
16770W        W32904   2.372   7.800   1.891  0.1383 -0.4918  0.0462
16771W        W32905   4.625   5.858  14.727  0.2826  0.0810  0.2159
16772W        W32906  12.521   9.204   0.274  0.0380 -0.0573  0.1552
16773W        W32907   0.354   2.747   9.299 -0.1627  0.4248  0.3640
16774W        W32908  12.047  16.790   1.642 -0.0169 -0.0178 -0.3052
16775W        W32909  16.630  14.049   1.173 -0.3723 -0.1919 -0.2107
16776W        W32910   7.461   3.125   3.693  0.2279 -0.0906 -0.3056
16777W        W32911   0.065  15.581   3.199  0.1201  0.1304 -0.2097
16778W        W32912   4.828   7.231   0.497 -0.0091 -0.0568 -0.1050
16779W        W32913   6.182   4.150  14.730 -0.0194 -0.2571 -0.1473
16780W        W32914   6.031   4.191   4.003  0.3083  0.0277  0.1551
16781W        W32915  15.985   7.996   0.521  0.0754 -0.0035  0.1231
16782W        W32916   6.339  10.678  13.082 -0.0123  0.1882 -0.3906
16783W        W32917  12.355  13.863   2.847 -0.1174 -0.3047 -0.1319
16784W        W32918  16.474  17.218   1.238 -0.0370 -0.2826 -0.3594
16785W        W32919  10.212  10.746  11.947 -0.0275  0.2354 -0.2793
16786W        W32920   4.560  16.290  13.134 -0.2001 -0.4018  0.0479
16787W        W32921   0.176   8.369  12.199  0.3215 -0.0861 -0.1664
16788W        W32922  12.693  18.829   1.309 -0.2997  0.1580  0.0664
16789W        W32923   8.450   4.550  13.408  0.2630 -0.0943 -0.1218
16790W        W32924   0.344   6.874   2.240 -0.0925  0.2663 -0.1265
16791W        W32925  12.271   7.336   9.749  0.1741 -0.0824  0.1420
16792W        W32926   7.584   1.359   2.957 -0.1705 -0.3094  0.0998
16793W        W32927   7.269  15.819  11.528 -0.0330  0.0378 -0.1138
16794W        W32928  14.352   1.345   1.548 -0.0212 -0.1944 -0.1332
16795W        W32929  16.205   7.982   2.207  0.2048  0.3065  0.5028
16796W        W32930   9.408  13.136   4.600 -0.1428  0.2570  0.2150
16797W        W32931   2.039  17.392  10.484  0.4635 -0.1938  0.2502
16798W        W32932   5.567  17.210  14.493  0.0748  0.1836  0.0519
16799W        W32933   3.390   0.886  10.648  0.0645  0.1145  0.0195
16800W        W32934   5.859  17.375   2.139 -0.3386 -0.0074  0.2103
16801W        W32935   9.950  19.246  14.931  0.4021 -0.2832  0.0383
16802W        W32936   7.842   8.650   3.152  0.1791 -0.3571  0.2152
16803W        W32937  13.741  17.546   0.259  0.0529 -0.0554 -0.2904
16804W        W32938   8.750  18.847   3.001  0.1239 -0.3250  0.0689
16805W        W32939  16.313   2.463  13.154  0.1618 -0.0221 -0.1446
16806W        W32940  15.067   9.210   3.947 -0.1865  0.0973  0.1927
16807W        W32941   0.450   9.489  12.635  0.0139 -0.0841  0.1038
16808W        W32942   2.061   0.112  14.257  0.1185 -0.4003 -0.1563
16809W        W32943  18.972  13.688  13.809  0.0420 -0.0542 -0.3202
16810W        W32944  11.621   0.395  14.415  0.1668  0.1768  0.2151
16811W        W32945  18.930  11.177   1.005  0.2892  0.0731 -0.0165
16812W        W32946  18.891   2.003   5.044  0.0113 -0.0181  0.0558
16813W        W32947  13.204  15.561   4.012 -0.2723  0.1968  0.0849
16814W        W32948   0.749  13.052   4.269  0.0569  0.2025 -0.4398
16815W        W32949   7.490   9.090  13.330  0.4212 -0.1358 -0.0149
16816W        W32950   7.883   9.779  11.778 -0.2067 -0.1377  0.2940
16817W        W32951  10.295   8.883  12.344 -0.1433  0.0589 -0.2024
16818W        W32952   2.084  10.909   5.186  0.5373 -0.0092  0.0417
16819W        W32953   8.783   5.563  10.286 -0.1149  0.0356  0.0245
16820W        W32954   2.122  12.794  12.545 -0.2183 -0.1235 -0.0609
16821W        W32955   5.664   3.784   1.761 -0.1552  0.0188 -0.4126
16822W        W32956   2.982   8.480   3.157 -0.0955 -0.0029 -0.4776
16823W        W32957   1.991  10.813  13.889  0.0124 -0.0921  0.1321
16824W        W32958  10.969  19.101   5.575 -0.1237 -0.0560 -0.1872
16825W        W32959   6.990   7.157  10.543 -0.2498 -0.3913 -0.1177
16826W        W32960   3.549   2.676   2.189 -0.1707  0.1997  0.3406
16827W        W32961  18.074   7.920  12.387  0.0184  0.0765  0.1601
16828W        W32962  15.399  14.143   2.562  0.1072 -0.1426  0.2465
16829W        W32963  14.281   2.179   5.119  0.1170  0.1335  0.2753
16830W        W32964   3.964  15.201   2.422  0.2560  0.2284  0.2315
16831W        W32965  17.974   7.025   2.077 -0.0682  0.1605 -0.2319
16832W        W32966   9.517  10.805  11.194  0.1281  0.1136 -0.1519
16833W        W32967   5.195   8.616   0.427  0.0819 -0.1882  0.0241
16834W        W32968   8.813   3.632   4.065 -0.1061 -0.0720 -0.3087
16835W        W32969  15.787  11.376   0.691 -0.3636 -0.1265  0.0274
16836W        W32970   0.632   2.376   3.492 -0.1521 -0.1121  0.1439
16837W        W32971  16.145  11.082   4.776  0.0927  0.0063  0.2305
16838W        W32972   5.542  10.263   1.428  0.1899  0.3004  0.1538
16839W        W32973   0.314   2.043   2.595 -0.2388  0.0514 -0.1052
16840W        W32974  13.162  14.535  13.241 -0.2968  0.1864  0.1341
16841W        W32975  16.377   3.464   2.686  0.2631 -0.3335  0.1551
16842W        W32976  16.017   6.784  14.800  0.2814  0.2162 -0.1089
16843W        W32977   3.532   3.963   4.679  0.1043  0.1759  0.3360
16844W        W32978   1.444  10.199  10.501 -0.1860 -0.2997 -0.1463
16845W        W32979   7.127   8.780   0.804  0.0042  0.0942  0.1174
16846W        W32980  12.179  11.796  10.808 -0.1203  0.1485 -0.1731
16847W        W32981   6.239   7.503  14.826 -0.0481 -0.1586  0.0427
16848W        W32982   0.249  17.512  10.964 -0.2715  0.0897 -0.0833
16849W        W32983   7.783  13.954   3.821  0.1000  0.1983  0.0460
16850W        W32984   9.548   4.614   9.660 -0.1163 -0.1111  0.0427
16851W        W32985  11.358  16.313  11.179  0.1828  0.1337 -0.1031
16852W        W32986   0.605  14.442  11.236  0.0439 -0.0645 -0.0266
16853W        W32987   1.526  10.858  14.632 -0.2182  0.2024 -0.2914
16854W        W32988  13.093  12.242  13.612 -0.0629 -0.0594 -0.0529
16855W        W32989   3.121   5.047   4.817  0.1971  0.0310  0.1077
16856W        W32990   0.788  16.953  11.337 -0.0078  0.0519  0.0502
16857W        W32991   4.043  10.189  11.406  0.2179  0.0550  0.0755
16858W        W32992   7.575   8.646   1.090  0.2693  0.0462 -0.1638
16859W        W32993   9.827  17.826   1.799  0.1105  0.0910  0.4099
16860W        W32994   4.338  11.465  13.898  0.3977  0.3382 -0.2074
16861W        W32995  16.672   3.640   9.959  0.0081 -0.2633  0.0361
16862W        W32996   4.388  15.292  10.619 -0.2066  0.1916 -0.2793
16863W        W32997  18.549  13.357   4.289  0.0924  0.0969 -0.2170
16864W        W32998  16.017  15.451  11.280 -0.1108  0.2480  0.1194
16865W        W32999   1.065   4.497   2.785 -0.3553  0.1470 -0.2153
16866W        W33000  13.831   7.837  14.188  0.0344  0.0428 -0.1271
16867W        W33001   5.048   6.644  12.189  0.0535  0.1126 -0.2506
16868W        W33002  10.747  12.781  10.794  0.0577  0.1554 -0.0651
16869W        W33003  14.163  13.810  13.879 -0.1413 -0.3351  0.0870
16870W        W33004   3.818   0.396   4.570  0.0401  0.0459  0.1350
16871W        W33005   2.646  12.523   4.384  0.0501  0.1001 -0.2417
16872W        W33006   5.671  16.466  13.381 -0.3332 -0.1080 -0.1210
16873W        W33007  18.944  18.511   2.255 -0.0959 -0.1975 -0.0423
16874W        W33008   7.991  12.123  10.673  0.0037  0.1809  0.1050
16875W        W33009  14.466  19.142   4.369  0.2642  0.1428  0.0392
16876W        W33010   3.391   1.276  12.984 -0.2657  0.1051 -0.1572
16877W        W33011  15.523  14.473   1.747 -0.3573  0.1485  0.1749
16878W        W33012   8.357   3.011   2.102  0.4394  0.1188 -0.1064
16879W        W33013   2.434   3.482   0.034  0.0685  0.2470 -0.0438
16880W        W33014  11.047  13.402   1.890  0.0971 -0.0984 -0.4501
16881W        W33015   7.809  13.045   0.787 -0.0339  0.0440 -0.0116
16882W        W33016  15.489   0.297   4.665 -0.1496  0.1863  0.3604
16883W        W33017  11.630   3.681  12.850  0.0057  0.1170  0.0985
16884W        W33018  11.905   2.251  12.045 -0.0159  0.0429 -0.2847
16885W        W33019  11.796   9.568  14.902 -0.2371 -0.0430 -0.0631
16886W        W33020  14.504  11.992   2.579 -0.0911 -0.0094  0.1866
16887W        W33021  18.393   2.197  12.526 -0.1956  0.1084  0.3774
16888W        W33022   1.127   1.480  13.558 -0.2164  0.0997  0.1899
16889W        W33023   7.079   8.537   4.141  0.0909 -0.1851  0.0119
16890W        W33024   2.762  17.284   4.275  0.1732  0.0119 -0.3554
16891W        W33025   2.735  10.647  12.649 -0.0234 -0.1979  0.0233
16892W        W33026  14.859  15.283   3.938  0.1582  0.0871 -0.0419
16893W        W33027   7.727   9.126  10.197  0.1469  0.0982 -0.1551
16894W        W33028   5.447   0.554   0.221 -0.1915  0.2150 -0.0388
16895W        W33029  17.137  17.630  10.932  0.0529 -0.1892  0.0976
16896W        W33030  11.194   8.278   5.553 -0.2536  0.0345  0.0885
16897W        W33031   0.079   9.212   4.574 -0.0218 -0.1333  0.0435
16898W        W33032  16.823   7.724  14.179 -0.0494 -0.1137 -0.0224
16899W        W33033   7.760  12.353  13.311  0.1803  0.1137 -0.0729
16900W        W33034  19.295  13.774  14.721 -0.0053 -0.2116  0.2021
16901W        W33035   4.743  17.500   0.394  0.0133  0.0071  0.0363
16902W        W33036   8.478   0.946   0.894  0.0128 -0.3293 -0.1208
16903W        W33037   9.143  12.483   0.343  0.3582 -0.1387  0.2611
16904W        W33038  18.461   3.491  14.823 -0.1576 -0.0161  0.1315
16905W        W33039   5.191  10.057  11.644 -0.1490  0.1229  0.1919
16906W        W33040  16.344  15.609   4.447 -0.2257  0.2413  0.0275
16907W        W33041   8.641  12.181   5.098  0.0571  0.0181 -0.3867
16908W        W33042  15.135   6.378   0.782 -0.1016 -0.0303 -0.2725
16909W        W33043  13.319   7.599   4.141  0.2840 -0.1672 -0.0011
16910W        W33044  17.383  17.265  11.938 -0.0533 -0.0215 -0.2714
16911W        W33045   6.798   7.138   1.234 -0.0508  0.0161 -0.1861
16912W        W33046  17.549   4.294   2.163 -0.1985 -0.1587  0.1190
16913W        W33047   2.949   9.063   0.050  0.0557 -0.1701  0.4028
16914W        W33048   0.155  19.238  11.524 -0.1446  0.1467 -0.2924
16915W        W33049  18.439   3.995  14.933  0.0857 -0.5272 -0.0009
16916W        W33050  17.604   6.767   3.203  0.3211 -0.0303 -0.1452
16917W        W33051   6.331  15.260  12.981 -0.1680  0.3307 -0.1322
16918W        W33052   1.589   8.766   9.835 -0.1379 -0.0914 -0.2244
16919W        W33053  15.202   5.711   4.815 -0.1172  0.2926  0.1952
16920W        W33054  19.147   4.262  11.178 -0.4079 -0.2072  0.1680
16921W        W33055  16.135   5.931   4.493  0.1018  0.0371  0.2000
16922W        W33056  16.542   8.760   2.315  0.2257 -0.2618  0.1173
16923W        W33057   8.247  17.479  11.244 -0.0871  0.0072 -0.2939
16924W        W33058  14.886   0.149  13.032 -0.1714 -0.0104  0.1509
16925W        W33059  16.006   7.635   2.512 -0.1956  0.2218 -0.3881
16926W        W33060   5.225   8.505   9.892 -0.2648 -0.3566 -0.1062
16927W        W33061  11.252  13.270   0.894 -0.0287  0.1233 -0.3020
16928W        W33062  16.830   1.394   3.659  0.1580 -0.1128  0.2951
16929W        W33063  15.992   0.589   0.578  0.0459 -0.2085 -0.2596
16930W        W33064  10.899  11.771   1.956 -0.0473  0.0410  0.2089
16931W        W33065  13.748  12.670  11.379  0.0845 -0.0600 -0.3022
16932W        W33066  10.037  15.483  13.525  0.0747  0.0873  0.0331
16933W        W33067   7.237   3.691  13.840 -0.0195 -0.0975  0.0305
16934W        W33068   3.213   0.176   0.465 -0.0066 -0.0566  0.2613
16935W        W33069  17.119   4.732  12.093 -0.0749  0.1440 -0.0383
16936W        W33070  11.482   5.791  10.866 -0.2586 -0.4169 -0.1762
16937W        W33071  16.235   2.892   1.618  0.0722  0.0174 -0.1620
16938W        W33072  17.369  12.326  11.321 -0.0888 -0.3242  0.0895
16939W        W33073   8.532   9.598   1.547  0.1746 -0.0385  0.0750
16940W        W33074   9.293  10.730  12.089  0.0156  0.1749  0.1259
16941W        W33075   5.093   8.075  12.835  0.1609  0.3575 -0.2058
16942W        W33076   7.391   3.107  11.828  0.1161 -0.1930 -0.2475
16943W        W33077   3.132   5.053  11.694 -0.3164 -0.1270  0.3200
16944W        W33078  18.950  10.964  14.540  0.1136  0.0501 -0.4408
16945W        W33079   2.546  18.640  14.508 -0.1039  0.3189 -0.0357
16946W        W33080   9.025  18.000   3.929  0.0223  0.3291 -0.1129
16947W        W33081   7.274  16.049   3.457  0.1293 -0.0835 -0.0609
16948W        W33082  18.006   9.568   0.375 -0.1047  0.3290 -0.1287
16949W        W33083  18.930  18.673   3.675  0.0615 -0.1142 -0.2827
16950W        W33084  18.596   1.776   1.522 -0.2391  0.0920  0.0890
16951W        W33085   3.405  18.402  13.337 -0.3392 -0.1168  0.1910
16952W        W33086   6.396  15.399   4.760  0.0277  0.0085 -0.0544
16953W        W33087   1.596  13.596   3.299 -0.3655 -0.0263  0.1341
16954W        W33088  17.108   3.845   1.334 -0.3014  0.2368 -0.0532
16955W        W33089   6.243   2.586   2.472 -0.1259 -0.0334  0.2740
16956W        W33090  17.107  15.469   1.764  0.0544 -0.2117  0.1780
16957W        W33091  13.596  18.363   6.140  0.0595  0.0804 -0.0570
16958W        W33092  17.824   9.443  12.259  0.0395 -0.2833  0.0718
16959W        W33093   7.115  15.426   0.665 -0.1955  0.1932 -0.1508
16960W        W33094  15.974  15.814   0.329 -0.0100  0.0044 -0.2598
16961W        W33095   7.110  13.217  13.989 -0.0765  0.1114  0.0524
16962W        W33096   6.538   9.806   0.556  0.0845  0.1581  0.0569
16963W        W33097   4.964   0.028  13.306 -0.1393  0.2188 -0.0249
16964W        W33098   0.791   9.434  12.231  0.1077  0.1037 -0.0025
16965W        W33099   7.843  12.992  14.669  0.0498  0.0038 -0.0419
16966W        W33100   7.849   0.954   2.713 -0.0405 -0.2810  0.1308
16967W        W33101   7.605  14.363  12.143  0.2120  0.0999 -0.0545
16968W        W33102  12.983  10.951  11.645  0.1886 -0.1030 -0.0727
16969W        W33103   9.916   2.925  13.662  0.1238 -0.1629 -0.0176
16970W        W33104  11.127  10.667  11.900  0.0897  0.3161  0.5829
16971W        W33105  11.049   7.526   2.919 -0.1342  0.2446  0.0202
16972W        W33106   3.856   9.159  11.008 -0.2250  0.1666  0.3218
16973W        W33107   3.208  18.358   1.043 -0.2790  0.1854  0.0483
16974W        W33108  13.160  14.846   0.486 -0.0598  0.1152  0.0620
16975W        W33109  17.836  18.909  10.910 -0.2020  0.2576  0.1877
16976W        W33110   2.969  16.008   9.525 -0.0357  0.2226  0.0577
16977W        W33111   0.495  14.446  13.479  0.2468  0.3010 -0.5175
16978W        W33112   1.743   9.242  12.133  0.1620 -0.5827 -0.1526
16979W        W33113   7.001   6.466   0.468 -0.3286  0.2262 -0.0114
16980W        W33114   7.649  15.562   5.273 -0.1764 -0.1209  0.2600
16981W        W33115   3.646  10.421   3.732 -0.1092 -0.2787 -0.3025
16982W        W33116   5.683  14.768   4.440  0.0115 -0.1964 -0.0191
16983W        W33117  17.792  12.775  13.665  0.0220 -0.0116 -0.0496
16984W        W33118   2.446  14.108   9.886  0.1184 -0.1502  0.1898
16985W        W33119  17.728   4.801   4.200 -0.1487 -0.0744 -0.1574
16986W        W33120  14.520  16.007   3.496  0.0865 -0.2080 -0.0655
16987W        W33121   3.426  10.500  11.284 -0.2952 -0.1966  0.0023
16988W        W33122   2.402  16.964  12.102  0.0131 -0.0361  0.2788
16989W        W33123  12.871  18.479  13.685  0.0898 -0.3242  0.2988
16990W        W33124   1.003   9.987  10.456  0.2575  0.0869 -0.2819
16991W        W33125  16.902  13.688   1.488  0.2709 -0.0885  0.3580
16992W        W33126   8.781   4.099   3.806 -0.1037 -0.0946  0.0892
16993W        W33127  15.488  12.533  10.995 -0.1480  0.1620  0.1297
16994W        W33128  16.475   3.897   2.970 -0.0426  0.3068  0.4074
16995W        W33129   5.693   6.902   2.621 -0.0119  0.2834 -0.3371
16996W        W33130   2.236  19.176  14.776  0.0933 -0.1576  0.4490
16997W        W33131  16.354  11.578   1.200 -0.0195  0.0060 -0.1763
16998W        W33132   0.169  15.197  11.600  0.1496  0.0814 -0.0603
16999W        W33133   5.712  10.181  13.325  0.0112  0.1861  0.0385
17000W        W33134   4.681   0.296   4.065 -0.1556 -0.1226  0.2163
17001W        W33135   2.023  14.106   4.919 -0.1212  0.1331 -0.0751
17002W        W33136   0.345   8.872   1.376  0.0964  0.0266  0.0643
17003W        W33137   2.549  12.009   3.400 -0.0333 -0.1819  0.6134
17004W        W33138   9.980   8.390   0.766  0.0826 -0.3405  0.1247
17005W        W33139  13.130  16.553  13.340  0.1035 -0.2963  0.1457
17006W        W33140   5.879  18.676  14.566  0.2004  0.3947 -0.1945
17007W        W33141  13.366  15.785   5.597  0.2717 -0.1634 -0.1145
17008W        W33142  15.982  13.366  10.407 -0.1619 -0.2395 -0.2292
17009W        W33143  12.796   7.415  11.106  0.0423 -0.0398 -0.0878
17010W        W33144   9.741   5.307  11.160 -0.0043  0.1071  0.2343
17011W        W33145   1.417   5.468   3.891  0.0111 -0.0893  0.2065
17012W        W33146  10.065   3.970  13.417 -0.1213  0.2678  0.0661
17013W        W33147   5.119  10.553  12.657  0.0181 -0.1137 -0.1069
17014W        W33148   0.049  11.774   3.584 -0.1751  0.2039 -0.0842
17015W        W33149  10.369  17.452  11.074  0.4189  0.0823  0.1214
17016W        W33150   3.745  13.313   3.750 -0.0393  0.1952  0.0084
17017W        W33151   8.246   0.467   5.291 -0.2856  0.2184  0.0758
17018W        W33152   7.047   3.377   0.395  0.1735  0.1347 -0.1712
17019W        W33153  19.222   6.220   5.495  0.0536  0.3370 -0.2805
17020W        W33154  15.831   8.636   3.919 -0.1279  0.1272  0.0961
17021W        W33155  10.778  10.736  13.784 -0.0287 -0.1800 -0.2830
17022W        W33156   6.427  18.348  11.142  0.0748 -0.0901 -0.2027
17023W        W33157   1.056  11.196  14.147  0.0543 -0.1369  0.3342
17024W        W33158   6.184   2.026  13.513  0.0878 -0.3818  0.1048
17025W        W33159  16.091  15.906  12.769  0.0991  0.0209 -0.1675
17026W        W33160   2.190  12.551  13.827  0.2967 -0.1054 -0.2366
17027W        W33161   6.132  11.107  13.238 -0.1690  0.0116  0.1735
17028W        W33162   7.088  19.148   2.369 -0.1560  0.3217 -0.1372
17029W        W33163   3.165  13.268  12.770 -0.0658 -0.2147 -0.2193
17030W        W33164   6.530  18.329  12.760 -0.0235  0.3202 -0.0491
17031W        W33165  14.583   4.347  13.262 -0.0079 -0.5019 -0.2224
17032W        W33166   8.186  11.961   4.861 -0.0215  0.3129 -0.1691
17033W        W33167  17.085   0.549   3.667 -0.2271  0.1141  0.0198
17034W        W33168   1.252   3.653  14.938 -0.2495 -0.0577 -0.0559
17035W        W33169   3.689  16.110   4.766 -0.5071 -0.0492  0.0505
17036W        W33170  11.915  15.771  11.918  0.1388  0.0543  0.1054
17037W        W33171   3.995   8.011   3.655  0.1735  0.1753 -0.2060
17038W        W33172  18.748   0.436   5.935  0.3404  0.2648  0.2332
17039W        W33173  15.398  14.240  12.051  0.0033  0.0811  0.2141
17040W        W33174   3.827   5.012   1.800  0.2752 -0.0869 -0.1149
17041W        W33175   0.855   2.906   5.238  0.0680 -0.1707  0.1185
17042W        W33176   8.308  15.065   3.133  0.1089 -0.1746  0.2706
17043W        W33177   1.865  12.119  10.600  0.1738 -0.1041  0.0307
17044W        W33178  13.126  16.090   3.615  0.3513 -0.5523 -0.0979
17045W        W33179   8.386  12.870  14.611 -0.0963  0.3584 -0.2084
17046W        W33180  15.292   4.396   2.018  0.1707 -0.0840 -0.2364
17047W        W33181   5.461   2.627  13.835  0.0557 -0.2070 -0.0743
17048W        W33182   4.191   8.147   0.824  0.3322  0.0175 -0.1293
17049W        W33183   8.168  13.590   3.670  0.1474 -0.0143 -0.0803
17050W        W33184   6.377  15.449   5.267  0.0578 -0.2433  0.1420
17051W        W33185   9.978  11.827   3.538 -0.1604  0.1095 -0.0182
17052W        W33186   0.059  14.352   1.306  0.0528  0.0684  0.0831
17053W        W33187   2.894   3.714  12.377  0.1461 -0.2387 -0.1068
17054W        W33188   7.643   3.507  10.005 -0.0458  0.0162 -0.0723
17055W        W33189   8.473   8.014  10.235 -0.2226  0.2614  0.0335
17056W        W33190  15.019  13.384   2.175  0.3146  0.2629 -0.0676
17057W        W33191   0.993  14.928   0.072 -0.1358  0.2641 -0.0016
17058W        W33192  15.604  17.646   3.040  0.3342  0.2324  0.4032
17059W        W33193   3.276   9.545  11.486 -0.3154 -0.0896 -0.1953
17060W        W33194  14.082  15.745  14.082 -0.0556  0.0438 -0.2082
17061W        W33195   1.750   0.455   4.048 -0.1260  0.0200 -0.2814
17062W        W33196  10.198   7.074   1.503  0.2646  0.2197 -0.2523
17063W        W33197   3.527   5.943   2.490  0.1025 -0.1002 -0.0545
17064W        W33198   5.315  13.407  10.937  0.1365  0.1014 -0.4347
17065W        W33199   7.005  13.658  13.376  0.2014  0.0791 -0.0570
17066W        W33200   8.123   5.424   1.898 -0.3823  0.1592 -0.2623
17067W        W33201   2.880  16.660   1.540  0.1208 -0.2390 -0.6108
17068W        W33202   8.047   3.485  10.368  0.0377  0.2422  0.0797
17069W        W33203  12.412   1.665   0.105 -0.0348 -0.2655 -0.1029
17070W        W33204   4.070  18.969   0.050  0.2304  0.0411  0.3463
17071W        W33205   4.851  15.734  13.730  0.2512 -0.3126 -0.0046
17072W        W33206   9.490  12.226  11.579  0.1314  0.0655 -0.4630
17073W        W33207  16.555  15.530  12.863  0.0096 -0.0080  0.0017
17074W        W33208  18.638   7.919   4.390  0.5474 -0.2832 -0.4242
17075W        W33209  17.216  18.477  13.217 -0.1449  0.0355 -0.0243
17076W        W33210  10.899   4.013   0.281  0.0463 -0.2580  0.2343
17077W        W33211  10.527   8.223  10.806  0.0829 -0.1851 -0.0771
17078W        W33212  12.763  14.808  12.773  0.0233  0.1148  0.1326
17079W        W33213   3.781  14.339   1.345  0.0155 -0.0080  0.1340
17080W        W33214  12.844  17.562   0.178 -0.4709  0.1631  0.0880
17081W        W33215  15.104  15.925  10.675 -0.4707  0.3479 -0.2740
17082W        W33216  12.482  18.617   3.333  0.0689  0.1208 -0.1311
17083W        W33217   5.408  19.302   9.521 -0.2587  0.0759 -0.2402
17084W        W33218   7.574   3.199   4.223 -0.0857  0.3808  0.0640
17085W        W33219   0.375  18.907  13.050 -0.1677 -0.1005  0.1231
17086W        W33220  17.972  17.791   2.948 -0.2709 -0.1370 -0.0072
17087W        W33221   1.376   6.081  13.474 -0.1015  0.0426 -0.2127
17088W        W33222   3.261   4.530   1.738  0.0161 -0.2032 -0.0424
17089W        W33223   0.532   4.102  11.699  0.0605  0.0838 -0.2714
17090W        W33224   5.033   1.287  12.003  0.1150  0.1540 -0.1675
17091W        W33225  15.237   6.819   1.772 -0.0308 -0.2467  0.0113
17092W        W33226   2.707   5.413   2.552  0.1356  0.1312  0.1989
17093W        W33227  14.208   9.500  11.270  0.1419  0.1307  0.0391
17094W        W33228   1.948   1.493  14.657  0.3256  0.3034  0.0961
17095W        W33229   1.652   2.718   9.617 -0.2171 -0.1696 -0.0627
17096W        W33230   0.911  14.830   4.568 -0.2114 -0.2994 -0.0983
17097W        W33231  11.243   6.215  14.665  0.1295 -0.2167  0.2300
17098W        W33232   3.864   5.046   3.444  0.0214 -0.0649 -0.0672
17099W        W33233   5.160   7.544   1.665  0.1055  0.1981 -0.1277
17100W        W33234   6.367   1.954  12.565 -0.2754 -0.1016  0.0030
17101W        W33235   4.643  18.862  13.871 -0.0603 -0.4997 -0.1404
17102W        W33236   7.831   0.261   1.951  0.0643 -0.0297  0.0272
17103W        W33237   6.483   9.262  10.630  0.1731 -0.2303  0.0441
17104W        W33238  18.673   7.547   4.761  0.1341 -0.5114 -0.1228
17105W        W33239   8.495  10.708   4.178  0.3788  0.0053 -0.2472
17106W        W33240   2.720   2.307  13.047 -0.2148 -0.1700  0.1476
17107W        W33241  13.856   3.051   2.074  0.0289  0.0557 -0.4302
17108W        W33242   2.513   1.975  13.375  0.3111 -0.0476  0.1853
17109W        W33243   1.451   6.282  11.081  0.1008 -0.0107  0.1355
17110W        W33244  17.112   8.754  13.918 -0.1520  0.0853 -0.1101
17111W        W33245   1.909   8.478  14.084 -0.0222 -0.3542 -0.4441
17112W        W33246  12.086  17.124  12.638  0.0389  0.0094 -0.0529
17113W        W33247   2.557   3.347  10.721  0.2538 -0.0731 -0.0329
17114W        W33248   5.921   9.154   2.941 -0.1945  0.0674  0.2247
17115W        W33249  17.169   7.707   2.831 -0.0984 -0.2425 -0.2484
17116W        W33250   1.842   3.619   3.741  0.3593  0.1883  0.1673
17117W        W33251  14.503  18.723   3.652  0.2956 -0.1181 -0.2383
17118W        W33252   8.451   4.281   0.107  0.1132  0.2084  0.0486
17119W        W33253  15.658  12.923  10.620  0.2364  0.2075  0.2185
17120W        W33254   8.484  12.713   2.836  0.0805 -0.2748 -0.0080
17121W        W33255  15.435   0.935   1.845 -0.0341 -0.1697  0.0183
17122W        W33256  12.518   5.928   2.966  0.0063  0.2872 -0.0144
17123W        W33257  17.230   7.149   1.309 -0.4309  0.0911  0.0566
17124W        W33258  18.948   3.228   2.790  0.3884  0.1064  0.1941
17125W        W33259  18.476  13.998  12.995 -0.0265 -0.2810  0.3460
17126W        W33260   2.757   6.287  13.606 -0.1305 -0.0036  0.0930
17127W        W33261  18.787  10.509  13.736 -0.0162  0.2928 -0.1254
17128W        W33262  14.435  13.120   3.416  0.1956 -0.1060 -0.1438
17129W        W33263   4.558   8.315   0.514 -0.2079 -0.2715  0.2446
17130W        W33264  10.126   8.070  13.281 -0.0513  0.3604 -0.1524
17131W        W33265  12.014   6.745   2.507 -0.2931  0.0803  0.2806
17132W        W33266   3.004  12.410  11.715  0.0847 -0.1348  0.2229
17133W        W33267  10.133   4.789   4.709 -0.2448  0.1036  0.1419
17134W        W33268   5.688  18.156  13.945  0.1977 -0.4086 -0.1454
17135W        W33269  17.004  11.339   2.029 -0.0504 -0.0377 -0.2609
17136W        W33270   3.776  15.021   3.524 -0.0720 -0.2264 -0.3036
17137W        W33271  16.256   0.449   5.180  0.0192 -0.5617  0.2011
17138W        W33272   5.319   3.422   3.169  0.2344  0.0772 -0.0109
17139W        W33273   3.037  17.291  12.524  0.2665 -0.3219  0.1961
17140W        W33274   6.951   9.324  10.647  0.0527  0.1670  0.0458
17141W        W33275   8.735  10.089   1.712  0.0520  0.1156 -0.0534
17142W        W33276   4.878   9.504  10.685  0.5332 -0.2329 -0.0662
17143W        W33277  18.931  19.312  13.901 -0.2814 -0.1534  0.1601
17144W        W33278  14.157   0.678   6.202 -0.1663  0.0058 -0.1781
17145W        W33279   9.493  18.893   2.471 -0.0508 -0.2165  0.0864
17146W        W33280  17.675  12.568  11.714 -0.3793  0.2159 -0.1193
17147W        W33281  17.072  15.648  12.564  0.0586  0.0826 -0.0511
17148W        W33282   6.425   4.441  11.661 -0.2712 -0.2714 -0.1071
17149W        W33283  12.516   0.072  12.438 -0.1675  0.1458 -0.0785
17150W        W33284   0.219  12.292   2.207 -0.6060 -0.1905 -0.2041
17151W        W33285  19.282  11.307  13.679 -0.1016 -0.0466  0.1253
17152W        W33286  19.185  15.794   4.444 -0.0342 -0.5502 -0.2492
17153W        W33287  11.311   2.411  11.884  0.1100  0.4962 -0.2941
17154W        W33288  15.114  10.615  14.308  0.2832  0.0120  0.0083
17155W        W33289   0.759   8.347   2.011  0.0972  0.2742  0.1621
17156W        W33290   1.160   5.458   0.034  0.1806  0.0629 -0.1585
17157W        W33291  10.657   9.949  13.198  0.0319  0.2708 -0.0936
17158W        W33292  13.441   3.273  13.561 -0.0552 -0.1440  0.0238
17159W        W33293   1.199  16.187  14.308  0.1370  0.1559  0.1747
17160W        W33294   3.906   5.919   1.834 -0.0203 -0.3080 -0.0196
17161W        W33295   2.532  13.790   3.500 -0.0844  0.0343 -0.0251
17162W        W33296  16.543   0.800   1.111  0.1273 -0.4539 -0.2619
17163W        W33297   7.268  14.463  13.686 -0.2450  0.1758 -0.0503
17164W        W33298  17.028  14.368  11.670  0.0860 -0.0548  0.4436
17165W        W33299   3.152   4.416  13.616  0.0957  0.0521 -0.0556
17166W        W33300  13.361   0.200   6.393 -0.1301  0.1262  0.0229
17167W        W33301   7.824  13.924   0.643 -0.0541 -0.2826 -0.1257
17168W        W33302  15.873   2.223  12.623  0.0878 -0.0591  0.1352
17169W        W33303  12.993   9.131  11.916 -0.0035 -0.1543  0.0060
17170W        W33304   0.990   9.256  12.673 -0.2997  0.1817  0.0886
17171W        W33305   7.325   9.384  12.921 -0.5875  0.0400  0.2755
17172W        W33306   1.834  17.031  11.253  0.0183  0.2020  0.0443
17173W        W33307   9.537  15.886   0.654 -0.0172  0.0431 -0.3192
17174W        W33308   6.774   4.071   0.564 -0.2391  0.0297 -0.2549
17175W        W33309  10.491   5.974   4.235  0.1222 -0.0673  0.2682
17176W        W33310  18.799  13.432   1.060 -0.0939  0.2137 -0.1772
17177W        W33311  12.831   1.717  13.708  0.0083 -0.1848  0.1077
17178W        W33312  17.158  12.208   1.261 -0.0448  0.0079 -0.2031
17179W        W33313  10.923   0.605   3.293 -0.1085 -0.3694 -0.3634
17180W        W33314  13.585   7.125  10.825  0.0191 -0.1008  0.5563
17181W        W33315   9.604  11.227  10.851 -0.3329  0.5295 -0.1367
17182W        W33316  14.683   5.698  13.140 -0.1264  0.1371  0.3009
17183W        W33317  19.349   1.289   3.420  0.1176 -0.2868  0.1852
17184W        W33318   9.747   2.972   3.395  0.0721 -0.1370 -0.1360
17185W        W33319   5.650   0.397  13.602  0.1540  0.3149  0.0781
17186W        W33320   8.222  14.367   1.946  0.1235  0.1225 -0.4862
17187W        W33321  13.936  16.053  11.839  0.0092  0.0229 -0.1511
17188W        W33322   8.815  12.387  12.902 -0.0125  0.1971  0.0069
17189W        W33323   0.476   7.184  11.469  0.2633  0.1228 -0.2645
17190W        W33324  14.984  12.866  13.226  0.1509 -0.2799 -0.1102
17191W        W33325   5.966  19.119   3.690  0.1541  0.0527 -0.0960
17192W        W33326  11.267  10.534  12.383 -0.2380 -0.1847 -0.0198
17193W        W33327  18.865  16.473   4.431  0.0082  0.0229 -0.0857
17194W        W33328   1.070   8.262  10.435 -0.1114  0.0113 -0.0081
17195W        W33329  18.721   6.707  11.309  0.2554 -0.0884  0.2078
17196W        W33330   8.176   8.957   4.422 -0.2103 -0.0569  0.0141
17197W        W33331   2.929   4.465   1.291 -0.3033  0.1261 -0.1906
17198W        W33332   7.651   1.905   5.428  0.0262  0.1191 -0.0625
17199W        W33333  10.153  18.858   3.153 -0.0509 -0.0704  0.0241
17200W        W33334   3.961  15.053   1.958  0.0396  0.2995  0.0183
17201W        W33335   0.249  12.668   1.274 -0.0635 -0.1393 -0.2878
17202W        W33336   6.540   5.325   2.204 -0.3058 -0.1427 -0.0055
17203W        W33337   9.859   7.699   3.775  0.3058 -0.2390  0.0931
17204W        W33338   7.535  10.844   2.794  0.1051 -0.0498 -0.1414
17205W        W33339  14.223   5.620  14.349 -0.0379  0.1166  0.1602
17206W        W33340   6.562   0.155   2.477 -0.4398 -0.2925 -0.3670
17207W        W33341   3.205  11.507   3.759 -0.3935  0.3015 -0.2249
17208W        W33342   5.379  17.829   3.099 -0.3037  0.0417  0.1808
17209W        W33343  16.700   7.715  11.806 -0.2715  0.3882 -0.0859
17210W        W33344  14.511  15.935   3.958 -0.1586  0.2882 -0.0514
17211W        W33345   5.616   6.247  13.996 -0.3729  0.3714 -0.0631
17212W        W33346  17.374  13.642   3.893 -0.1219 -0.0091 -0.1225
17213W        W33347   5.694  10.134   2.755 -0.2304 -0.0075 -0.1910
17214W        W33348  17.287   8.231  13.832  0.0798  0.1117 -0.0701
17215W        W33349   8.358   7.841  14.167 -0.1242  0.1045  0.1323
17216W        W33350  14.931   7.056  10.147 -0.1584  0.0772 -0.2570
17217W        W33351   0.218   3.218  14.246 -0.0376 -0.0785  0.2801
17218W        W33352   9.081  13.485   1.003  0.0136  0.0868  0.2881
17219W        W33353   2.122   2.671   9.760 -0.2499 -0.2831 -0.3164
17220W        W33354   4.949   9.388  10.206  0.0151 -0.2628 -0.1548
17221W        W33355  17.608   5.708   3.321 -0.2901 -0.0138  0.2456
17222W        W33356   2.298   2.791   2.777 -0.1258  0.1540 -0.2127
17223W        W33357   3.109  16.365   1.091  0.1103  0.4634  0.0456
17224W        W33358   5.823  11.940   0.446  0.3450 -0.1039 -0.0442
17225W        W33359  17.955  11.658  13.066 -0.1696  0.3360  0.0390
17226W        W33360  12.827  10.342   3.107  0.2629 -0.3161  0.1160
17227W        W33361   0.521   5.948  14.487 -0.2625  0.0493  0.2122
17228W        W33362   6.124  12.663  11.695 -0.1878  0.1218 -0.1889
17229W        W33363  14.437   3.974   4.637 -0.0065  0.1777  0.2188
17230W        W33364   3.377   5.612   4.652 -0.3587  0.0485 -0.0620
17231W        W33365  14.866  13.636   5.482 -0.0236  0.0279 -0.1621
17232W        W33366   4.644   8.026   3.927 -0.3328 -0.0618  0.0113
17233W        W33367   8.476   8.295   1.108 -0.2002 -0.1433  0.1444
17234W        W33368   1.386   4.646  12.305  0.0120 -0.1766 -0.2630
17235W        W33369  14.659  17.703  10.495 -0.1236 -0.2902  0.0714
17236W        W33370  11.197   7.594  12.174 -0.3074  0.0721  0.0494
17237W        W33371  11.620  12.458  11.986 -0.2608 -0.2690 -0.0799
17238W        W33372  18.405  19.065   0.636  0.1098 -0.0045  0.3128
17239W        W33373   5.554  14.643  12.578  0.2600 -0.4294  0.1148
17240W        W33374   3.681  16.347   1.035  0.0043 -0.0622  0.0360
17241W        W33375   1.675  15.715   4.120  0.0084  0.0424 -0.0028
17242W        W33376  10.498  17.045  12.096  0.0624 -0.0723 -0.1166
17243W        W33377  10.567   5.165   2.639 -0.0986  0.0165  0.1999
17244W        W33378  19.321   8.043  13.740 -0.0421 -0.2562  0.2779
17245W        W33379  18.174   6.218  13.031  0.0400  0.1427  0.1306
17246W        W33380   6.761   5.171   9.636 -0.2512  0.1352 -0.0530
17247W        W33381   9.010  18.905  10.850 -0.1608  0.0296  0.0902
17248W        W33382  14.666  13.933  10.171  0.2695  0.1517  0.2328
17249W        W33383   4.312  12.420   3.279 -0.3729 -0.0489  0.1641
17250W        W33384  17.375  10.560  13.468  0.1745  0.0189 -0.0508
17251W        W33385  12.074   8.343   1.311 -0.3432 -0.0500 -0.1071
17252W        W33386   2.194   6.633   0.228 -0.3036 -0.2053 -0.2259
17253W        W33387   0.526   8.142  11.831 -0.2210 -0.0124  0.1073
17254W        W33388   6.482  11.162   1.814 -0.1601 -0.2586  0.1218
17255W        W33389  10.382   0.427   4.068  0.1073  0.1418  0.1137
17256W        W33390   9.067  16.003   0.677 -0.1903 -0.1702  0.1562
17257W        W33391  11.541  18.535  10.731  0.7316  0.0115  0.0705
17258W        W33392   7.195   9.352   0.801 -0.3242  0.0587  0.0834
17259W        W33393  11.825  15.629  13.376 -0.2793  0.0874  0.0545
17260W        W33394   5.824  11.792   1.210 -0.2519  0.1907 -0.2128
17261W        W33395  18.329  14.062  14.830  0.2195 -0.2127 -0.3088
17262W        W33396  13.978  19.233   0.995  0.0501 -0.0215 -0.4151
17263W        W33397  13.332  10.236   3.798  0.0457 -0.0301 -0.1335
17264W        W33398  11.906  10.870  11.351  0.1156 -0.0323  0.3585
17265W        W33399   1.843  10.589   3.595  0.1347 -0.1845 -0.2447
17266W        W33400  11.853   5.340  13.913  0.0220 -0.0616  0.0299
17267W        W33401  11.555  15.880   0.133  0.3941  0.0372 -0.4470
17268W        W33402   2.165   9.689  10.735  0.0847  0.1270 -0.0314
17269W        W33403   5.959  10.299  11.693  0.1939  0.1655  0.0739
17270W        W33404  11.345   3.420  12.472 -0.0749 -0.2389 -0.3180
17271W        W33405  12.997   1.811   4.977 -0.2866 -0.2157  0.0881
17272W        W33406  16.460  12.145   2.672 -0.0186  0.3212  0.1596
17273W        W33407  10.240   3.402  12.677 -0.0133  0.0779  0.0922
17274W        W33408   6.504  10.465  12.034  0.2777 -0.1606  0.1882
17275W        W33409  15.366   9.006   2.629  0.4117  0.1631  0.2416
17276W        W33410   0.154   9.971  13.665 -0.0506  0.3248 -0.2735
17277W        W33411  11.173  11.695   0.943 -0.1936 -0.0163  0.0674
17278W        W33412   4.926   8.996  12.986  0.2141 -0.0931 -0.0689
17279W        W33413  18.864  13.855   3.253  0.0627 -0.0319  0.1308
17280W        W33414   4.384   5.025  13.856  0.2306 -0.4261 -0.0669
17281W        W33415   6.693  10.622  12.657  0.2690 -0.3012 -0.1070
17282W        W33416  12.540   5.223   5.069 -0.1520  0.3362  0.1672
17283W        W33417  16.272  12.272  12.359  0.1158 -0.0419 -0.0388
17284W        W33418   3.107  16.075  14.818  0.1593 -0.0946 -0.3750
17285W        W33419  11.391   0.879  14.600 -0.3200 -0.2664 -0.1782
17286W        W33420   9.507   6.454   0.333  0.2110  0.3231  0.1526
17287W        W33421   1.159  12.486  11.160  0.2463  0.2229  0.1465
17288W        W33422  13.369   1.664   0.123  0.2004 -0.3466  0.2284
17289W        W33423   4.796  17.421   3.035  0.0775  0.1577  0.3322
17290W        W33424   8.299  16.967  11.610  0.0825  0.2394 -0.0267
17291W        W33425  12.319   5.129   1.257 -0.1179  0.1450  0.0810
17292W        W33426  13.914  10.341  12.562 -0.0930 -0.0285  0.1253
17293W        W33427  13.611   2.576   0.933 -0.0344  0.1726  0.0300
17294W        W33428   7.925   8.581   5.194 -0.4272 -0.2536 -0.0723
17295W        W33429  15.063  16.406  12.070 -0.0871  0.4855  0.1376
17296W        W33430   6.186   1.124   0.372  0.0677  0.0564  0.1830
17297W        W33431   6.874   5.320   4.527 -0.0304  0.0725  0.0915
17298W        W33432  15.609   1.859   4.150 -0.1407  0.0585  0.0998
17299W        W33433  15.809  11.875   0.427 -0.0214 -0.0285  0.4130
17300W        W33434   1.495  10.649  11.509 -0.2885 -0.0491 -0.0689
17301W        W33435  10.307   7.659  13.800  0.2478  0.2506 -0.0771
17302W        W33436   1.495   9.840  13.723 -0.1464  0.4396  0.1520
17303W        W33437  11.767   3.642  13.760  0.0856  0.2430 -0.0091
17304W        W33438  15.504  18.384   4.509 -0.1140  0.3160 -0.0275
17305W        W33439   9.806   9.493   1.163  0.2672  0.2245  0.0806
17306W        W33440  12.327   3.053   4.596  0.1458  0.0897  0.2460
17307W        W33441  18.115   3.767   0.531  0.2402  0.1800  0.3159
17308W        W33442   4.621   8.634   9.974 -0.1856 -0.0182 -0.1540
17309W        W33443   9.375  12.365   1.371 -0.1188  0.3498 -0.2265
17310W        W33444   3.720   3.284  13.059 -0.1048 -0.1888 -0.3371
17311W        W33445   7.869  18.171  11.361  0.2669 -0.2155 -0.3270
17312W        W33446   0.652   6.714  12.189 -0.5193 -0.3138 -0.2038
17313W        W33447   4.545   1.125   3.549  0.2985  0.2606 -0.0229
17314W        W33448   5.705   0.757  11.558 -0.0510 -0.0122 -0.1210
17315W        W33449   6.312  16.742  11.214 -0.2169 -0.3189 -0.2509
17316W        W33450  17.276   7.299   0.736 -0.0509  0.0158  0.0447
17317W        W33451   4.651   0.073  13.687 -0.0326  0.1987  0.0318
17318W        W33452  13.716  12.343   3.202  0.0332  0.0636  0.1820
17319W        W33453   7.118  11.316   4.498  0.1181 -0.0835  0.0451
17320W        W33454  13.545  11.492   1.444  0.0115 -0.3766  0.4022
17321W        W33455   6.884  11.873  12.596 -0.4027 -0.2523 -0.0667
17322W        W33456  15.509   3.140  11.268 -0.1251 -0.1752 -0.2192
17323W        W33457   9.519   9.835  14.133  0.1586 -0.0582  0.0379
17324W        W33458  15.019   4.644   0.304  0.0389  0.2918 -0.0179
17325W        W33459   1.303  17.967  11.445 -0.0122 -0.0827  0.2225
17326W        W33460   2.767   1.889   4.820  0.0068  0.0028 -0.0541
17327W        W33461   2.527  15.675   1.117 -0.1468  0.0305 -0.4253
17328W        W33462  19.149   1.113   2.987 -0.0807 -0.1576 -0.3393
17329W        W33463   1.340  15.662   5.020 -0.0342 -0.3477  0.2843
17330W        W33464   3.351   4.791   9.476 -0.0397 -0.0954  0.2317
17331W        W33465  12.211   8.243   2.270 -0.0247  0.4550 -0.0219
17332W        W33466   4.046   9.717   2.692 -0.3674  0.0985 -0.0077
17333W        W33467   5.544   3.005   2.031  0.1008 -0.1184  0.1343
17334W        W33468  16.669   4.318   2.645 -0.2802  0.0382  0.0878
17335W        W33469  10.831  15.924   3.973  0.3556 -0.2075 -0.0744
17336W        W33470  13.889   4.414  14.201  0.1091  0.2107 -0.0134
17337W        W33471  16.693  10.813   4.086  0.0366 -0.2225  0.0344
17338W        W33472  18.509  19.163  13.635 -0.1848  0.1631  0.1824
17339W        W33473   2.981   2.050   2.197 -0.1389 -0.0997  0.0183
17340W        W33474  16.523  15.398  14.150  0.2502 -0.1668 -0.4712
17341W        W33475   3.251  15.287  14.488  0.1125 -0.3503 -0.3300
17342W        W33476   9.742   4.199  12.270 -0.2080 -0.0098  0.0409
17343W        W33477   3.659  16.546   4.481 -0.1678  0.0075 -0.1071
17344W        W33478  17.204  14.264  13.319 -0.4889  0.1451  0.1601
17345W        W33479   8.917   4.889   3.401 -0.1127 -0.0676 -0.0110
17346W        W33480  13.156  11.398   5.308 -0.0163  0.3461 -0.0652
17347W        W33481   1.772   1.483  14.148  0.3273  0.3051  0.0561
17348W        W33482  15.754  15.108  10.699  0.0055 -0.2799  0.0293
17349W        W33483  13.536   4.321   1.120  0.0277  0.3227 -0.1712
17350W        W33484  10.648   6.538   2.749  0.1169  0.1576  0.2500
17351W        W33485   9.768   9.912  11.338 -0.4231 -0.1486  0.2327
17352W        W33486  10.558   8.145  14.539  0.2518  0.0127 -0.0643
17353W        W33487   7.998   6.293  13.917  0.0719  0.2141  0.0000
17354W        W33488  10.076  19.061   0.402  0.3947  0.0429  0.2591
17355W        W33489  16.813   7.388  12.234 -0.0623 -0.1041  0.0335
17356W        W33490   2.795  14.072   3.165 -0.2712  0.2018  0.0718
17357W        W33491   9.037   9.247  12.720  0.1912  0.2782 -0.1113
17358W        W33492  11.268   1.235   0.691 -0.3972  0.0516  0.1653
17359W        W33493  12.599  12.733   1.993 -0.0099 -0.0047 -0.0398
17360W        W33494   9.349  14.517  13.101 -0.1386  0.0603  0.0527
17361W        W33495  11.012  10.621  12.842 -0.0876  0.1582 -0.2397
17362W        W33496  12.080   7.594   3.460  0.0863 -0.0635  0.4165
17363W        W33497   8.352  11.404   3.022  0.4749  0.1063 -0.4512
17364W        W33498  12.193   2.626  11.576  0.1788 -0.0295 -0.1641
17365W        W33499   4.366   8.507   0.020 -0.1186  0.0860  0.1312
17366W        W33500   3.193   5.645   4.164 -0.1671  0.0919 -0.0703
17367W        W33501   0.611  11.308  14.946  0.1289  0.0117  0.1174
17368W        W33502  13.697  10.097  13.855  0.3079  0.1034 -0.1155
17369W        W33503   2.116  18.312  12.378  0.0929 -0.0092  0.3275
17370W        W33504   1.593   1.522  11.789 -0.1059 -0.0424  0.0278
17371W        W33505  15.288   6.049  14.913  0.2005  0.2387 -0.3137
17372W        W33506  18.817  16.120  11.889  0.0302  0.3455 -0.2153
17373W        W33507  13.401   8.027   3.341 -0.3435 -0.0041  0.0451
17374W        W33508   3.584   1.717  13.540 -0.0349 -0.1405 -0.1291
17375W        W33509  12.248   3.576  13.813  0.2161 -0.2806 -0.2076
17376W        W33510   1.936  11.446   3.229  0.3237 -0.3831 -0.0464
17377W        W33511   5.171  10.937  13.659  0.0882  0.0675  0.3640
17378W        W33512  19.306  13.954   4.116 -0.0243  0.0807 -0.2374
17379W        W33513  12.072  15.426  12.383  0.0125  0.1009 -0.0669
17380W        W33514   9.990  10.638  11.467 -0.0941 -0.4591  0.1161
17381W        W33515   1.884  15.970  14.594 -0.1631 -0.3775  0.1326
17382W        W33516   2.503   4.864  14.407 -0.4786 -0.1869 -0.0074
17383W        W33517   8.292   4.614  10.289  0.1566 -0.0573  0.2251
17384W        W33518   4.656   9.263  12.051 -0.0410  0.1261 -0.4196
17385W        W33519   8.196   2.644  10.962  0.2244  0.0159 -0.3047
17386W        W33520  18.658  13.162  10.647  0.0172  0.1488  0.1520
17387W        W33521  15.869   9.634  12.500 -0.0450 -0.2028  0.0168
17388W        W33522  18.450  13.268   1.981  0.2211  0.0722 -0.3659
17389W        W33523   3.655  15.515   2.752  0.2536 -0.0911  0.1106
17390W        W33524  18.380   6.556   2.492 -0.3060 -0.0483 -0.0670
17391W        W33525  13.493  13.455   0.972  0.1077  0.2199  0.1909
17392W        W33526  11.856   1.310  11.484 -0.1469 -0.0730  0.0580
17393W        W33527   6.117  12.123  14.546  0.0744  0.2345  0.0006
17394W        W33528  12.144   2.456  14.560  0.1634  0.2696  0.0025
17395W        W33529   4.696  12.249   0.796 -0.1291  0.0348  0.0808
17396W        W33530   1.280   1.137   0.897  0.0246 -0.0142  0.4010
17397W        W33531  10.678  13.398   1.317  0.0477  0.1063  0.0079
17398W        W33532  12.843  14.105  13.284 -0.0308 -0.5549 -0.0489
17399W        W33533   6.586  17.299  11.273  0.3127  0.2058 -0.0694
17400W        W33534  13.383   1.685  14.608  0.0289  0.0514  0.3975
17401W        W33535   2.576  11.915   0.776  0.5669  0.0211 -0.0115
17402W        W33536  14.152   3.596  13.006  0.1198  0.0941 -0.1229
17403W        W33537   8.335   8.249   2.814 -0.0234 -0.3586  0.0445
17404W        W33538   5.954   7.792   3.842 -0.1062 -0.1240  0.0979
17405W        W33539   4.432  15.196   0.226 -0.0857  0.0135  0.0627
17406W        W33540  11.238   0.110   1.352  0.0471  0.3100  0.0135
17407W        W33541   7.678   1.813  12.363  0.0488  0.3186 -0.0629
17408W        W33542   4.167  15.671  12.259 -0.2375 -0.1350  0.1469
17409W        W33543   9.528   8.133   3.107  0.0736 -0.4460 -0.4889
17410W        W33544  10.438   8.905   4.721  0.2924  0.3706  0.1364
17411W        W33545   2.577  18.059  12.980  0.0733  0.2128 -0.1050
17412W        W33546  12.390   3.835   3.892  0.0187  0.0295  0.0307
17413W        W33547   7.126   2.477   0.022  0.0015  0.2249 -0.0929
17414W        W33548  18.675  12.502  13.289 -0.1628 -0.0284 -0.0477
17415W        W33549  10.692   9.437   2.367 -0.3169 -0.0148  0.0980
17416W        W33550   2.074  13.745  14.408 -0.2254  0.1994  0.1236
17417W        W33551  10.982  14.544   0.773  0.1301 -0.0700  0.2290
17418W        W33552   5.270   8.669  11.695 -0.1153 -0.3131  0.1412
17419W        W33553   7.757   4.666  11.686 -0.0525 -0.0232 -0.2180
17420W        W33554   1.701   1.387   1.944 -0.2946 -0.2715  0.2556
17421W        W33555  13.776  16.056   0.316  0.2535  0.1617 -0.2228
17422W        W33556   9.914   4.325   3.349  0.1162  0.2882  0.2057
17423W        W33557   2.999   0.374  11.029 -0.1375 -0.3639  0.1254
17424W        W33558  18.046  18.526  11.182  0.0827 -0.4091  0.1831
17425W        W33559  14.236  15.035   4.381 -0.1644 -0.1033 -0.0930
17426W        W33560   2.604  18.472   2.335 -0.5759 -0.0614  0.2658
17427W        W33561   9.809  16.058   1.544  0.0512  0.0265 -0.1042
17428W        W33562  14.516   4.609   3.788  0.1236  0.1369  0.0115
17429W        W33563   3.295   7.729   3.661  0.0456 -0.0428  0.1197
17430W        W33564   0.099  12.881  11.710  0.1118  0.2708  0.1782
17431W        W33565   1.706   2.483  10.056 -0.1134  0.1658  0.3092
17432W        W33566   9.907  10.327   9.772 -0.0833 -0.1774 -0.1448
17433W        W33567  13.141   9.678   5.462 -0.1812  0.0796 -0.2804
17434W        W33568  17.878   2.297  10.210  0.2229 -0.3367  0.3093
17435W        W33569   1.375   4.929   2.932 -0.1337  0.0243  0.0247
17436W        W33570   5.951  19.128  11.176  0.1256 -0.0016  0.1329
17437W        W33571   3.805   1.188  10.256  0.0991  0.2665  0.2305
17438W        W33572  18.852   2.249   0.129  0.0411 -0.1015 -0.0745
17439W        W33573  11.311  11.807   0.490 -0.3018  0.0345  0.1694
17440W        W33574   5.105   8.983   3.044  0.0151 -0.0401  0.3843
17441W        W33575   6.419  10.400   0.396 -0.0599  0.1929  0.0873
17442W        W33576   6.257   2.549  13.543  0.2314  0.0944 -0.2580
17443W        W33577   6.146  10.072  12.135  0.1230  0.2064 -0.1219
17444W        W33578  12.935  11.654   2.452  0.2100  0.2176  0.3517
17445W        W33579   0.642   1.735   4.633  0.4557 -0.3459  0.0073
17446W        W33580  15.897  15.734   3.269 -0.2466  0.0245  0.1155
17447W        W33581  10.328   3.177  14.141 -0.1184 -0.4857  0.0031
17448W        W33582  11.704  10.519   0.200  0.1520  0.1446  0.1263
17449W        W33583  14.521  16.972   4.847  0.0613  0.0561 -0.2627
17450W        W33584   1.928   0.339   0.771  0.4354  0.0153 -0.0196
17451W        W33585  18.071  18.065  12.405  0.0273  0.0313  0.1033
17452W        W33586   6.178   0.251  11.328  0.1790 -0.1213  0.2660
17453W        W33587  13.642  15.875   3.505  0.3032  0.2549 -0.0813
17454W        W33588  16.778   4.420   4.136  0.2627 -0.2066 -0.1399
17455W        W33589   4.374   2.252  14.687  0.1552  0.2017  0.3387
17456W        W33590  11.319  12.940   1.911  0.1189 -0.3851  0.2235
17457W        W33591   9.287   9.170   1.874  0.0916  0.3348 -0.0896
17458W        W33592   0.961  10.961  13.720 -0.0364 -0.0568  0.0030
17459W        W33593   9.564   4.376   0.558 -0.0430 -0.1319 -0.4193
17460W        W33594  17.460   9.760   4.229  0.0930  0.3281 -0.2185
17461W        W33595   5.412   7.974   1.715  0.0013 -0.1468 -0.0566
17462W        W33596  11.046   9.387   1.556 -0.1038  0.0417 -0.1718
17463W        W33597   3.635   2.164  10.443  0.0439  0.1717 -0.0038
17464W        W33598  12.354   5.215   4.223  0.1163  0.3639  0.5783
17465W        W33599  10.127  11.932   0.528 -0.2061  0.1359 -0.1420
17466W        W33600  12.339  17.345   4.608 -0.3422  0.0447  0.0680
17467W        W33601   3.658  12.689   0.762  0.2046  0.0025  0.0258
17468W        W33602  18.959  14.388  11.032 -0.4034 -0.1875  0.1567
17469W        W33603  16.039  10.469   0.914 -0.2979  0.2151  0.0473
17470W        W33604   3.249  10.360   3.429 -0.3737 -0.2036  0.1520
17471W        W33605   8.532   2.776  10.234 -0.1090  0.0201  0.1177
17472W        W33606   5.698   9.165  12.371  0.3323  0.0160  0.2218
17473W        W33607  14.598  12.478  11.402 -0.2241 -0.0824 -0.1875
17474W        W33608  17.085   8.513   1.792  0.2410 -0.2026  0.1374
17475W        W33609  12.250   0.131  13.931  0.0708 -0.1268  0.0156
17476W        W33610  11.255  11.310   3.601  0.0379  0.5322 -0.0622
17477W        W33611   5.660  10.024  11.929 -0.2951  0.1941 -0.3779
17478W        W33612   4.776  15.502   0.455  0.2131  0.1412 -0.2741
17479W        W33613   7.836  11.199  14.058  0.2676  0.1162  0.0423
17480W        W33614   5.354   1.626   2.155 -0.4688 -0.2106  0.3224
17481W        W33615   1.004   6.018  11.387  0.2455  0.0577 -0.2407
17482W        W33616   4.869   0.675   1.475 -0.0307 -0.1658 -0.0057
17483W        W33617   8.529   5.055   5.329 -0.0703 -0.2663  0.2985
17484W        W33618  13.995   7.248   1.756  0.0394 -0.2419 -0.0885
17485W        W33619   2.843   3.619   0.839  0.0117 -0.0710  0.1517
17486W        W33620   8.087  12.661   3.777  0.1650 -0.1335  0.1025
17487W        W33621   3.785   3.649   9.717 -0.3023 -0.2132 -0.2192
17488W        W33622   5.661  10.790  14.052  0.0410  0.0082  0.0361
17489W        W33623  17.362  19.036   1.711  0.3451  0.2384  0.0465
17490W        W33624   7.284  10.809   4.433 -0.1446  0.0915  0.2682
17491W        W33625   2.100   8.621  13.153  0.1740 -0.5295  0.1152
17492W        W33626  14.687  12.409   1.851  0.0999  0.3484  0.1697
17493W        W33627   0.832   5.261  12.819 -0.2314  0.1857 -0.0609
17494W        W33628  12.175  16.109  13.371 -0.0026  0.0036 -0.1046
17495W        W33629  18.485   2.762  11.718  0.1652  0.1081 -0.1595
17496W        W33630   2.394  12.451   9.024 -0.1670 -0.2944 -0.1731
17497W        W33631  14.001  15.499   4.351  0.2098  0.0917 -0.0818
17498W        W33632  12.675  12.422  12.789  0.2535 -0.2909  0.2442
17499W        W33633  18.090   4.606  10.275  0.1900  0.0727 -0.0960
17500W        W33634  10.461   5.538  14.429 -0.3502  0.0201  0.0515
17501W        W33635  16.407  13.306  10.659  0.1141 -0.4171 -0.2663
17502W        W33636  16.156   3.306  12.856  0.1974 -0.2279 -0.1663
17503W        W33637  14.379   7.852  14.003  0.0185  0.0257  0.1490
17504W        W33638   6.088  13.708   5.269  0.4086  0.0688  0.2585
17505W        W33639   8.004   3.072   4.905 -0.0018  0.2175 -0.0994
17506W        W33640  13.323   8.336  12.302  0.0034  0.0254  0.0444
17507W        W33641   9.534   8.269  11.588 -0.3095 -0.1182  0.0408
17508W        W33642  12.590  18.240   1.289 -0.0556  0.1995 -0.2448
17509W        W33643  14.717  16.416   2.058 -0.0655  0.2386 -0.1410
17510W        W33644   2.110   2.126   0.454  0.0614  0.0690 -0.0879
17511W        W33645  10.049  13.194   4.253  0.2138  0.0428 -0.0776
17512W        W33646  10.489  11.802   0.118  0.0300  0.1307 -0.1653
17513W        W33647  17.568   7.555   2.474 -0.3670 -0.0357  0.0057
17514W        W33648  18.120   2.915  10.927  0.0204 -0.0909 -0.2773
17515W        W33649   0.891   0.833   0.772 -0.1755  0.5120  0.3501
17516W        W33650   4.633  10.504  10.209 -0.0593  0.1337 -0.1360
17517W        W33651   0.786   2.900  11.852  0.1880  0.2996 -0.3050
17518W        W33652   3.566   9.644   2.912 -0.1986 -0.2198 -0.3631
17519W        W33653  16.197   2.310   2.074 -0.1505 -0.0594 -0.1194
17520W        W33654   5.211  17.487  13.488 -0.0201  0.1551  0.0539
17521W        W33655   8.150  16.806   1.358  0.0549  0.1274  0.1253
17522W        W33656   0.405  18.005   4.715 -0.0701  0.3448  0.0771
17523W        W33657  14.057   2.913   4.397 -0.2601 -0.1084 -0.0826
17524W        W33658   0.468   4.330   0.925 -0.2301  0.4676 -0.0311
17525W        W33659  15.947  12.399   3.982  0.3410 -0.0661 -0.3521
17526W        W33660   2.646   5.678  14.943  0.0334  0.2207 -0.1134
17527W        W33661   3.578   4.125   2.530 -0.1245  0.0785 -0.3230
17528W        W33662   6.337  10.698  14.909  0.1073  0.0407 -0.2392
17529W        W33663   2.918  16.383   3.949  0.4035 -0.0847 -0.1559
17530W        W33664   5.096   1.896   0.597 -0.0612 -0.1571  0.1167
17531W        W33665  15.624   0.536   2.759 -0.1313  0.1946 -0.2128
17532W        W33666   6.311  11.035  12.390 -0.2282  0.0438 -0.0477
17533W        W33667   7.823  16.660   1.052  0.4556 -0.0905  0.0616
17534W        W33668  10.684  13.127  10.306  0.0965  0.0914 -0.0382
17535W        W33669   0.054   3.656   4.534 -0.2129  0.0371 -0.0197
17536W        W33670  13.930   5.868  13.410 -0.0637 -0.0397  0.1625
17537W        W33671  15.565   6.392  12.270  0.3639 -0.1853  0.0513
17538W        W33672   5.234  14.815   4.856 -0.1880  0.1088 -0.1522
17539W        W33673  15.205   9.296  12.389 -0.1189 -0.2615  0.1901
17540W        W33674  18.994   8.190   3.671 -0.0576  0.2921  0.0671
17541W        W33675  16.436  13.027  12.067  0.1137  0.0504  0.6211
17542W        W33676  13.823   3.012   1.025  0.0658  0.2454 -0.1084
17543W        W33677   9.564  15.357   3.512 -0.1928  0.0718  0.3120
17544W        W33678   4.789  13.756  14.440 -0.0395 -0.0676  0.3183
17545W        W33679  10.285   9.406  10.500  0.1154  0.5196 -0.1506
17546W        W33680   9.007   0.660   4.060  0.2477 -0.1877  0.1533
17547W        W33681  12.633   3.671   1.267  0.0037  0.0330  0.1213
17548W        W33682   9.470   6.580  14.297  0.0133 -0.0405  0.2437
17549W        W33683  12.109   4.605   9.967  0.0610 -0.2257 -0.1052
17550W        W33684  12.088   2.600   0.357  0.0670 -0.1058 -0.0986
17551W        W33685  14.330   8.922   4.852  0.2457  0.0863  0.0811
17552W        W33686   1.443   4.176   2.549 -0.0813  0.0981 -0.1437
17553W        W33687   8.311   7.217  12.478 -0.0245  0.2642 -0.0823
17554W        W33688  15.981  10.994   2.924  0.1414 -0.0399  0.1350
17555W        W33689   3.326   4.169  14.020  0.0228 -0.0003 -0.1558
17556W        W33690   3.929   7.416  14.058 -0.3481  0.0452 -0.3476
17557W        W33691  15.614  14.436   4.644  0.3597  0.5832 -0.2002
17558W        W33692  13.175  13.450  14.931  0.1693 -0.2441 -0.3319
17559W        W33693  15.030   7.657  12.953  0.0727  0.0163 -0.2053
17560W        W33694  16.121   9.179  11.710 -0.0742 -0.0779  0.0911
17561W        W33695  10.555   0.892   4.943 -0.1071 -0.0902 -0.0430
17562W        W33696   3.329  17.158  14.255 -0.2239  0.0326 -0.1991
17563W        W33697   5.048   3.067   1.895 -0.3388  0.0445  0.0976
17564W        W33698   6.317   6.984  12.643 -0.1013 -0.1790 -0.5233
17565W        W33699  16.806   0.294   1.144  0.1776  0.3314  0.0222
17566W        W33700   7.262   2.218  14.471 -0.0856 -0.0069  0.3521
17567W        W33701  18.957   2.353  14.527  0.2795  0.2540  0.0245
17568W        W33702   7.093   5.879  11.842 -0.0893  0.0185  0.1973
17569W        W33703   9.245  17.234   0.494  0.1464  0.3292 -0.5569
17570W        W33704  19.108  18.109   3.921 -0.1391 -0.4139 -0.2202
17571W        W33705  16.385   4.056   1.769 -0.3663  0.3883  0.2043
17572W        W33706   2.438   1.602   9.908  0.2874 -0.1692  0.1140
17573W        W33707   5.553   3.705  11.828 -0.1648 -0.0165  0.2964
17574W        W33708   0.583  16.041   3.847  0.1986  0.0334  0.1435
17575W        W33709   3.462   4.804   3.546  0.3401 -0.0121 -0.0769
17576W        W33710   4.338  12.664  10.862 -0.1177  0.2692 -0.1125
17577W        W33711  16.853   8.758   4.601 -0.0351  0.1611 -0.2924
17578W        W33712  18.224   1.324  12.614  0.1020  0.2307  0.2137
17579W        W33713  14.604   0.181  14.962 -0.2962  0.0030 -0.0148
17580W        W33714  17.745  14.102   0.984 -0.3054 -0.1183  0.2853
17581W        W33715   7.502  17.955  12.300  0.1819  0.0589 -0.1705
17582W        W33716  14.734   4.915  14.248 -0.0720 -0.1941  0.2507
17583W        W33717   4.446   9.222   3.362  0.5846  0.0284 -0.1521
17584W        W33718  18.444   1.394   2.284 -0.1312 -0.0322 -0.1046
17585W        W33719   0.192   9.738  11.411 -0.0034 -0.0794  0.0242
17586W        W33720  14.782  12.316   2.866 -0.2246 -0.2399  0.0481
17587W        W33721   6.531  18.576   2.951 -0.1315  0.2748 -0.0746
17588W        W33722  15.938   6.725   4.383  0.0045 -0.2616 -0.1750
17589W        W33723   3.432  12.334   1.051 -0.0376 -0.0438 -0.0176
17590W        W33724  14.827  11.052   1.639 -0.2932  0.3799 -0.0574
17591W        W33725   7.665   0.033   3.173 -0.2864  0.1784 -0.0956
17592W        W33726   1.213   8.785   0.292  0.0363  0.0673 -0.2070
17593W        W33727   7.335  16.042  12.357 -0.0357 -0.1090 -0.1477
17594W        W33728   9.778   3.572  12.867  0.0011  0.2613  0.1876
17595W        W33729  17.492   2.801   3.369 -0.0943 -0.0158  0.0745
17596W        W33730   0.946  14.486   0.428  0.0646 -0.1428  0.2241
17597W        W33731   7.503  18.968   3.904  0.2794  0.0303  0.0423
17598W        W33732   7.114  15.080   9.880  0.0835 -0.0263 -0.2489
17599W        W33733   4.092   9.307   4.385  0.0723  0.1296  0.0941
17600W        W33734  16.665  16.558  11.869 -0.1814  0.2098 -0.0024
17601W        W33735   1.216  14.131   3.093 -0.0517  0.1666 -0.4713
17602W        W33736  14.652  13.065  11.485 -0.0081 -0.0303  0.1808
17603W        W33737  15.435  14.976   9.870 -0.1933 -0.3504 -0.2054
17604W        W33738  15.580  16.430  14.135 -0.3674  0.2284  0.0323
17605W        W33739  12.988   1.239   1.355  0.0781  0.2628 -0.2127
17606W        W33740   2.046  18.964   3.786 -0.2505 -0.1480  0.1080
17607W        W33741  18.034  12.868  14.683 -0.0075  0.0662 -0.0989
17608W        W33742   5.151   7.497  12.019 -0.0460 -0.1999  0.0834
17609W        W33743  18.700   4.541   2.036  0.0648  0.0171 -0.2214
17610W        W33744  16.892  15.613  12.153  0.1314  0.1049  0.0089
17611W        W33745  12.766   9.746  12.535  0.0127  0.3981  0.2523
17612W        W33746   7.844   5.374   0.863 -0.1430 -0.3072 -0.1919
17613W        W33747   8.529   8.652  14.395 -0.1610  0.3606 -0.1561
17614W        W33748  17.481   2.082   4.429 -0.2131 -0.1105  0.0678
17615W        W33749  15.442   3.794  12.509 -0.4834 -0.0068 -0.0369
17616W        W33750   4.505   6.863  10.968  0.2103  0.0930  0.0076
17617W        W33751   0.264  17.611   1.179 -0.3275  0.1988  0.2617
17618W        W33752   4.997  18.312   4.433  0.1170 -0.3425 -0.1717
17619W        W33753   5.738  16.075   5.086 -0.1815 -0.0674  0.3085
17620W        W33754   3.302  11.480   4.472  0.0644  0.0390 -0.1899
17621W        W33755  17.538   0.579   2.099 -0.0572 -0.1553  0.1751
17622W        W33756   3.674  13.161  12.170  0.1737  0.1326 -0.2421
17623W        W33757  11.918   3.111  11.586 -0.4241  0.1341 -0.3420
17624W        W33758   0.219  17.288   4.551  0.0445  0.1367 -0.0411
17625W        W33759  13.501  10.699  13.063 -0.1446  0.0526 -0.2154
17626W        W33760   3.690  18.773  12.348  0.0444  0.0369 -0.0398
17627W        W33761   6.592  19.183  10.051 -0.3572  0.0090  0.2067
17628W        W33762  12.117  14.707   5.248 -0.0314  0.1552  0.0483
17629W        W33763  17.647   7.132  11.680  0.2474  0.0477  0.1997
17630W        W33764   6.760   4.943   1.552  0.2537 -0.0914  0.1051
17631W        W33765  10.705  13.666  10.003 -0.0503 -0.1112 -0.0524
17632W        W33766   9.022   1.884  13.187 -0.0796  0.0337 -0.1515
17633W        W33767   2.288  18.569   0.802  0.4406 -0.0013 -0.1177
17634W        W33768  11.136  11.638   2.788 -0.2400 -0.3990  0.1073
17635W        W33769  14.000   2.108  14.064 -0.0123  0.3005  0.0888
17636W        W33770   4.043  10.361   4.120 -0.0430 -0.1752  0.1017
17637W        W33771  14.302   9.991   3.021  0.2264 -0.4178 -0.2386
17638W        W33772   9.809   1.058  14.195  0.2312  0.1959  0.0446
17639W        W33773   6.757  10.942   0.641 -0.0862 -0.0915  0.2577
17640W        W33774  15.089   9.166  14.231  0.0035 -0.1547  0.0536
17641W        W33775  16.487   4.126   4.439 -0.0282 -0.1037  0.5111
17642W        W33776   6.254  12.014  10.433 -0.0097  0.0556 -0.2244
17643W        W33777   0.358   7.956   3.232 -0.2543 -0.0266  0.3078
17644W        W33778  12.113  16.763  14.626  0.0944  0.1391  0.0213
17645W        W33779  16.000   2.086   4.312  0.1645 -0.0058  0.0054
17646W        W33780   0.425   7.447  11.032 -0.0510 -0.2162  0.3219
17647W        W33781   4.179  19.035   0.889  0.0567 -0.0946 -0.1733
17648W        W33782  13.839  17.851  14.311  0.4877 -0.0164  0.3339
17649W        W33783  11.850  10.575   3.119 -0.0354  0.1149  0.1517
17650W        W33784   5.185  15.117   3.599 -0.0753  0.0291 -0.0808
17651W        W33785  12.810   4.695  11.209 -0.0824 -0.1595  0.0265
17652W        W33786   3.249  17.041   1.519  0.1876 -0.4226 -0.0269
17653W        W33787   0.149  17.959  10.188  0.0813 -0.0390  0.1887
17654W        W33788   5.471  17.000   2.270 -0.1220  0.1749 -0.0392
17655W        W33789  14.700   8.743  11.112 -0.1516  0.2705  0.1184
17656W        W33790  15.809   9.886  10.499 -0.2467 -0.2180  0.1319
17657W        W33791   1.073  15.344  12.732  0.0171  0.3335 -0.1743
17658W        W33792   3.786   3.670   0.534 -0.1427 -0.3859  0.0463
17659W        W33793   9.834  14.075   4.842  0.1787  0.0269  0.0899
17660W        W33794   6.392  17.336   1.967 -0.1952 -0.2375 -0.0324
17661W        W33795   8.568   0.474   3.810  0.3322 -0.5075 -0.0303
17662W        W33796   1.197  10.959   4.664 -0.1849  0.2448  0.1050
17663W        W33797  18.320  13.478  13.161 -0.1794  0.1249  0.1436
17664W        W33798   0.863  10.395   0.859  0.0168 -0.1765 -0.0641
17665W        W33799   7.598   0.462   2.789  0.2591  0.1577 -0.3729
17666W        W33800   3.738  14.985  14.903  0.1183  0.1334 -0.1425
17667W        W33801  16.575   5.979  11.925  0.0622  0.0267 -0.1382
17668W        W33802   3.367   1.495   0.768 -0.1780  0.1714  0.1630
17669W        W33803  13.914  16.531  13.241  0.1573 -0.0536 -0.0803
17670W        W33804   4.291  18.191   0.646 -0.2088  0.0330 -0.2584
17671W        W33805  12.461   4.977  11.521 -0.3274  0.0570 -0.0807
17672W        W33806   5.409  12.860   4.008 -0.0314  0.0689 -0.2834
17673W        W33807   4.146  18.647   4.642 -0.0873  0.1192 -0.0221
17674W        W33808   2.451   6.118   0.905  0.0779  0.3966  0.1785
17675W        W33809  15.841  12.604  12.557 -0.0074  0.1399  0.0700
17676W        W33810   7.090   5.840  14.702  0.1409 -0.1162 -0.0445
17677W        W33811  16.051  19.057   3.993  0.0561 -0.2815 -0.1760
17678W        W33812  13.867  15.678   5.802  0.0157  0.1629 -0.1916
17679W        W33813   0.848   7.980   3.342 -0.0534 -0.3134  0.3874
17680W        W33814  17.780   7.450   1.887 -0.0392 -0.0970  0.0126
17681W        W33815   3.176   9.663  12.894 -0.0815 -0.2385 -0.2561
17682W        W33816   6.166   2.644   4.748 -0.3558  0.1541 -0.1863
17683W        W33817  13.910   2.857  12.325  0.5311  0.2844 -0.0820
17684W        W33818   0.937  15.645   4.615  0.0183  0.4454  0.1724
17685W        W33819  11.872   6.342  12.482  0.1119  0.0803  0.1711
17686W        W33820  16.593  13.641   5.004  0.0910 -0.1808 -0.1845
17687W        W33821   0.616   1.518   2.834  0.0599 -0.1573  0.0998
17688W        W33822  13.411   2.154   4.752 -0.1876 -0.1267 -0.0030
17689W        W33823   0.756  11.528   2.812 -0.1509  0.4160 -0.3737
17690W        W33824   2.916   3.055  13.524  0.1425  0.1171  0.2345
17691W        W33825   8.526  13.239  13.987  0.1984  0.1154 -0.1909
17692W        W33826  13.082   8.149   2.063 -0.0590 -0.2121  0.0487
17693W        W33827   5.964   4.825   3.262 -0.1568  0.2542 -0.1039
17694W        W33828   6.694   9.282   2.544 -0.0591  0.0273  0.1050
17695W        W33829  13.556  12.153  11.274  0.1560 -0.0765  0.1192
17696W        W33830   6.472  13.276  12.303  0.3720  0.0952 -0.0732
17697W        W33831  19.020   9.541  11.265 -0.1096  0.3138  0.2514
17698W        W33832   6.518   4.189   9.881  0.4256  0.1320 -0.3093
17699W        W33833  18.419   5.607   9.495  0.3527  0.3467 -0.0095
17700W        W33834  13.321  12.192  12.631 -0.2889  0.0284 -0.0632
17701W        W33835   3.194  15.805  11.751 -0.0229  0.1019  0.2711
17702W        W33836  16.906   4.296  11.109 -0.0376  0.1107 -0.2364
17703W        W33837   7.145  12.794   2.825  0.0127  0.0796 -0.3534
17704W        W33838  10.758  10.782   3.094 -0.0821  0.1441 -0.0574
17705W        W33839   0.591   0.778  10.674  0.4657  0.0673 -0.1662
17706W        W33840   1.550   8.194  10.556 -0.1430  0.0787 -0.1884
17707W        W33841   8.421  15.005  12.051 -0.2034 -0.1523  0.0054
17708W        W33842  18.687   0.585  13.105  0.0388 -0.2847  0.1049
17709W        W33843   6.579  13.937   0.201  0.1689  0.3449  0.3769
17710W        W33844  18.706   1.930   0.625  0.1217 -0.0628 -0.0335
17711W        W33845   7.432  12.693   0.746  0.1367  0.0210  0.2938
17712W        W33846  16.512  19.019   5.137  0.2108  0.1189  0.0851
17713W        W33847   5.832  13.598  13.106 -0.0522 -0.0710 -0.1032
17714W        W33848  11.044   2.427  13.373 -0.1614  0.3494  0.0770
17715W        W33849  19.181   0.540   3.149  0.2685  0.4248 -0.2204
17716W        W33850  14.548  13.616   1.003  0.0786 -0.1034 -0.1113
17717W        W33851   2.886   4.667   4.041  0.4097 -0.3404  0.1759
17718W        W33852  18.928   5.825  10.308  0.0364 -0.1745 -0.2797
17719W        W33853   3.374  18.103   3.725  0.3025 -0.0255  0.0213
17720W        W33854  11.218  13.884  14.324  0.2331 -0.0783  0.1351
17721W        W33855  14.280   5.387   3.280 -0.1019 -0.1023  0.3362
17722W        W33856   3.025   6.912  14.707  0.0756  0.2363  0.0299
17723W        W33857   0.699   2.093   0.518 -0.2174 -0.1745  0.2209
17724W        W33858   2.039  12.381   2.879 -0.1423 -0.0363 -0.2726
17725W        W33859  15.590  14.088   0.517  0.1173 -0.0751  0.1610
17726W        W33860  18.803   5.497   4.425 -0.0867  0.0324 -0.0893
17727W        W33861  11.999   8.417  10.334 -0.3290  0.0877 -0.2610
17728W        W33862  10.297   4.594  11.451  0.2953 -0.1285 -0.2473
17729W        W33863   7.446   9.951  14.593 -0.0792  0.0848  0.1791
17730W        W33864  13.730  13.547   2.142 -0.1793 -0.4567 -0.3305
17731W        W33865   4.480   8.473  13.636  0.0854  0.2375 -0.1954
17732W        W33866   7.614   7.499   0.228 -0.0691 -0.1573  0.0094
17733W        W33867  18.008   0.855  13.596  0.1993 -0.0512 -0.1987
17734W        W33868   0.233  12.344   0.474  0.1761 -0.1590  0.0090
17735W        W33869   9.143   8.225   0.126  0.1962 -0.4250 -0.3501
17736W        W33870   5.450  12.338  13.811  0.2176 -0.0953 -0.3023
17737W        W33871   1.804  14.951   2.869  0.0502 -0.3322 -0.2817
17738W        W33872   9.510   2.400  14.779 -0.0467  0.2899 -0.1991
17739W        W33873   7.188   3.840   2.272 -0.3678  0.2674 -0.2763
17740W        W33874   5.279   5.671   2.397  0.2511  0.0155  0.0413
17741W        W33875  12.922  16.760  14.493  0.1121  0.2862 -0.3035
17742W        W33876   8.327   9.739  11.562  0.0028 -0.1557  0.1484
17743W        W33877  14.518   0.290   4.989  0.0167 -0.0070  0.1410
17744W        W33878  13.815   1.211   3.380 -0.2053  0.1651  0.1759
17745W        W33879  15.272  14.933  14.905 -0.0240  0.0636  0.0335
17746W        W33880   1.597   6.946   3.727  0.3181 -0.1499 -0.0292
17747W        W33881  11.245  17.591  14.155  0.0496 -0.1339 -0.1175
17748W        W33882   8.677   5.238  10.755 -0.0712  0.2232  0.2195
17749W        W33883  18.678   0.984   4.760 -0.2050 -0.0724  0.2833
17750W        W33884   9.570  12.511  12.021  0.2855  0.2532 -0.0401
17751W        W33885  13.145  13.830  12.949 -0.1299  0.0742  0.0362
17752W        W33886  14.087   2.652   1.290  0.4407 -0.2125  0.3538
17753W        W33887  15.229  14.612   2.168  0.2429 -0.2589  0.1078
17754W        W33888   5.498   3.629  14.209 -0.1199 -0.4527 -0.0155
17755W        W33889   5.617  10.154   0.922 -0.0023 -0.3994  0.1900
17756W        W33890   6.073   3.650  11.705 -0.2562  0.0156 -0.1281
17757W        W33891   0.546  14.117   1.351 -0.0320 -0.1755  0.0716
17758W        W33892  14.308   8.595   3.056 -0.1463  0.1258  0.1022
17759W        W33893  18.003   9.190   4.575 -0.0441  0.0489 -0.1229
17760W        W33894   5.952  10.074   1.742 -0.0233  0.7240 -0.0171
17761W        W33895  14.871   0.915  13.373 -0.1268  0.2639  0.1311
17762W        W33896   0.622  18.624  10.445  0.2090 -0.0209  0.0225
17763W        W33897   9.454   0.521   2.441 -0.1227  0.4576  0.2283
17764W        W33898  16.261   4.001  14.971 -0.2063  0.0311  0.0119
17765W        W33899  10.332   1.475   3.901  0.0082 -0.0339  0.0689
17766W        W33900   0.694  11.527  12.098  0.0798 -0.1878 -0.1258
17767W        W33901   4.852   1.992  10.635 -0.1192  0.0533  0.1895
17768W        W33902   4.482  12.297   1.311  0.2312 -0.0680  0.1217
17769W        W33903   8.899  13.379   1.648 -0.0101 -0.0020 -0.0331
17770W        W33904   0.192   9.641   3.053  0.1261 -0.0543  0.0593
17771W        W33905  15.104  14.364  14.599  0.2121 -0.2228 -0.1515
17772W        W33906  15.778   2.445  12.165  0.0687  0.3449 -0.1134
17773W        W33907  17.067   0.722   4.167 -0.1515  0.1124  0.4166
17774W        W33908  10.772   4.263  14.754  0.1908 -0.0669  0.2593
17775W        W33909  17.480   8.150   2.890 -0.1034 -0.3019 -0.0754
17776W        W33910   0.562  15.589   2.004 -0.2698  0.1158 -0.0857
17777W        W33911   3.438   1.607  11.513 -0.1039  0.1993  0.1430
17778W        W33912  17.938  14.000  12.231  0.0087 -0.2325  0.3602
17779W        W33913   9.712   0.390  14.863  0.0343  0.0554 -0.2911
17780W        W33914  11.551  17.015   0.437  0.2537 -0.3682 -0.1388
17781W        W33915   5.560   7.719   4.643 -0.1124 -0.0814  0.0070
17782W        W33916   5.063  15.706  12.395 -0.0138 -0.2761  0.4166
17783W        W33917   2.108  14.107  12.583  0.0628  0.0736  0.0531
17784W        W33918   4.669   9.188   1.292  0.0784  0.0607 -0.1843
17785W        W33919   9.397  16.462   2.139 -0.0798 -0.4495 -0.0514
17786W        W33920   2.982  14.186  12.240 -0.0488 -0.1898  0.1938
17787W        W33921   8.378  11.358  10.371 -0.1273 -0.1223 -0.2711
17788W        W33922  19.051   8.234   1.919  0.0058 -0.0420 -0.0897
17789W        W33923   3.354  12.347   2.296 -0.1066  0.0055  0.0030
17790W        W33924  19.140  18.777  13.789 -0.4301 -0.3993 -0.0614
17791W        W33925  11.372  10.239  11.748 -0.2043 -0.0652 -0.0747
17792W        W33926  16.558   8.185   4.051  0.3345 -0.1037 -0.0921
17793W        W33927   8.259   6.446   1.783 -0.0810  0.7040 -0.2586
17794W        W33928   7.476   5.258  11.254  0.1817 -0.0692 -0.0218
17795W        W33929  12.140  10.585   5.086  0.4639 -0.3104  0.3185
17796W        W33930  15.105  15.512   4.989  0.2069 -0.0052  0.0604
17797W        W33931   1.747   2.657   2.055 -0.1557  0.0002 -0.1362
17798W        W33932  11.491  10.198  10.515 -0.1355  0.0215  0.0629
17799W        W33933   2.923  18.689   3.963  0.3087 -0.0098 -0.0572
17800W        W33934  16.722   7.713   4.384  0.0406  0.2876 -0.0326
17801W        W33935   9.137  14.293   3.162  0.1661  0.0099  0.1292
17802W        W33936   2.212  13.034   0.603  0.1053  0.0593 -0.0960
17803W        W33937  15.519  15.268   1.263 -0.0645  0.0144  0.3769
17804W        W33938  18.161   3.980  11.501 -0.1584  0.2013  0.2329
17805W        W33939   5.683   1.398   2.453 -0.2531  0.1697  0.3772
17806W        W33940  13.804   8.599  14.842  0.2659 -0.0508 -0.0595
17807W        W33941   7.473   7.810  14.805 -0.0041  0.3123 -0.1668
17808W        W33942  10.656   5.239   3.135  0.3257 -0.1201  0.0881
17809W        W33943   7.590  17.068   3.859  0.0093 -0.3073  0.3409
17810W        W33944   5.948  19.209   0.569  0.3482 -0.1142 -0.0420
17811W        W33945   6.560  12.907   5.854  0.3089  0.1096  0.2504
17812W        W33946   9.883   1.575  10.896 -0.0376 -0.2903  0.0345
17813W        W33947  17.420  11.570   2.980 -0.1595 -0.0022  0.1120
17814W        W33948  13.973   7.663  12.714 -0.0990  0.1158  0.2929
17815W        W33949   9.120   1.966  10.408 -0.1895 -0.1111 -0.3297
17816W        W33950  14.703  18.111   3.742 -0.1412  0.0884 -0.0762
17817W        W33951   2.400  14.557   1.026  0.0941  0.0889  0.2441
17818W        W33952  16.121   5.041  12.226  0.1412  0.0727 -0.0030
17819W        W33953   0.740  17.199  13.586 -0.1985 -0.1289 -0.2022
17820W        W33954   1.412   1.027   2.854  0.1987 -0.0493  0.0302
17821W        W33955   5.296   2.589   1.982 -0.1081  0.2326 -0.2898
17822W        W33956  17.907  16.005   1.473  0.3923  0.3507 -0.1255
17823W        W33957   0.269  15.037   0.596  0.0926  0.2698  0.0684
17824W        W33958  17.788  15.151  14.767  0.1714  0.0971  0.0042
17825W        W33959  18.135  16.054  13.831 -0.3007 -0.1000 -0.0911
17826W        W33960  15.629  16.664   1.641  0.1103  0.5578  0.1409
17827W        W33961   3.911   4.349  12.847  0.0827 -0.0036  0.2344
17828W        W33962   0.541  13.754   1.713 -0.0865  0.6065  0.0726
17829W        W33963  13.312   3.850  14.822 -0.1418  0.1191  0.1227
17830W        W33964  10.088  16.071   9.816  0.2931  0.1481  0.2483
17831W        W33965  15.652   9.256  10.250  0.0390 -0.0064  0.0794
17832W        W33966   7.743  19.065  10.506 -0.3473  0.2486  0.2014
17833W        W33967  12.001   5.534  11.720 -0.0069  0.4687 -0.3528
17834W        W33968  12.221  12.347   2.091 -0.1974 -0.2626 -0.1792
17835W        W33969   9.518   7.712  10.393  0.3797  0.1983  0.2895
17836W        W33970   4.260   6.818  14.056  0.0784 -0.0745  0.1010
17837W        W33971   9.745   6.133  12.588 -0.1194 -0.0035 -0.0914
17838W        W33972   6.367   2.367  12.070  0.0138 -0.2681 -0.0950
17839W        W33973  12.313  14.944  14.771  0.0788 -0.3839 -0.0619
17840W        W33974  11.113   6.239   4.079 -0.0892  0.1507  0.0211
17841W        W33975   2.182  15.315  13.511  0.0212  0.0477  0.0579
17842W        W33976  13.515  11.817   4.041  0.0256  0.0450  0.1067
17843W        W33977   2.376   8.786  11.377  0.0648 -0.1759  0.1605
17844W        W33978   2.903   7.362  12.866  0.0004  0.0352  0.5967
17845W        W33979  14.893  12.677  11.853 -0.1813  0.0758 -0.0956
17846W        W33980   5.318  13.977  14.830  0.2578  0.1972 -0.0391
17847W        W33981  10.494   9.613   1.631  0.1540 -0.2559  0.2944
17848W        W33982  18.190   1.554  14.774  0.0991 -0.3447  0.2084
17849W        W33983  18.339   4.027   1.909  0.0294  0.1857 -0.1630
17850W        W33984  11.671   2.261   1.756 -0.0676  0.0202 -0.0157
17851W        W33985  10.056   8.801  14.590  0.3368 -0.2918 -0.5043
17852W        W33986  10.194   0.775  13.998  0.0387  0.2123  0.2771
17853W        W33987   8.106   4.626  12.730 -0.2408  0.1543  0.1239
17854W        W33988   9.014   6.712   4.667 -0.1555  0.3349 -0.0232
17855W        W33989   7.798   0.468   3.283 -0.0771  0.1450  0.2097
17856W        W33990   3.931  15.287   0.279 -0.1298 -0.4041 -0.1580
17857W        W33991  12.639  11.217  13.304  0.0999 -0.0528 -0.2434
17858W        W33992   2.988   4.934   3.612 -0.4611 -0.3404 -0.5102
17859W        W33993   3.644   5.346   2.686 -0.2031 -0.1253 -0.0914
17860W        W33994   9.671   2.696   2.139  0.0966 -0.0958  0.0089
17861W        W33995   7.452  16.809   5.968  0.3028  0.2676  0.5417
17862W        W33996   4.204  17.121  12.379 -0.0932  0.2647  0.1033
17863W        W33997   2.986   8.041   1.096 -0.2014 -0.0211 -0.2400
17864W        W33998   5.890  14.813  10.839 -0.1490 -0.0113  0.2577
17865W        W33999  14.232   2.730   0.246  0.2311 -0.0144 -0.1570
17866W        W34000  10.711   8.836  10.132  0.1234  0.1081  0.3025
17867W        W34001  14.127  13.345  11.122  0.0234 -0.1480 -0.0261
17868W        W34002   8.013  17.459   0.697 -0.1827  0.3081 -0.3806
17869W        W34003  18.022  17.038  10.392  0.2230  0.3261 -0.1934
17870W        W34004  14.933   6.710   2.468 -0.0885 -0.0365  0.4906
17871W        W34005   3.908   4.601  10.317  0.2236  0.0672 -0.0970
17872W        W34006   4.093   8.803  10.687  0.0771  0.1997 -0.0636
17873W        W34007   7.447  12.747  13.432 -0.1284  0.1451 -0.0189
17874W        W34008   8.991  17.576  12.966  0.0685  0.4509 -0.3088
17875W        W34009  18.509   3.682   0.898  0.1341 -0.2253 -0.3235
17876W        W34010   2.486   7.242   9.263  0.2649 -0.1559 -0.2739
17877W        W34011  14.926   9.912  10.923 -0.1365  0.0355  0.2043
17878W        W34012   9.125   2.183  12.361  0.2988  0.2277 -0.1680
17879W        W34013   0.335  13.900   2.189 -0.3853 -0.3730  0.2907
17880W        W34014  13.284   9.673  12.828 -0.0022 -0.5489  0.0655
17881W        W34015  11.261  14.376   3.613 -0.0825  0.0200 -0.1425
17882W        W34016   4.278   6.493   1.223 -0.3183 -0.4417  0.0235
17883W        W34017   5.873  15.389  12.039  0.0607  0.0186  0.0338
17884W        W34018   6.866   7.311   3.516 -0.2637  0.0424 -0.4153
17885W        W34019   1.712   2.970  11.512 -0.0631 -0.0661  0.2893
17886W        W34020  14.741   6.114  14.831 -0.2128  0.0192 -0.0076
17887W        W34021   7.785  10.216  11.375  0.2137  0.1438 -0.4011
17888W        W34022  17.765   4.279  11.763 -0.1289 -0.5456 -0.0620
17889W        W34023   0.096  12.213   4.303 -0.0588 -0.0941 -0.2606
17890W        W34024  18.768  18.441  10.599 -0.1450  0.0194  0.1914
17891W        W34025   1.746   3.249   1.124 -0.3774  0.5665  0.2413
17892W        W34026  19.054   4.610  14.035 -0.2084  0.1375 -0.0128
17893W        W34027   5.992  11.742  12.539 -0.1273  0.2991  0.1816
17894W        W34028  18.544   1.599  12.923 -0.0758 -0.2594  0.1715
17895W        W34029   5.611  13.397  11.994  0.0512 -0.0540 -0.5295
17896W        W34030   4.863   5.907  14.186 -0.2023 -0.0463  0.2915
17897W        W34031  12.460  16.639  14.250 -0.3980 -0.0265  0.3743
17898W        W34032   4.515  11.537   3.342 -0.2990  0.1386  0.0102
17899W        W34033   2.845   1.286  13.218  0.2572 -0.3937 -0.1389
17900W        W34034   5.201  12.598  13.395  0.1764  0.1223  0.1744
17901W        W34035  10.045  11.697   0.994  0.0576  0.0113 -0.0995
17902W        W34036   3.071   1.048   5.302 -0.2810  0.1472  0.2897
17903W        W34037  15.807  11.339   2.345 -0.0158  0.2801 -0.1558
17904W        W34038   6.881   5.434   1.761  0.0465  0.0101  0.3222
17905W        W34039  10.538   6.201   9.146 -0.2039  0.1939 -0.1049
17906W        W34040   6.134  12.153  11.807  0.2377 -0.2978  0.1145
17907W        W34041   4.387  10.249  14.391 -0.0040  0.0653  0.1696
17908W        W34042  16.015  10.845  10.864  0.1500  0.3524 -0.1397
17909W        W34043   0.325   6.963   9.704 -0.1012 -0.4107 -0.0688
17910W        W34044  11.290   3.446  14.548  0.0114 -0.3979  0.1939
17911W        W34045   0.257   5.005   8.994  0.1544 -0.2141  0.2899
17912W        W34046  16.640   6.909  13.007  0.0387  0.0912  0.0373
17913W        W34047  16.048   3.537  14.846  0.0364  0.5679  0.3858
17914W        W34048   1.231   8.520   4.569  0.0107  0.1850 -0.4014
17915W        W34049  12.891   4.094   5.348  0.2332  0.2342 -0.1666
17916W        W34050  12.464  12.605   4.563 -0.1654  0.1781  0.4107
17917W        W34051  12.339   5.657  12.781  0.1584 -0.1256 -0.0376
17918W        W34052  18.976  10.362  14.763 -0.0689  0.0682  0.1824
17919W        W34053  10.756  13.095   4.353 -0.2028 -0.1576  0.1257
17920W        W34054  19.245   7.440  14.686  0.3136 -0.0715  0.3212
17921W        W34055  15.492   8.869  11.634 -0.0854  0.2780 -0.0246
17922W        W34056   7.958   3.817  13.227  0.0032 -0.0260 -0.2255
17923W        W34057   5.414  15.518   3.881 -0.0578 -0.0670  0.0309
17924W        W34058   8.151  10.962  12.686  0.0847  0.2352  0.0572
17925W        W34059  16.433  12.215  13.425 -0.3354 -0.0719  0.0565
17926W        W34060   0.994   2.738   3.818  0.1076  0.1267 -0.3196
17927W        W34061   2.331   5.660  12.047 -0.0592  0.0739  0.2440
17928W        W34062   1.582  12.728   9.772 -0.2233 -0.4936  0.3211
17929W        W34063   6.882   7.938  12.642  0.3179  0.0885 -0.0734
17930W        W34064   3.722   2.832   0.327  0.1104  0.1190  0.3916
17931W        W34065  16.797  17.377  13.183  0.0117 -0.1983  0.0437
17932W        W34066   5.524  18.786   1.670 -0.1244 -0.2388  0.1663
17933W        W34067   7.619   5.505  11.667 -0.0962  0.4395 -0.1235
17934W        W34068   5.653  17.666   5.255 -0.1322  0.0833 -0.2136
17935W        W34069   5.252  16.856   0.806  0.2458 -0.0284  0.0080
17936W        W34070   8.520  15.210   0.968  0.1103 -0.4010 -0.2042
17937W        W34071   8.585   2.463  14.507 -0.0113  0.2206  0.2510
17938W        W34072  14.655   8.393   1.075  0.2545  0.2439  0.0066
17939W        W34073  13.998  12.874  10.967 -0.3514 -0.0651  0.3614
17940W        W34074   1.882   6.764   3.042  0.1720 -0.5093  0.1218
17941W        W34075  18.418   8.445  14.888 -0.1485 -0.1343 -0.5256
17942W        W34076  11.930  10.660  10.541  0.1907 -0.3525 -0.2898
17943W        W34077   8.923   9.714   3.290  0.1650 -0.0517 -0.0381
17944W        W34078  11.639  11.200  11.765 -0.0383  0.2067 -0.1197
17945W        W34079   6.064  16.716   4.002 -0.0656 -0.2448  0.1320
17946W        W34080   2.773   6.936   3.238 -0.0780  0.0823  0.1673
17947W        W34081  14.558   2.412  13.406 -0.2291  0.3154 -0.0088
17948W        W34082   5.549   5.549  10.062 -0.2936 -0.0251 -0.2532
17949W        W34083   2.993   9.114  11.034  0.2270 -0.1458 -0.2403
17950W        W34084   6.777  16.809  11.420 -0.3857  0.1437  0.1461
17951W        W34085   9.255  11.746   4.707  0.1208  0.1115 -0.1780
17952W        W34086  10.669   3.000  10.562  0.0722  0.0343 -0.0125
17953W        W34087   3.160  18.135   1.542  0.2406 -0.1906  0.0926
17954W        W34088   6.185  18.254  14.675  0.2033 -0.3585 -0.0111
17955W        W34089  12.848  18.540   4.208  0.5190  0.0881 -0.1361
17956W        W34090  18.102   4.551  11.355 -0.1099 -0.4201 -0.0540
17957W        W34091  16.316  14.326  14.890 -0.3383  0.0268  0.0019
17958W        W34092   2.495   5.025  13.949 -0.1971 -0.0515 -0.4787
17959W        W34093   5.808   6.892   3.665 -0.3004  0.2669 -0.1358
17960W        W34094   5.634  17.919   1.337 -0.1786  0.3542 -0.0392
17961W        W34095   7.209  17.750  11.923 -0.1505 -0.3175 -0.1285
17962W        W34096  11.496   9.650   2.225 -0.1603 -0.0287 -0.0522
17963W        W34097   8.169   2.203  13.599  0.2905  0.0513  0.1534
17964W        W34098  14.160   1.857  12.696 -0.0913 -0.0518 -0.0333
17965W        W34099   7.597   0.208   0.669  0.0131  0.1698  0.0581
17966W        W34100   1.265   4.071   3.980  0.3402 -0.0219 -0.1411
17967W        W34101   6.384   8.826   1.749 -0.2763 -0.0422  0.0053
17968W        W34102  10.031  14.342   3.562 -0.2096  0.2110 -0.0820
17969W        W34103   3.405  15.358   0.412  0.0808 -0.0036 -0.2805
17970W        W34104  12.283   9.607  11.694  0.1143  0.3978 -0.1149
17971W        W34105  13.840   0.465   1.588  0.2029 -0.0513  0.0949
17972W        W34106  17.678   1.467  11.904 -0.2437  0.1572 -0.3212
17973W        W34107   4.571   3.946  12.176  0.0602 -0.0538  0.4323
17974W        W34108  13.288   9.640   0.104 -0.1010  0.2130 -0.0467
17975W        W34109  11.214  12.620  11.634 -0.0596  0.3302  0.1886
17976W        W34110   4.525   2.944  10.521  0.0969 -0.0189 -0.2957
17977W        W34111   2.483   3.975  12.852 -0.0665  0.0263 -0.1745
17978W        W34112  11.121  18.950   4.812 -0.1804 -0.2763  0.0862
17979W        W34113  12.795  12.631  10.294 -0.0253 -0.0384  0.3009
17980W        W34114   1.651   6.688  10.909  0.0037 -0.0224 -0.0201
17981W        W34115   9.304   3.781   3.841  0.2635 -0.0259 -0.5033
17982W        W34116   4.109  18.867  11.122  0.1678  0.1201 -0.2010
17983W        W34117   5.191  18.093   1.106  0.0834  0.0860 -0.3071
17984W        W34118   1.826  18.183   4.727  0.2343 -0.3168 -0.0450
17985W        W34119   2.747  19.281   5.204  0.3008  0.0475  0.1016
17986W        W34120  11.226   6.233  10.842 -0.2245  0.2067 -0.1903
17987W        W34121   7.096   6.625   3.215  0.0043  0.1451 -0.1363
17988W        W34122   5.485   9.272   3.284 -0.0502  0.0314  0.3613
17989W        W34123  13.806  14.660   1.402  0.2135 -0.2853 -0.4542
17990W        W34124  11.002  17.868  14.503  0.1542 -0.0680 -0.0822
17991W        W34125  10.930   5.982   0.345  0.0178  0.1095  0.1050
17992W        W34126   2.116   3.275   2.894 -0.2634  0.0203 -0.2087
17993W        W34127  16.735   1.279   0.311 -0.0417 -0.2659  0.0276
17994W        W34128   0.759   5.378  10.732 -0.0027  0.0171 -0.0237
17995W        W34129  19.171   9.119   2.995  0.1117 -0.1328  0.4864
17996W        W34130  15.981   2.414   3.814 -0.2712 -0.2079 -0.0130
17997W        W34131  17.878   4.330   1.679 -0.0988  0.2663  0.2805
17998W        W34132   8.681  12.062  12.054  0.2618  0.1870  0.0964
17999W        W34133   7.317   4.166   0.566  0.4007 -0.0983 -0.1203
18000W        W34134  10.975  15.579  13.171 -0.0428 -0.0062  0.1331
18001W        W34135   7.612  16.118  13.821 -0.1514  0.0505  0.1590
18002W        W34136  12.140   9.457  12.174  0.2288  0.1948 -0.2286
18003W        W34137  11.044   3.942  13.102 -0.2304 -0.1237  0.1622
18004W        W34138   7.355  15.894   0.440 -0.1176 -0.2726 -0.4856
18005W        W34139  15.192  12.928  10.858 -0.0953 -0.1883 -0.4066
18006W        W34140   6.724  13.242   3.636  0.4583 -0.0339  0.2765
18007W        W34141   7.823  15.072   6.289 -0.1741  0.1572 -0.3721
18008W        W34142  15.792  15.802  14.642 -0.3257  0.0016  0.4012
18009W        W34143  12.050  17.163   5.885 -0.1341  0.0212 -0.3006
18010W        W34144   2.426  13.897   9.331 -0.3503  0.3058  0.1015
18011W        W34145  16.720  15.777   2.844 -0.2712  0.3015  0.1967
18012W        W34146  15.898  15.872   5.120  0.1137 -0.1955 -0.0964
18013W        W34147  10.563  10.151   5.033  0.2216 -0.1635 -0.2693
18014W        W34148   9.764  16.612   1.725 -0.5253 -0.1089 -0.1118
18015W        W34149   0.877   8.731   1.127 -0.2014 -0.1136 -0.2867
18016W        W34150   9.398   4.881   0.712  0.1254  0.3178 -0.1909
18017W        W34151   5.833   1.860   2.858  0.6276  0.1147 -0.3239
18018W        W34152  14.246   8.866  14.805 -0.1468 -0.0387  0.2602
18019W        W34153  19.313  11.715   4.177  0.1331 -0.0271  0.1904
18020W        W34154   2.671  11.277   2.737 -0.0597  0.1327  0.1897
18021W        W34155  12.596  11.067  14.832  0.1236 -0.2257 -0.1909
18022W        W34156  15.087   4.656   3.706 -0.1246 -0.0741  0.3685
18023W        W34157  10.650   9.858  10.917 -0.0392 -0.3208  0.0787
18024W        W34158  16.090  13.047  14.308  0.0864  0.2195  0.2495
18025W        W34159  15.621   5.005   2.651  0.1943  0.1679 -0.0182
18026W        W34160   8.384   6.225  12.924 -0.6053  0.4281  0.0260
18027W        W34161   4.033  10.191  13.482 -0.0493  0.4288 -0.1695
18028W        W34162  15.318   1.964   3.100  0.0909 -0.5932 -0.2344
18029W        W34163  10.373   0.451  11.533  0.0654 -0.3535  0.1960
18030W        W34164  18.119   3.368   5.212 -0.1613 -0.1071 -0.0501
18031W        W34165   2.480   3.445  12.663  0.2635  0.0610  0.0101
18032W        W34166   5.398  14.313   4.718  0.0429  0.1983 -0.0423
18033W        W34167  16.419   3.765  10.515  0.4189  0.0155  0.2464
18034W        W34168  13.443   7.039   1.997  0.1557  0.1798 -0.3168
18035W        W34169  10.575  11.429  10.711 -0.2596 -0.1135 -0.3839
18036W        W34170   2.073  17.658   1.962 -0.1107 -0.2342 -0.2635
18037W        W34171  17.509   6.067   5.213  0.0971 -0.0845 -0.1357
18038W        W34172  12.439  18.986   0.879  0.3224  0.2761  0.3902
18039W        W34173  11.226   2.634  11.239  0.0081 -0.1049  0.2951
18040W        W34174  17.324   5.427   0.859  0.0237 -0.1407 -0.0150
18041W        W34175   0.631  12.127   4.329  0.1795 -0.2443 -0.1570
18042W        W34176   1.062   9.799   3.617 -0.0639  0.1752 -0.1583
18043W        W34177   8.068   9.586   2.206 -0.1984  0.2081  0.1491
18044W        W34178  11.508  15.398  12.005  0.1157  0.1352  0.0116
18045W        W34179  11.536   2.880  10.799  0.0836 -0.1132  0.0826
18046W        W34180  10.704  18.423   0.213  0.0907  0.1405  0.0316
18047W        W34181  19.083  12.362  12.582  0.3924 -0.2862 -0.1665
18048W        W34182   7.329  11.272  14.176 -0.1667  0.2905 -0.1884
18049W        W34183  15.158   5.454  13.728 -0.0244 -0.0371 -0.0896
18050W        W34184   9.215  10.298  12.832  0.1483 -0.0007  0.4375
18051W        W34185  11.722  13.041  13.753  0.2664  0.0204 -0.0512
18052W        W34186  11.218   8.581   3.045  0.2505 -0.2362  0.3116
18053W        W34187   5.943  18.127  13.520 -0.0343  0.0871 -0.0414
18054W        W34188  10.527   0.960   0.033  0.0964  0.0176 -0.2255
18055W        W34189   1.866  16.318  13.600  0.1234  0.1330  0.0063
18056W        W34190  10.285   4.780  12.597 -0.0238  0.1411  0.0928
18057W        W34191   8.089   0.844   4.701 -0.1316 -0.3572 -0.2012
18058W        W34192  18.496   2.727  14.571  0.4706 -0.0060 -0.1206
18059W        W34193   8.583   8.881   2.352 -0.1128  0.3480  0.0600
18060W        W34194  14.930   1.030  11.837  0.0261 -0.0001 -0.0550
18061W        W34195   3.530   5.370  13.636 -0.1302 -0.0824  0.3087
18062W        W34196   9.544   8.637   2.038  0.0602  0.1136  0.0676
18063W        W34197   5.143   6.798  13.878 -0.0683 -0.0616  0.2464
18064W        W34198   1.298  12.314  12.164 -0.1308  0.1245 -0.0807
18065W        W34199   8.417  10.685  10.338 -0.0963 -0.1664 -0.1563
18066W        W34200  12.148   6.896  12.151 -0.0362 -0.1917 -0.1529
18067W        W34201   5.259  18.547   1.271 -0.0015 -0.1920  0.1726
18068W        W34202  18.784   8.310   5.309  0.3836  0.2928  0.2124
18069W        W34203   5.293   4.773   2.935  0.0260 -0.3107 -0.0896
18070W        W34204  17.213  12.770  12.283  0.3175 -0.1242  0.0973
18071W        W34205  15.778   1.833   5.166  0.0950 -0.0271 -0.0688
18072W        W34206  11.403   4.896  14.724 -0.1719 -0.0706 -0.0889
18073W        W34207  14.734  13.424  13.734  0.1027  0.0376 -0.0038
18074W        W34208   9.779   7.237  11.551 -0.1109  0.3046 -0.1016
18075W        W34209   9.630   0.160  11.829 -0.0872  0.1339  0.0597
18076W        W34210  15.720  19.173  12.583  0.0583  0.1147 -0.2123
18077W        W34211  15.757   1.074  13.308 -0.1625  0.3076 -0.0196
18078W        W34212   2.022  17.899  12.751  0.1864 -0.1635 -0.0276
18079W        W34213   7.975  14.524  14.491 -0.0350  0.1264  0.1367
18080W        W34214  15.107  12.611   3.035  0.1080  0.1304 -0.1546
18081W        W34215   2.532  16.882   5.756  0.2396  0.3157 -0.2088
18082W        W34216   4.513   9.005   4.485 -0.2010  0.2094 -0.0196
18083W        W34217   4.751   4.200   0.925 -0.2693  0.0468  0.0114
18084W        W34218   3.893   4.518   3.622 -0.0875  0.2462  0.0384
18085W        W34219   6.798   0.609  12.951  0.4381 -0.0837  0.1902
18086W        W34220  14.811  12.898   2.088 -0.4187 -0.0942  0.0072
18087W        W34221  12.465   5.839  10.662  0.1048 -0.1469  0.1157
18088W        W34222  13.717   2.559   3.733  0.1063 -0.0579 -0.3429
18089W        W34223   4.798  15.128   1.217  0.3385 -0.0214 -0.2106
18090W        W34224   1.994  16.842   2.814  0.1479 -0.2640 -0.0245
18091W        W34225   9.526   3.300   1.380 -0.0984  0.1942 -0.2107
18092W        W34226  17.842   5.264  10.798  0.1812 -0.3253 -0.1302
18093W        W34227   1.452   7.727   4.211  0.0680 -0.0574 -0.0621
18094W        W34228  10.445  18.899   5.637 -0.1307 -0.4234  0.0976
18095W        W34229   3.444   6.295   1.064 -0.4535 -0.2970  0.0031
18096W        W34230  12.100  10.762  14.935 -0.3617 -0.2695 -0.2021
18097W        W34231   5.614   7.696   1.365 -0.0802  0.2764 -0.3506
18098W        W34232   4.694   8.524   3.964 -0.0681 -0.5001  0.1841
18099W        W34233   7.178   5.784   0.557  0.1802 -0.1493  0.2913
18100W        W34234   2.642  19.121  14.559 -0.0458  0.0904 -0.1000
18101W        W34235  15.577  11.869   3.612 -0.0105 -0.4330 -0.2502
18102W        W34236   6.766   2.280  12.775  0.0201  0.1764  0.2140
18103W        W34237  18.204  12.530   3.950  0.1217 -0.1222 -0.1221
18104W        W34238   9.590   4.985   2.752  0.4447  0.0842  0.1467
18105W        W34239   2.671  18.732  11.360 -0.1102 -0.0103  0.0603
18106W        W34240   9.032   1.817   4.322 -0.0901  0.3195  0.4409
18107W        W34241  11.453   8.699   0.855  0.1175 -0.4485 -0.3446
18108W        W34242  10.317  16.042  11.900  0.0035 -0.2105 -0.3508
18109W        W34243  10.312   5.596  12.408  0.1114 -0.3119 -0.0398
18110W        W34244  10.106   2.394   1.314  0.2613 -0.4323 -0.0432
18111W        W34245   9.352  18.752  13.517 -0.0591  0.4127  0.0640
18112W        W34246  16.545   1.881   1.078 -0.0175  0.0350  0.3746
18113W        W34247   2.574   6.712  11.322 -0.1525 -0.1444  0.1846
18114W        W34248  17.699  12.547  12.202 -0.1669 -0.0259  0.1917
18115W        W34249  13.062  10.686   2.786  0.1065  0.3968  0.2304
18116W        W34250  13.989  13.726   1.064 -0.0999 -0.0546  0.0564
18117W        W34251  16.596  13.690   1.967  0.0716  0.2454 -0.1425
18118W        W34252   0.379   7.186  13.503 -0.1450 -0.0131  0.1893
18119W        W34253  10.045  18.465   0.246 -0.1407 -0.2664 -0.1399
18120W        W34254   6.942   0.029  14.080 -0.1362 -0.0660 -0.2613
18121W        W34255  16.500   2.230  10.681 -0.2004  0.1390  0.1389
18122W        W34256  14.641  10.071  13.876  0.3204  0.0469  0.3630
18123W        W34257   0.878  12.039  12.087 -0.2126 -0.0055 -0.1406
18124W        W34258  19.208   5.399  11.135  0.2853  0.0997  0.0063
18125W        W34259   3.013   5.298  13.590 -0.1214 -0.2445  0.0802
18126W        W34260  17.345  16.042  14.223 -0.1648  0.0136  0.1029
18127W        W34261   3.546  16.400   2.483  0.2584 -0.0989  0.2592
18128W        W34262   2.807  16.715   3.398  0.2968  0.1122  0.0504
18129W        W34263   8.639  16.568   5.321  0.3888 -0.0064  0.1639
18130W        W34264   7.695   8.949   1.966  0.1436  0.4569 -0.0781
18131W        W34265  15.971  11.498  13.833  0.1933  0.1457  0.1163
18132W        W34266  10.894   3.641  13.634 -0.0190  0.1340  0.0908
18133W        W34267  18.551   1.526  10.617  0.1590 -0.1307  0.0262
18134W        W34268  13.741  17.716  10.792  0.0867 -0.0535 -0.1336
18135W        W34269   0.833   3.758  12.056 -0.0768  0.0914 -0.0287
18136W        W34270  10.022  12.496   2.662  0.2139 -0.0424  0.3825
18137W        W34271   6.980   9.830  13.155 -0.3233  0.1329 -0.2098
18138W        W34272   4.031   9.281   8.645  0.0652 -0.0907  0.1997
18139W        W34273   2.946   3.096   3.340 -0.0726  0.0607 -0.3292
18140W        W34274  19.119  11.222   2.932  0.1245  0.1780 -0.1896
18141W        W34275  17.574   4.630   1.368  0.3369  0.2023  0.0111
18142W        W34276   1.477   0.371   4.436  0.0974  0.3436 -0.0523
18143W        W34277  16.499  11.584  13.048  0.0471  0.0463 -0.0934
18144W        W34278   6.575   6.411   4.424 -0.1900 -0.2451  0.0648
18145W        W34279   2.555   9.276   1.148 -0.1532 -0.1891 -0.4143
18146W        W34280  11.792  12.039   2.030  0.4024  0.1921 -0.1804
18147W        W34281  10.651  14.064   3.103  0.1107  0.0169 -0.2100
18148W        W34282  19.305   3.458  13.846  0.1347  0.1466  0.2254
18149W        W34283  12.157   4.760   4.533  0.2779 -0.0565 -0.2918
18150W        W34284  15.012  18.407  12.379 -0.0144  0.0780  0.2947
18151W        W34285   0.954  16.279   0.343 -0.2573 -0.2067  0.3016
18152W        W34286  11.578  11.978  12.105 -0.2983 -0.3559 -0.2255
18153W        W34287  10.223   6.439   2.424  0.2071 -0.2173 -0.1202
18154W        W34288  18.117   7.678   4.512 -0.3161 -0.3440 -0.0994
18155W        W34289   5.912   2.745  10.682 -0.2409 -0.1364 -0.2546
18156W        W34290   7.999   3.754  11.801  0.0273  0.0440 -0.1330
18157W        W34291   2.021  10.035  12.748  0.2849  0.2765 -0.2498
18158W        W34292   9.297  18.713   3.335  0.3104 -0.0721 -0.1491
18159W        W34293  14.773   9.179   4.702 -0.0230  0.1485  0.1620
18160W        W34294  11.810  10.189   0.590 -0.1340 -0.0530 -0.1039
18161W        W34295   7.310  17.218  12.200  0.1690  0.3705 -0.0617
18162W        W34296   8.209   6.808  12.203  0.0624  0.0379 -0.1710
18163W        W34297  14.171   0.786   3.541 -0.0073 -0.2674  0.0552
18164W        W34298  17.494  17.610   2.409 -0.1278  0.1893 -0.4128
18165W        W34299  13.374  18.171   2.326 -0.0741 -0.1843 -0.2415
18166W        W34300  17.364   6.194  10.150  0.1422  0.0617  0.3292
18167W        W34301   0.357  15.842   2.896  0.4443 -0.1326 -0.2034
18168W        W34302  12.819   2.039  12.243 -0.0267 -0.1203  0.1034
18169W        W34303   6.918  14.332   0.199  0.0156  0.3283  0.2405
18170W        W34304  15.533  15.555   5.440 -0.1754  0.3194  0.0256
18171W        W34305  10.903  10.076  14.523 -0.0012  0.0851 -0.0325
18172W        W34306   9.475  11.787   2.222  0.1341 -0.1206 -0.2671
18173W        W34307   5.440  11.027  11.765  0.1128 -0.1420  0.0682
18174W        W34308  10.783   9.645   1.147 -0.4043 -0.0904  0.0560
18175W        W34309  18.638   4.517  11.076 -0.1036 -0.2017  0.2295
18176W        W34310  19.346   5.376   5.039  0.1317  0.3148  0.0179
18177W        W34311   3.266  13.429  13.262 -0.1242  0.2105  0.2061
18178W        W34312  10.265  11.737  13.080  0.1718  0.1180  0.1483
18179W        W34313  11.504   3.040   3.268  0.0565  0.1573  0.2325
18180W        W34314  15.762   3.082   0.825  0.2535 -0.1607 -0.0009
18181W        W34315  11.365  10.485   2.251 -0.0362  0.0517 -0.5163
18182W        W34316   3.539   3.518  13.626  0.0991 -0.1020 -0.0304
18183W        W34317   6.695   3.314  11.148 -0.4220 -0.0471  0.0644
18184W        W34318  12.303  19.181   0.462 -0.0594 -0.0446  0.1059
18185W        W34319   6.471  13.720  11.986 -0.0753  0.2968 -0.1759
18186W        W34320   4.200  17.663  12.520 -0.0548  0.0791 -0.0122
18187W        W34321   2.863  11.185  12.686 -0.1169  0.0149 -0.2029
18188W        W34322   4.384   3.491  13.883  0.0273  0.0015  0.2568
18189W        W34323  18.092  16.852  11.969  0.0079  0.4794 -0.1764
18190W        W34324   9.460   2.311   1.949 -0.0020  0.1543  0.0949
18191W        W34325   8.908  15.407   0.668  0.0565 -0.1910 -0.0115
18192W        W34326   1.839  18.873   0.748 -0.2901 -0.1832 -0.2302
18193W        W34327   1.700  11.914  11.499 -0.0171  0.1181  0.0868
18194W        W34328  15.834  11.439   1.770  0.0698 -0.1935  0.1886
18195W        W34329  11.190  12.843   2.420 -0.0644 -0.0811  0.2496
18196W        W34330   2.206   2.588   2.269  0.1341 -0.4066 -0.0380
18197W        W34331   8.110  16.569  12.439 -0.0626  0.2473 -0.3478
18198W        W34332   8.967  14.510  10.155 -0.3455  0.3509  0.1613
18199W        W34333   7.309   6.938   4.750  0.0885 -0.2470 -0.2254
18200W        W34334   5.536   3.134  13.578  0.0090  0.3227 -0.2258
18201W        W34335   1.902   1.101  12.045 -0.0197  0.1797 -0.0150
18202W        W34336   0.372  13.500  10.997  0.1723  0.1049 -0.1443
18203W        W34337   8.749  10.105  14.804  0.2786 -0.1347 -0.0233
18204W        W34338  10.878  16.884   1.458  0.2462 -0.3556  0.1339
18205W        W34339   5.680  17.958   3.472  0.2657  0.3371  0.1882
18206W        W34340  14.660  16.250  11.727  0.0187 -0.1755  0.3231
18207W        W34341   3.333  18.977   1.494  0.1143  0.0905  0.0220
18208W        W34342   2.013  16.302   2.674 -0.1091 -0.1129  0.1307
18209W        W34343  15.084   0.063  10.784  0.2482  0.1431 -0.1737
18210W        W34344   3.730   6.356   2.235 -0.1971 -0.0841 -0.1340
18211W        W34345   6.883   3.028   0.756  0.1747 -0.1447  0.0377
18212W        W34346  13.641  14.363   2.229 -0.2126 -0.4722 -0.2659
18213W        W34347   4.179  10.650  14.663 -0.2513  0.0323  0.0838
18214W        W34348   0.622  17.262  11.705 -0.0500  0.2578 -0.1363
18215W        W34349   5.352   1.341  14.729 -0.1924  0.2571 -0.1804
18216W        W34350   0.813   7.035  11.150 -0.1656  0.3667 -0.0818
18217W        W34351   3.103   1.372  14.066 -0.2115 -0.0650 -0.0010
18218W        W34352  13.312   4.222   4.348  0.0626 -0.0448  0.0537
18219W        W34353  18.881  16.018  13.795  0.1083  0.0876  0.0794
18220W        W34354   0.502   2.905   2.074  0.2392 -0.1039  0.1084
18221W        W34355  13.367  12.482   4.570  0.1210 -0.1778  0.0645
18222W        W34356  13.615  12.194  14.488  0.1697 -0.0152  0.2809
18223W        W34357   2.250   0.597   3.994 -0.0219 -0.1624 -0.1790
18224W        W34358   5.023  15.463   2.238 -0.0230 -0.0866  0.3239
18225W        W34359  14.545  12.088  11.010  0.0681  0.0305  0.1933
18226W        W34360   7.125   6.002   2.728  0.2630 -0.1234 -0.1806
18227W        W34361   4.703  14.762  14.582 -0.2645  0.0278  0.0748
18228W        W34362  12.229  18.227   5.820  0.3580  0.0191  0.0504
18229W        W34363  14.091  15.821   3.677 -0.0301 -0.0052 -0.0196
18230W        W34364  15.441  12.631  10.279 -0.2199  0.1533 -0.2449
18231W        W34365  11.259   4.407   0.633  0.2209 -0.1243  0.1927
18232W        W34366   8.841   5.216   2.844  0.2501 -0.0495 -0.0091
18233W        W34367   7.903  16.880  12.795 -0.0319 -0.0854  0.1699
18234W        W34368  11.355  10.558   0.956 -0.1055 -0.2958  0.1135
18235W        W34369   8.713  16.597   3.031 -0.0664 -0.2733  0.0663
18236W        W34370   0.343   3.383   2.119  0.3379 -0.3659 -0.0878
18237W        W34371   0.022   3.624   1.072  0.0559  0.0364  0.2408
18238W        W34372   8.507  17.180  13.602 -0.1631  0.3314 -0.5772
18239W        W34373   5.481  14.745   3.336  0.2202  0.3014  0.0876
18240W        W34374  17.047  16.068  11.276  0.2308  0.2059 -0.1932
18241W        W34375   8.723  15.258   3.470  0.1272  0.0236  0.5246
18242W        W34376  15.159  12.047   2.135  0.2758 -0.0022 -0.1099
18243W        W34377   1.858   0.897  12.791  0.3590  0.2352  0.1647
18244W        W34378   6.720  17.869   3.633  0.0258 -0.1514  0.0227
18245W        W34379  14.053   7.870  12.175  0.2902 -0.4092 -0.1657
18246W        W34380  10.781  12.096  11.743 -0.0263 -0.0201 -0.1794
18247W        W34381  18.229  16.757  13.297  0.2704  0.0298 -0.0785
18248W        W34382   9.993  15.150   3.403 -0.0735  0.4625 -0.2852
18249W        W34383  15.146  13.239   4.437 -0.0766  0.2509  0.2442
18250W        W34384  13.667   6.956   0.045  0.2607 -0.2900 -0.3240
18251W        W34385   6.320   1.059  13.691  0.1837  0.3016 -0.1011
18252W        W34386   7.580   4.039  13.922  0.0616 -0.3129  0.3249
18253W        W34387   8.536   5.170   3.268  0.0532  0.1538  0.1388
18254W        W34388  11.840   8.265  13.780 -0.0101 -0.0391 -0.1488
18255W        W34389   8.563  17.700  14.344  0.2274  0.0668 -0.2227
18256W        W34390   8.906   5.500   2.416 -0.0026  0.0138 -0.0662
18257W        W34391   0.285   3.025   2.983  0.2139 -0.1551 -0.1379
18258W        W34392  16.634   3.302   4.376 -0.2816  0.1851  0.2581
18259W        W34393  15.170   9.543   0.894 -0.0128 -0.1791  0.3136
18260W        W34394   2.031   8.399   9.848  0.2644  0.0193  0.0843
18261W        W34395  14.294   0.893  14.334  0.0306 -0.1244 -0.0412
18262W        W34396   6.388   8.490  11.341  0.0586  0.1200 -0.2324
18263W        W34397   7.079   0.733   2.665 -0.0202  0.0119 -0.2415
18264W        W34398   9.123  19.049  13.882  0.2036  0.0555  0.1391
18265W        W34399   9.396   3.310  10.548 -0.2638 -0.2758  0.1294
18266W        W34400  17.820  12.863  11.265  0.3972 -0.1903 -0.0552
18267W        W34401   8.186  10.788   5.453 -0.0367 -0.0310 -0.2144
18268W        W34402  14.974  17.929  13.301  0.0599 -0.0203  0.4828
18269W        W34403  13.496   8.688   0.277  0.0520  0.4563  0.2509
18270W        W34404  15.675   5.269  13.119  0.3699  0.0572  0.0442
18271W        W34405  19.299  14.495   4.001 -0.2265  0.1288 -0.0523
18272W        W34406  19.224  15.583   3.695 -0.0537  0.0486 -0.5173
18273W        W34407   1.910   5.002   1.033  0.0983  0.0249 -0.1029
18274W        W34408   9.213  11.724   4.134 -0.1629 -0.1019 -0.0823
18275W        W34409   4.340  16.554  14.758  0.1539  0.0449 -0.0548
18276W        W34410  15.531  12.738   3.338 -0.2825  0.2654 -0.0446
18277W        W34411   9.974  10.493   1.910  0.0487  0.0541 -0.0529
18278W        W34412  10.803  14.490  11.297 -0.3309 -0.2197 -0.2630
18279W        W34413  11.292  10.473   3.873 -0.0782  0.0102 -0.1565
18280W        W34414  11.893  13.186  12.486  0.2686  0.1007 -0.2050
18281W        W34415   0.387  19.242   4.522 -0.0474 -0.1552  0.0998
18282W        W34416  15.632   8.606   2.578 -0.1642 -0.1088 -0.0971
18283W        W34417   0.970  11.754   3.224 -0.2988  0.0368 -0.1043
18284W        W34418  13.168  18.278  14.688  0.1621 -0.0742  0.1015
18285W        W34419  17.563  17.212  12.980 -0.5141 -0.2551 -0.0449
18286W        W34420   0.926   4.090   2.522  0.1790  0.3950 -0.3924
18287W        W34421  11.796   2.449  13.976  0.0432 -0.0997  0.2129
18288W        W34422   3.168   7.394   5.291 -0.1076 -0.3255  0.3769
18289W        W34423   9.989   7.813   9.955  0.4496 -0.4161 -0.0672
18290W        W34424   2.189   6.563   3.884  0.2212 -0.1810  0.1047
18291W        W34425  10.418   2.642  11.626  0.3041  0.1415  0.3152
18292W        W34426   3.910  16.090   1.999  0.0734  0.1186  0.1816
18293W        W34427   9.839  16.833  10.611  0.4663 -0.0758 -0.0796
18294W        W34428   1.372   6.932   1.304  0.0326  0.3551 -0.1745
18295W        W34429  14.625   5.490   5.246 -0.1204  0.2068  0.1717
18296W        W34430  16.166   2.141  12.224  0.1588 -0.1926 -0.2474
18297W        W34431  17.752   9.641   2.822  0.0802 -0.0593 -0.1048
18298W        W34432  10.526   8.590   3.763  0.1106 -0.0100  0.1144
18299W        W34433   2.854  13.546   3.144 -0.1060  0.1862 -0.0188
18300W        W34434  10.978   5.364   3.770  0.0860 -0.0931  0.1861
18301W        W34435   1.236  17.264  13.467  0.2802  0.2981 -0.0451
18302W        W34436  11.863   6.155  14.965  0.2292  0.1525 -0.1823
18303W        W34437  14.926   6.119   2.501  0.3325  0.1096  0.1850
18304W        W34438   8.072  16.266   1.939 -0.0193  0.1334 -0.1313
18305W        W34439  18.382   7.330   1.854  0.1532  0.3214  0.1165
18306W        W34440  11.381  16.871   1.293 -0.1304  0.0569 -0.1310
18307W        W34441  12.185   6.696   4.868 -0.1158 -0.2111 -0.1712
18308W        W34442  13.991  11.639  11.612  0.2494 -0.0791 -0.1325
18309W        W34443   5.795  15.025  12.873  0.1066 -0.0271 -0.1172
18310W        W34444  16.554   9.617  13.865  0.0761  0.2570 -0.1702
18311W        W34445  16.654  19.239   3.386  0.2708 -0.2058 -0.1137
18312W        W34446  12.120   0.866  13.248 -0.1784  0.1516 -0.2494
18313W        W34447   6.755   8.873   3.554  0.0689  0.0476  0.0227
18314W        W34448   0.705  12.853  14.277  0.0615 -0.1929  0.0694
18315W        W34449   8.760  16.462   3.839 -0.0648  0.0481 -0.1913
18316W        W34450   2.780   5.758   0.920  0.0461 -0.4518 -0.4067
18317W        W34451   5.069   5.029  14.382  0.0638 -0.0600  0.2395
18318W        W34452   9.075   5.412   9.928  0.0199 -0.2327  0.3238
18319W        W34453  15.169   7.026   5.408 -0.0273 -0.0223  0.0878
18320W        W34454   7.203  11.128   2.415  0.0614 -0.0301 -0.2606
18321W        W34455  10.001  12.064   2.928  0.0417  0.0283  0.0049
18322W        W34456   0.569  17.333  14.060 -0.0074 -0.0083  0.0865
18323W        W34457  14.106   4.534  13.248  0.0905 -0.2849  0.0908
18324W        W34458  16.630  18.315  13.303 -0.1994 -0.1112 -0.0977
18325W        W34459  18.252   8.507  10.124  0.2815  0.1261 -0.2023
18326W        W34460  11.170  13.419   2.608  0.0075 -0.3408 -0.0011
18327W        W34461   4.685  16.158  11.891 -0.2090 -0.0303  0.1735
18328W        W34462  18.423   1.717   5.100  0.2349 -0.0477 -0.1218
18329W        W34463   3.013   0.094  14.945  0.0370 -0.2398  0.0103
18330W        W34464   5.255   1.502  13.379  0.0383 -0.2943 -0.1719
18331W        W34465   6.068   6.998   4.150 -0.2625 -0.0383 -0.1246
18332W        W34466  14.608   9.673  10.020 -0.0495  0.2161  0.1167
18333W        W34467  16.070   2.854   0.530 -0.1538 -0.3610 -0.0954
18334W        W34468  15.614  15.100  13.711 -0.1655  0.0655 -0.2331
18335W        W34469   9.390  15.420   3.019  0.0196 -0.1480  0.3341
18336W        W34470  10.457   5.100   2.127 -0.0139 -0.5442 -0.0677
18337W        W34471   7.994  10.907   2.183 -0.3571 -0.0738 -0.1250
18338W        W34472   5.548  11.759   1.671  0.2282 -0.0605 -0.0284
18339W        W34473  13.506   7.391   2.652 -0.2654  0.0947 -0.3773
18340W        W34474   1.815   0.771   1.416 -0.4204 -0.2093 -0.2570
18341W        W34475   5.351  18.560  14.373 -0.2329  0.0294 -0.1160
18342W        W34476  10.894  10.199  13.690  0.0431  0.0870  0.1106
18343W        W34477  16.816   9.241   5.409  0.3847  0.0435  0.2162
18344W        W34478   7.685   5.618   1.956 -0.1265  0.0271  0.0318
18345W        W34479   7.424   5.660  10.777  0.0603  0.0197  0.1747
18346W        W34480  13.798  15.704  12.153 -0.0593 -0.2107 -0.0204
18347W        W34481  15.662   2.699   1.983  0.1621 -0.0740  0.2342
18348W        W34482  15.032   9.391  10.937 -0.1035 -0.2493  0.1448
18349W        W34483   5.143   3.426  12.689 -0.2161 -0.2692  0.1173
18350W        W34484  13.173   8.404   3.069 -0.2485  0.2020  0.1412
18351W        W34485  16.371   0.526   0.174 -0.2923 -0.2663 -0.3900
18352W        W34486  18.255  15.830  11.477 -0.2223  0.3310 -0.0369
18353W        W34487   0.296   6.367   1.720 -0.3090  0.0862 -0.2818
18354W        W34488   5.873  18.208  12.044  0.1014 -0.0324  0.0343
18355W        W34489  16.262   0.685  12.598 -0.2470 -0.1568  0.2220
18356W        W34490  12.755   5.224   3.794  0.1496  0.1454 -0.0951
18357W        W34491  18.932   1.908  11.113 -0.0542 -0.2204 -0.1769
18358W        W34492  15.875  12.910  10.141  0.2861 -0.0147 -0.2640
18359W        W34493  19.226  18.381   3.359 -0.3122  0.1592  0.0353
18360W        W34494   8.827  14.561   4.163  0.1714 -0.2459 -0.2727
18361W        W34495   0.492  17.962   4.052 -0.2797  0.1183  0.0075
18362W        W34496   4.285  17.049   0.652 -0.0417 -0.2833 -0.1445
18363W        W34497   1.075  10.825   0.586 -0.1685 -0.1888  0.1244
18364W        W34498  14.191  10.748  11.891  0.0778  0.3069  0.0195
18365W        W34499  18.886  17.597  11.631  0.3272  0.1824  0.2568
18366W        W34500   1.878   1.599   4.059  0.1003 -0.4284 -0.1281
18367W        W34501  11.431   1.737  14.524 -0.3870 -0.0299 -0.1089
18368W        W34502  17.072  14.444   3.887 -0.0594  0.2357  0.3367
18369W        W34503  16.703   7.340   0.895 -0.1109  0.3368  0.0267
18370W        W34504   8.283  14.584  11.583 -0.1257 -0.1944 -0.1901
18371W        W34505   7.971   6.865   4.402  0.4066 -0.0793 -0.1981
18372W        W34506   3.442  12.430  10.360  0.3574  0.0790  0.1379
18373W        W34507  14.360  18.423   0.969 -0.1203  0.0358 -0.1759
18374W        W34508  16.687  10.467  12.014  0.0086  0.0413  0.3280
18375W        W34509  12.255  15.453   1.769 -0.1033 -0.0028 -0.1544
18376W        W34510  15.405  18.097  10.710  0.0080 -0.0822 -0.0614
18377W        W34511  12.169  19.271  12.796 -0.1496  0.1318 -0.0717
18378W        W34512  14.114   0.465   0.608  0.1437  0.2276  0.4492
18379W        W34513  11.962   1.486  12.819  0.0391 -0.0490  0.4261
18380W        W34514  13.938  15.234  13.420 -0.1840 -0.4083 -0.0221
18381W        W34515  14.316   0.315   5.445  0.0516 -0.1303  0.1399
18382W        W34516   2.804  14.596  13.805 -0.0170  0.0339 -0.1133
18383W        W34517  18.685  14.631  10.188  0.0035  0.0274 -0.1804
18384W        W34518  16.529   8.772  13.958  0.2342  0.2505  0.0009
18385W        W34519   8.014  17.406  13.705 -0.3305 -0.0656 -0.1393
18386W        W34520   0.998   9.314  10.609  0.1058 -0.0307 -0.3258
18387W        W34521  10.057  10.104  14.048  0.1131 -0.0712 -0.1036
18388W        W34522  18.665   4.131   4.479 -0.4722 -0.0739 -0.1437
18389W        W34523  17.701  18.820   1.410 -0.3468  0.4452  0.0005
18390W        W34524  14.915   3.728  13.084 -0.2980 -0.0052  0.2953
18391W        W34525   1.499   5.353   1.903 -0.1563 -0.2682  0.4500
18392W        W34526   7.520   8.769  14.261 -0.3558 -0.1344 -0.1143
18393W        W34527  17.340  11.074  13.377 -0.0941 -0.2566 -0.1542
18394W        W34528  18.026   2.272   0.923 -0.3033 -0.2746 -0.1979
18395W        W34529  11.874  16.198   2.457 -0.0631 -0.0236 -0.0019
18396W        W34530   4.222  10.520   1.291 -0.1268 -0.3456 -0.0391
18397W        W34531  16.487   3.536   3.451  0.1362  0.1344 -0.0700
18398W        W34532   4.464   5.901   2.522 -0.1430  0.1341 -0.1216
18399W        W34533  15.669   2.952   3.447  0.3619  0.0479 -0.0437
18400W        W34534  13.299   0.976   3.584 -0.2334  0.2353 -0.1829
18401W        W34535   5.412  18.266  13.540 -0.0713 -0.1338  0.3493
18402W        W34536   4.583   3.953  11.273 -0.1085 -0.0456  0.0679
18403W        W34537  14.470   3.078  11.742  0.4276  0.2450  0.1691
18404W        W34538  18.506   7.355   3.878 -0.0502 -0.0341  0.1556
18405W        W34539  14.974  18.598  10.767 -0.3065  0.0269 -0.1247
18406W        W34540  10.375  17.321  10.547  0.4137  0.1431  0.2596
18407W        W34541  12.207   6.446  14.315  0.2954  0.3506 -0.2603
18408W        W34542   5.865  13.929   6.327 -0.1772 -0.0474  0.0632
18409W        W34543   1.234  17.224  12.825 -0.0512 -0.2461  0.0625
18410W        W34544   5.541  13.917   4.439 -0.1647  0.1467 -0.2541
18411W        W34545   8.918   8.037   3.785  0.0405 -0.1338 -0.3720
18412W        W34546   4.373   8.561   4.339 -0.3009  0.2390 -0.4154
18413W        W34547  16.208  13.172   5.795  0.1124  0.2288 -0.2353
18414W        W34548   2.036   5.944   3.417 -0.5383 -0.0623  0.0775
18415W        W34549  14.333   0.970   4.564 -0.2596  0.2215  0.1345
18416W        W34550   0.285  13.448   4.303 -0.3310 -0.4621 -0.0501
18417W        W34551   9.779  17.623   5.319 -0.0078  0.3332 -0.1932
18418W        W34552   8.632   2.280  13.975  0.0991 -0.0965  0.0267
18419W        W34553   4.339  15.093   5.142 -0.2162  0.1572 -0.1426
18420W        W34554  17.665  12.400   2.870  0.0069  0.0542  0.1523
18421W        W34555  11.003   6.823  10.952  0.0203 -0.1456 -0.0739
18422W        W34556   6.045  16.421  14.134 -0.0141 -0.1103 -0.2643
18423W        W34557  10.158   2.811  10.795 -0.0337  0.0155 -0.2445
18424W        W34558   6.493  16.033   4.066 -0.1100 -0.1664  0.1584
18425W        W34559  15.404   4.082  13.696  0.0572  0.0042  0.1292
18426W        W34560  19.086   8.693   9.930 -0.0155  0.0463  0.0596
18427W        W34561   4.002   7.236   4.256  0.1471  0.1682 -0.1752
18428W        W34562  16.691  13.940  12.049  0.5227  0.0562 -0.0910
18429W        W34563  10.021   9.270  11.690 -0.0441  0.1242 -0.0513
18430W        W34564  12.747   0.247   0.856  0.0711 -0.2827 -0.3687
18431W        W34565  14.737  18.301  11.738 -0.0680  0.1865 -0.0794
18432W        W34566  14.761   5.702  10.834 -0.2232 -0.0955  0.0947
18433W        W34567   7.047   9.286   4.895 -0.1297  0.0070  0.0363
18434W        W34568   9.348   2.223   1.362  0.0145 -0.1838 -0.0157
18435W        W34569  18.980  17.980  14.687 -0.0638  0.0639  0.1005
18436W        W34570  13.282  11.891  10.445  0.0271  0.3861  0.1131
18437W        W34571  14.157   7.041  13.483 -0.2774 -0.1547  0.1076
18438W        W34572  12.868  14.840   1.944 -0.0450  0.5443  0.1820
18439W        W34573  11.628   9.119   0.634  0.0850  0.0880 -0.0501
18440W        W34574  15.426  10.504   4.369  0.0453 -0.3240 -0.0294
18441W        W34575  13.256  15.490   1.209 -0.0893 -0.1617 -0.1359
18442W        W34576  11.731  13.509  13.800  0.0227 -0.2140 -0.1203
18443W        W34577   8.085  10.137   4.941  0.0524  0.2326 -0.1664
18444W        W34578  10.877   6.871  13.432  0.2711 -0.1530  0.0040
18445W        W34579  10.382  17.949  12.957  0.0994 -0.0019 -0.0064
18446W        W34580  17.094  14.932  10.332 -0.2380  0.1974 -0.2656
18447W        W34581   3.937   6.524   3.616 -0.0612  0.1042  0.2976
18448W        W34582  18.996   3.450   1.328  0.3334  0.2144 -0.0885
18449W        W34583   7.646  11.257   2.123 -0.2884  0.1215 -0.3804
18450W        W34584  16.134  12.622  13.377 -0.1222 -0.1912 -0.2986
18451W        W34585   6.508  12.431  13.345  0.0301  0.4314  0.0224
18452W        W34586  16.752  15.778  10.202  0.0222  0.0064  0.2461
18453W        W34587   9.859   6.414   1.623 -0.1483 -0.1885  0.0078
18454W        W34588  13.259  10.438   3.334  0.2345 -0.0422 -0.2526
18455W        W34589   1.314   6.681  14.280  0.3618  0.1996 -0.0320
18456W        W34590  18.712   7.587  14.934 -0.1610  0.1207 -0.1869
18457W        W34591  14.462   1.854   2.254 -0.2699 -0.0365  0.3921
18458W        W34592   6.605  18.662  13.511  0.2482  0.0817  0.0949
18459W        W34593  12.422  15.620  12.011  0.0427 -0.3699 -0.1095
18460W        W34594   0.626   9.670  10.587 -0.1212 -0.3025 -0.1569
18461W        W34595   9.559  18.782   4.751 -0.1306  0.0350 -0.1233
18462W        W34596  10.960  11.749   4.199 -0.1044  0.1177  0.1766
18463W        W34597   2.371   4.044  11.550 -0.1376 -0.1822 -0.0061
18464W        W34598  16.689  15.567  11.498 -0.0130  0.3413 -0.2513
18465W        W34599  18.260  17.150   4.493  0.2373  0.0164 -0.1442
18466W        W34600   5.018   6.491  14.947 -0.0077 -0.0632  0.1393
18467W        W34601  15.625   3.234  11.792  0.3256 -0.1658  0.0047
18468W        W34602  17.323  11.101   2.996  0.0335 -0.0842 -0.3774
18469W        W34603  14.647  10.503   2.732 -0.0384 -0.1939 -0.1279
18470W        W34604   6.616   5.564   3.100  0.2836  0.1130 -0.0185
18471W        W34605   7.519   1.906   3.738 -0.0891 -0.2186  0.0412
18472W        W34606   6.620  15.043   1.726  0.1705  0.3245  0.2405
18473W        W34607  17.023   6.897   2.208 -0.1258 -0.0663  0.1412
18474W        W34608  12.870  18.115   2.517  0.0184 -0.1627  0.3235
18475W        W34609  11.868   1.281  14.550  0.0772 -0.0733  0.0144
18476W        W34610  15.372   3.407   1.848 -0.0787 -0.1704  0.0792
18477W        W34611  16.738  14.811  11.800  0.3146  0.2935 -0.1505
18478W        W34612   2.467  11.986  12.516  0.0932 -0.0908  0.0446
18479W        W34613   1.802  13.303   8.935 -0.0227 -0.0625  0.1837
18480W        W34614  18.666  12.645  10.802  0.1351  0.2951  0.0174
18481W        W34615   6.126  14.642  13.451  0.3094 -0.1577 -0.2316
18482W        W34616   0.584   5.173   0.677 -0.1512 -0.2767  0.0054
18483W        W34617   1.639   1.082  13.174  0.1412  0.3317 -0.0285
18484W        W34618  14.363   6.588  14.629 -0.1290  0.0513 -0.0066
18485W        W34619  10.223  10.029   3.005 -0.3145  0.0383  0.0898
18486W        W34620  16.938  12.530  11.090 -0.3909 -0.1973  0.2002
18487W        W34621   3.066  19.057   4.808  0.3634 -0.2544  0.2973
18488W        W34622  18.487   2.722   3.468  0.0313 -0.0413 -0.3286
18489W        W34623  10.674   3.524   2.030 -0.1118 -0.0959  0.0129
18490W        W34624  15.355   2.458   2.436  0.2273 -0.1210 -0.0134
18491W        W34625  17.275   3.392  10.688  0.1183 -0.2457  0.3163
18492W        W34626  17.999   7.361   1.463 -0.1272  0.1710 -0.2770
18493W        W34627   5.751   8.134  14.271 -0.1490 -0.2716 -0.1682
18494W        W34628  14.465  10.593   0.500  0.2013  0.4858 -0.2059
18495W        W34629  18.012   8.761   3.507  0.4381 -0.2126  0.1946
18496W        W34630  11.921   4.611   5.467 -0.0827 -0.1042 -0.1726
18497W        W34631  13.221  16.954  14.098  0.0184 -0.1232  0.0704
18498W        W34632   2.240  15.435   0.738 -0.0590  0.0202  0.3290
18499W        W34633   3.197   0.794  13.206 -0.0449 -0.2670 -0.0935
18500W        W34634  16.946   9.856   4.562 -0.0898  0.1500 -0.1983
18501W        W34635   3.673  15.558  14.150  0.1792  0.2341  0.3080
18502W        W34636   8.632   7.054   1.149  0.1154 -0.1150  0.0970
18503W        W34637   9.245   5.358  14.699  0.2397  0.1300  0.0111
18504W        W34638  18.203   8.658  13.011  0.0476 -0.2548  0.0763
18505W        W34639   8.908  13.301  13.696  0.0848  0.2845 -0.0334
18506W        W34640  18.588   1.736  12.307 -0.3299 -0.0455 -0.1539
18507W        W34641  14.660  13.940   4.058 -0.0437  0.0618  0.0101
18508W        W34642   3.113   3.139   0.825  0.0838 -0.0873  0.2913
18509W        W34643   8.936  18.299   4.406  0.0960  0.2491  0.1949
18510W        W34644   1.828  11.227  12.821  0.2264  0.0642 -0.2992
18511W        W34645   8.017  18.418   4.292  0.1997  0.0893 -0.0797
18512W        W34646  16.072  11.522   4.969 -0.1275 -0.2015 -0.1182
18513W        W34647   1.392  14.404  12.414  0.1401 -0.2029 -0.0107
18514W        W34648  12.266   9.690   4.616  0.4123  0.1984  0.2729
18515W        W34649  10.891  16.726  11.873  0.1142  0.1275  0.1949
18516W        W34650   9.671   2.312  12.376  0.0567 -0.3280 -0.0366
18517W        W34651   2.070  18.214   1.132 -0.0049 -0.0757 -0.1874
18518W        W34652  16.111  10.199   5.089 -0.2027 -0.1011  0.1131
18519W        W34653  19.209   2.273   4.228 -0.1199  0.0578  0.0046
18520W        W34654  11.559   8.421   4.452  0.1345 -0.4314 -0.3197
18521W        W34655   8.038   2.995  11.276  0.1400  0.0265  0.0680
18522W        W34656  15.065  13.318  11.678  0.1721 -0.2448  0.4114
18523W        W34657   2.268   8.411   4.169 -0.1217  0.3154 -0.2474
18524W        W34658  14.012   4.365   1.375  0.0790 -0.2534  0.1087
18525W        W34659  18.475  16.009   4.338  0.2253  0.2004  0.2633
18526W        W34660  13.962   6.881   1.460  0.2420  0.1099 -0.1431
18527W        W34661   5.524   8.413  10.381 -0.4162 -0.1203 -0.4584
18528W        W34662  16.397   9.422   1.717 -0.0397 -0.2092  0.2486
18529W        W34663  16.725  10.622  13.468  0.4443 -0.2965  0.2320
18530W        W34664   0.624   5.141   2.375 -0.0404 -0.3106 -0.2823
18531W        W34665   1.270  16.309  12.876  0.0072 -0.0877 -0.1911
18532W        W34666  13.727  14.703  10.082 -0.2330  0.0632  0.0650
18533W        W34667  18.993  18.355  12.784 -0.1734 -0.0156 -0.1539
18534W        W34668   6.025  17.995   5.414  0.0440 -0.0546 -0.0478
18535W        W34669  13.555  13.206  11.299  0.5145 -0.1136  0.2825
18536W        W34670   6.329   4.059  10.437  0.0930  0.0561  0.1480
18537W        W34671  17.952  16.932   4.181  0.2936  0.2895 -0.1350
18538W        W34672   0.443  16.078  14.641 -0.0596  0.1793 -0.2779
18539W        W34673  13.375   5.728   4.725 -0.2153  0.0513  0.0687
18540W        W34674  13.923   8.813   2.925  0.2026 -0.1142 -0.5047
18541W        W34675  11.021  14.171  12.884  0.0087  0.1535  0.3042
18542W        W34676   8.814  12.413  13.436 -0.3950  0.0711  0.2397
18543W        W34677  18.053  17.580  13.648  0.2455 -0.2304 -0.0944
18544W        W34678  11.406  16.389   2.554  0.3262  0.2322  0.1479
18545W        W34679   1.504  16.564   3.674 -0.0554  0.0227 -0.2980
18546W        W34680  15.602  17.067   0.778  0.0550  0.2186 -0.2921
18547W        W34681  13.996   0.667   2.980 -0.4938  0.0859 -0.0527
18548W        W34682  16.390  12.429  11.259  0.1594 -0.0948 -0.0324
18549W        W34683   6.263   2.403   3.926 -0.3076 -0.2085 -0.4687
18550W        W34684   2.446   1.864   2.262 -0.3522 -0.0109  0.3276
18551W        W34685  13.293  15.764   0.737 -0.0224  0.1311 -0.3302
18552W        W34686  10.426   9.114   3.927  0.3342  0.0428  0.1262
18553W        W34687  14.841   3.114   4.353 -0.1911 -0.4053  0.1414
18554W        W34688   8.330  13.201  13.017  0.2250  0.2666  0.1483
18555W        W34689  12.264  13.377   3.924  0.0618  0.0890  0.0103
18556W        W34690   5.812  18.722   3.445  0.2519  0.1297 -0.2240
18557W        W34691   6.981   2.026  10.499  0.1196 -0.0683  0.0380
18558W        W34692  10.150   8.041   4.359 -0.1241 -0.1018 -0.1436
18559W        W34693  16.057   1.104  11.130  0.2900  0.4485 -0.3749
18560W        W34694  15.331   6.825  13.426  0.2637  0.0399  0.0985
18561W        W34695   5.977   5.006   0.344 -0.0527  0.1285  0.2150
18562W        W34696  12.973  16.988   2.610  0.1409 -0.1953  0.1581
18563W        W34697   1.131  15.734   4.151  0.0504 -0.0149 -0.1749
18564W        W34698  18.969  17.286   2.613  0.1619  0.2001  0.0123
18565W        W34699   9.246   4.931  11.354 -0.1327  0.0073 -0.0007
18566W        W34700   2.291   9.422  14.254 -0.1751  0.0376  0.2419
18567W        W34701  12.584  13.907  11.683  0.2810 -0.0003 -0.0361
18568W        W34702   1.301  16.845  11.288  0.0674 -0.2772 -0.2554
18569W        W34703   9.455   1.353   1.743 -0.3952  0.0877  0.3886
18570W        W34704  12.315   1.623   3.058 -0.1354  0.0573 -0.1553
18571W        W34705   7.098  16.379  10.502 -0.1235 -0.0721  0.4215
18572W        W34706   0.563   8.782   1.829 -0.0171 -0.1521  0.1542
18573W        W34707   7.793   0.837  10.928 -0.0367 -0.1434  0.2367
18574W        W34708  16.920   5.009   1.930  0.0430  0.3572 -0.1374
18575W        W34709   3.956   5.367   2.102  0.0623 -0.0773  0.0625
18576W        W34710  18.858   2.756  10.810  0.1214 -0.3194 -0.1297
18577W        W34711  16.095   1.889   3.801  0.1737  0.0265  0.1597
18578W        W34712   6.113  15.941   5.437 -0.0108  0.1093 -0.1052
18579W        W34713   1.165  16.523   5.146  0.0626 -0.1371  0.2600
18580W        W34714   5.332   4.654  11.357  0.0555 -0.1669  0.1554
18581W        W34715   4.313   2.632  13.196 -0.1309  0.1599 -0.0093
18582W        W34716  18.770  14.713  10.736 -0.3191 -0.4042 -0.1839
18583W        W34717   0.487   3.794  12.396 -0.1224 -0.1932 -0.1941
18584W        W34718  14.872   5.276   4.842  0.1818 -0.0732 -0.2086
18585W        W34719   6.148  18.588  10.792  0.1771  0.1039  0.2692
18586W        W34720   8.215  15.087  11.541 -0.1970 -0.1869  0.1611
18587W        W34721  12.730  16.851  13.380 -0.0251 -0.1608 -0.0322
18588W        W34722  11.726   9.331   2.516  0.1400  0.0901 -0.1350
18589W        W34723  14.202  18.839  13.008  0.0649 -0.3311  0.1064
18590W        W34724   0.832  17.121  12.123 -0.0139  0.1337 -0.1555
18591W        W34725   6.225   9.392   0.509 -0.1960  0.1327  0.0894
18592W        W34726  17.504   3.912  10.641  0.0886  0.1650  0.3087
18593W        W34727  15.487   1.812  13.636 -0.2237 -0.0423  0.2683
18594W        W34728  18.805   5.621   0.764  0.1274  0.1475  0.0254
18595W        W34729  14.830  12.812   1.542 -0.3661 -0.1178 -0.1993
18596W        W34730  18.199   0.297   4.476 -0.2458 -0.3672  0.0566
18597W        W34731   9.299  14.489   5.877 -0.0053 -0.2699  0.2048
18598W        W34732  13.318  17.917  14.131 -0.1893  0.1438 -0.2083
18599W        W34733   7.825  17.164  11.445 -0.1116 -0.1267  0.3594
18600W        W34734  11.217   6.895   1.375 -0.0795 -0.2866 -0.1081
18601W        W34735  10.554  19.145   3.032  0.0687  0.1374  0.1238
18602W        W34736  11.473   3.328   4.854  0.1043  0.0210  0.4192
18603W        W34737   3.184  10.933   9.660  0.0455  0.0129  0.0858
18604W        W34738   1.722   3.616   2.706  0.1181 -0.1667  0.0078
18605W        W34739  11.808  13.399  14.705 -0.2976  0.1670 -0.0568
18606W        W34740  12.470  13.402  13.168  0.0180 -0.1852  0.4185
18607W        W34741  14.129   0.199  11.909 -0.1207 -0.3336  0.2113
18608W        W34742   0.465   5.486  11.841  0.1392 -0.0752  0.0124
18609W        W34743  15.990  17.420   5.012 -0.1654  0.0166 -0.0531
18610W        W34744   2.888   5.632   3.766  0.3855 -0.0137 -0.0090
18611W        W34745   8.801   8.246  12.324  0.3621 -0.3396 -0.1849
18612W        W34746   2.085  18.546  11.487 -0.3356 -0.0081 -0.4194
18613W        W34747  13.050   4.091  13.889  0.2630  0.3447  0.1255
18614W        W34748   5.863   9.800  14.087 -0.1709  0.2438  0.2504
18615W        W34749   5.823   2.785   2.948 -0.0612  0.3723  0.1207
18616W        W34750  17.926  16.608   4.853 -0.1200  0.3330  0.2804
18617W        W34751  12.973   5.270   2.870 -0.2282  0.0381 -0.0376
18618W        W34752  16.030  10.819   4.204 -0.0865 -0.1370  0.2425
18619W        W34753   7.899   7.933  14.328 -0.1928  0.0154  0.1697
18620W        W34754   0.241  17.869   0.665  0.0425 -0.0840 -0.0230
18621W        W34755  11.707  13.794   2.147 -0.1634  0.2419 -0.0142
18622W        W34756   7.684   7.317  11.728 -0.0990 -0.1842  0.0778
18623W        W34757   8.652   9.855   2.695 -0.0803 -0.2213  0.1959
18624W        W34758   7.446   6.502  14.099 -0.0194 -0.1305 -0.2351
18625W        W34759  18.549  16.795  14.288  0.2796  0.0655  0.4333
18626W        W34760  16.758  10.041  12.427 -0.2187  0.2321  0.1426
18627W        W34761  13.631   2.545   2.763  0.0211  0.1950 -0.2976
18628W        W34762   0.724  12.273  11.257  0.3834  0.0127  0.0355
18629W        W34763   7.666  15.053   1.788 -0.0455  0.0632  0.0451
18630W        W34764   6.998   0.300  12.508 -0.1423 -0.1010 -0.0133
18631W        W34765  10.238  16.275  14.226 -0.1519 -0.2295  0.1934
18632W        W34766  11.206   2.197   2.462  0.0499 -0.0071  0.1258
18633W        W34767   3.866  17.241  12.699 -0.0771  0.1619 -0.2062
18634W        W34768  19.266  16.205  14.061  0.3503 -0.0076 -0.0732
18635W        W34769   5.770  13.410   5.725 -0.1428 -0.1570  0.0790
18636W        W34770   3.415  14.109   1.546 -0.1434  0.4211  0.1979
18637W        W34771   2.117  14.276   2.192  0.2113  0.3439  0.2901
18638W        W34772  14.277   2.826   1.853  0.0236  0.0147 -0.1163
18639W        W34773   0.387  16.369  13.733 -0.2117  0.2443 -0.0763
18640W        W34774  16.194  17.718  14.860 -0.0205  0.2690 -0.0399
18641W        W34775  13.062   9.654   2.817  0.2226 -0.0500  0.0351
18642W        W34776  12.484  12.818   2.477 -0.0799 -0.2020 -0.2688
18643W        W34777  10.342   0.054   2.678  0.0450  0.1167 -0.1401
18644W        W34778  15.487  14.747   2.753 -0.3730 -0.1755  0.3154
18645W        W34779  10.574  13.886   1.200  0.1010 -0.0034 -0.0292
18646W        W34780  13.424  11.637   0.118  0.1548 -0.0234 -0.0184
18647W        W34781  10.103  16.481   3.315  0.2594  0.2566 -0.1627
18648W        W34782   5.136  11.600   0.945 -0.0067 -0.1312 -0.0092
18649W        W34783   6.357  17.009   2.289 -0.2069  0.1042  0.2267
18650W        W34784  16.702   7.155  14.200 -0.1694  0.0750  0.2495
18651W        W34785   9.216   1.656   3.925 -0.3249 -0.0516  0.0496
18652W        W34786  15.131   3.235  11.665  0.2689  0.1525  0.1402
18653W        W34787   2.321  10.961   2.444  0.1319  0.0329  0.2553
18654W        W34788   3.418  11.061  12.158 -0.1269 -0.1347  0.1498
18655W        W34789   1.434   7.027   3.207 -0.1428 -0.2956  0.1208
18656W        W34790   4.919  18.404   2.897  0.0425 -0.2197  0.0781
18657W        W34791  11.757  16.892  12.930  0.2031 -0.1828  0.1469
18658W        W34792   3.761   6.749   0.175  0.1587 -0.0904  0.0969
18659W        W34793  14.168   6.897   5.610 -0.1410 -0.0503  0.0043
18660W        W34794  12.229   7.212  11.316 -0.2181 -0.1161 -0.5081
18661W        W34795  13.815   3.910  12.764  0.2385  0.3282 -0.3770
18662W        W34796   0.823   5.091   4.343 -0.1685 -0.2023  0.0728
18663W        W34797  17.823   0.850  14.077  0.1025  0.2234  0.1720
18664W        W34798   2.609  18.310   1.133 -0.2649 -0.1610  0.0762
18665W        W34799  18.256   4.826  10.903 -0.0146  0.1710  0.0146
18666W        W34800   5.852   7.129  14.943  0.1589  0.1854 -0.0997
18667W        W34801   9.194   7.043  14.060  0.1310  0.1829  0.0570
18668W        W34802  10.754  10.964   0.971 -0.3587  0.0203  0.2733
18669W        W34803  11.697  14.472   4.082  0.2020 -0.0891 -0.0821
18670W        W34804  11.958   3.141   1.028  0.1396  0.0959 -0.2004
18671W        W34805   3.838  15.812   4.342  0.0702 -0.0568  0.2850
18672W        W34806   4.918   6.264   4.462 -0.2696  0.0673  0.0108
18673W        W34807   9.622   3.625   2.206 -0.1285  0.2487 -0.1616
18674W        W34808   0.048  12.770   0.091 -0.1250 -0.0203 -0.2883
18675W        W34809   6.599  10.187   2.710 -0.1265 -0.3079 -0.0885
18676W        W34810  16.205   7.879  11.853  0.3365 -0.3156  0.2335
18677W        W34811  18.375  18.967   4.988 -0.3778  0.2426  0.0324
18678W        W34812   3.418  15.883  13.875  0.0873  0.1811  0.1259
18679W        W34813  10.602  15.603  13.571  0.0075  0.0685 -0.3262
18680W        W34814  16.904   6.984   9.978 -0.0821  0.0901 -0.1003
18681W        W34815  15.706   0.713   3.678  0.0339  0.0421 -0.0586
18682W        W34816   2.524   9.135   9.565  0.1487 -0.1954 -0.3432
18683W        W34817  13.543  13.804  12.207  0.0093  0.0819  0.2232
18684W        W34818  10.100   8.444   4.684 -0.3071 -0.0492  0.2321
18685W        W34819  17.817   4.870   9.848 -0.0178 -0.2307 -0.0186
18686W        W34820  16.081  15.465  10.752 -0.1013 -0.3728 -0.0610
18687W        W34821   1.024  16.794   3.649  0.2508  0.0971 -0.0833
18688W        W34822   7.222  14.457  13.186 -0.3479  0.1746 -0.1161
18689W        W34823   3.270   3.671  12.736  0.0544  0.4116 -0.1580
18690W        W34824   7.792  10.336   1.307  0.3123  0.2329 -0.0388
18691W        W34825   8.966   1.289  12.505  0.0698  0.2178  0.0069
18692W        W34826  10.153   9.852  10.684 -0.3071 -0.0392 -0.1412
18693W        W34827  15.444   6.348  13.143 -0.0758  0.2161 -0.1318
18694W        W34828   8.797   6.913  11.473 -0.0925  0.0744 -0.1664
18695W        W34829  13.026   5.592  11.361  0.1840 -0.0461 -0.3977
18696W        W34830   1.320   7.100   2.188 -0.0951  0.0967  0.0754
18697W        W34831   9.063  16.561   3.352  0.0313 -0.3668 -0.2567
18698W        W34832  12.771  17.931  13.404  0.3038 -0.2342 -0.4636
18699W        W34833   9.723  18.903   3.324 -0.1259 -0.0401 -0.0588
18700W        W34834   0.112   5.121   3.618  0.0315  0.1898  0.1382
18701W        W34835  14.015  12.641   5.084  0.0579  0.0851 -0.1193
18702W        W34836  12.884  14.714   4.898  0.1270 -0.0293 -0.2828
18703W        W34837  13.864   6.869  13.858  0.1966 -0.4427  0.0380
18704W        W34838   2.492   9.960   0.097 -0.2730 -0.2252  0.0773
18705W        W34839   5.286   2.330  13.417  0.0866 -0.1908 -0.0741
18706W        W34840  14.470   6.504   2.387 -0.2674  0.0064  0.0420
18707W        W34841   4.253  18.586  11.534  0.1132 -0.0541  0.3942
18708W        W34842   9.859  10.392  11.905  0.2482 -0.0411  0.0095
18709W        W34843  12.435  14.019   0.091  0.0705 -0.1351 -0.0118
18710W        W34844   8.136  16.483   5.266  0.3838  0.1720 -0.4818
18711W        W34845   6.085  17.328  12.990 -0.0930  0.6167  0.2744
18712W        W34846   8.888  14.061   0.253  0.6260  0.0667 -0.0450
18713W        W34847   7.601  16.139  11.363  0.3543 -0.3286 -0.1297
18714W        W34848  13.896   8.033  13.634 -0.0095 -0.0615  0.0849
18715W        W34849   4.090  12.499  12.710  0.6104  0.0532 -0.2010
18716W        W34850  15.350  13.557  12.980  0.0921  0.1328  0.0412
18717W        W34851   9.376  15.932   1.198  0.1192 -0.3286  0.0899
18718W        W34852   2.150  13.278   1.557  0.0938 -0.1530 -0.3038
18719W        W34853   0.388   9.893   0.185  0.1102  0.5069 -0.2055
18720W        W34854   5.412  18.074  12.647  0.2189  0.0220  0.2827
18721W        W34855  14.537   3.298  13.368 -0.3653  0.0197 -0.3783
18722W        W34856   8.533   8.182   3.478  0.1595  0.0716 -0.0850
18723W        W34857  16.211  16.093   4.234 -0.1012  0.0214  0.3685
18724W        W34858  15.195  12.280  13.458 -0.3297  0.2644 -0.1453
18725W        W34859   7.368  15.196  13.398 -0.1889  0.0200 -0.2128
18726W        W34860   6.588   5.286   2.692 -0.0632 -0.1383 -0.0031
18727W        W34861   9.482  15.907   5.025  0.1876 -0.0735 -0.4684
18728W        W34862   6.002   1.979  14.237 -0.0848 -0.4997  0.0198
18729W        W34863   2.913  18.665  12.592  0.2687  0.3362 -0.2255
18730W        W34864  11.911   3.624  11.022  0.1177 -0.2042  0.1674
18731W        W34865   7.631   3.467   2.742  0.1100  0.1076 -0.1339
18732W        W34866   3.170   1.020   9.675 -0.2219 -0.0344 -0.2079
18733W        W34867   2.928  18.191   0.685 -0.2166  0.1114  0.0183
18734W        W34868   6.312   0.543  13.923  0.1744  0.0003  0.0451
18735W        W34869  13.193   6.680   5.623  0.0657  0.0690  0.0061
18736W        W34870  12.123   9.646   2.888  0.1682 -0.2058  0.2406
18737W        W34871  10.784  10.775  11.519  0.0022  0.0127  0.0960
18738W        W34872   1.495   0.766  12.350 -0.2186  0.2311  0.4665
18739W        W34873   7.823   0.232   0.081  0.1380  0.1159  0.0753
18740W        W34874   2.943  19.133   1.762  0.1185 -0.3467 -0.0107
18741W        W34875  11.761  12.186   5.600 -0.1750  0.0540  0.0572
18742W        W34876  14.287  10.966   4.368  0.2160  0.1654 -0.2702
18743W        W34877   1.866  11.704  13.513  0.0994 -0.1909 -0.3666
18744W        W34878  16.340   2.868  10.776  0.0110 -0.3607  0.2353
18745W        W34879   3.146  12.339   5.601  0.2647  0.1335 -0.1541
18746W        W34880  11.833  11.346   4.073  0.1237  0.0205  0.1947
18747W        W34881  15.062  17.600  12.489  0.0599  0.2676  0.0659
18748W        W34882   5.544   8.874   9.647  0.1571 -0.1883 -0.0329
18749W        W34883   9.331  13.733   3.193  0.0845  0.2198  0.0795
18750W        W34884  11.459  12.773   4.610  0.0698  0.2281  0.0006
18751W        W34885   5.391  18.312  12.099  0.2044  0.1847 -0.3256
18752W        W34886  15.468  11.179   9.473 -0.1380 -0.1132 -0.0341
18753W        W34887  17.198   2.521  12.808 -0.0580 -0.0850 -0.2392
18754W        W34888   9.621  12.789   2.916 -0.0431  0.1342  0.0170
18755W        W34889   9.737  12.845  14.854  0.2079  0.0691 -0.0743
18756W        W34890  11.179   1.077  13.031 -0.1618  0.0545  0.0857
18757W        W34891  12.067  13.395  12.038  0.3049  0.2976  0.0443
18758W        W34892  11.525   2.115   1.274  0.0400 -0.2477 -0.1187
18759W        W34893  16.536  12.570  10.763  0.1997 -0.0106 -0.1597
18760W        W34894  10.103  12.178   5.081 -0.0261  0.2560  0.1823
18761W        W34895  16.454   6.366   2.675  0.0558 -0.0769 -0.1938
18762W        W34896   0.515  12.623   2.919  0.2039  0.2631 -0.0285
18763W        W34897  10.420  13.768   3.465  0.0765 -0.1966  0.2007
18764W        W34898  17.116  19.256   0.181  0.0906  0.2159  0.2199
18765W        W34899   9.555   7.909   1.448  0.3788  0.2646 -0.1400
18766W        W34900   3.815  12.374  11.240 -0.0679  0.1020 -0.3681
18767W        W34901  12.905   4.769   2.829  0.0116  0.4884 -0.0555
18768W        W34902   3.670   7.278   9.951  0.0738 -0.0030  0.1284
18769W        W34903  18.798   7.662  10.033  0.1032  0.2014  0.0712
18770W        W34904  18.367  11.782   3.683  0.3628  0.2345  0.0114
18771W        W34905   4.590   1.953  10.203 -0.0820  0.0778 -0.3223
18772W        W34906   2.139   4.677  10.435 -0.0621 -0.1344 -0.0575
18773W        W34907  16.793   8.954   9.815 -0.0530  0.0176 -0.1360
18774W        W34908  16.070   4.066   5.416 -0.1017  0.3736 -0.2298
18775W        W34909   6.861  17.835  14.511 -0.0059 -0.1032 -0.2950
18776W        W34910  17.302   7.467  11.970 -0.0414  0.1128  0.1803
18777W        W34911  10.729  10.482  12.377  0.1680  0.1208  0.1449
18778W        W34912  10.211  10.637  13.058 -0.0938 -0.0349 -0.1708
18779W        W34913   1.268   5.684   2.182  0.1130  0.1975 -0.1395
18780W        W34914  15.414   6.789   0.505  0.1924 -0.0593  0.1722
18781W        W34915  10.819   5.126   0.362 -0.2888 -0.2449 -0.0647
18782W        W34916  10.238  11.674   2.571  0.2805 -0.1107  0.0830
18783W        W34917  15.327   7.268   2.016  0.2224 -0.3512 -0.0899
18784W        W34918  15.290   2.075  14.077  0.1547 -0.2222  0.0551
18785W        W34919  15.007   2.467   0.539 -0.2291 -0.0387  0.0038
18786W        W34920  10.073   5.126   2.371  0.0194  0.0381  0.3271
18787W        W34921  10.253   5.669  12.934  0.0865  0.0824  0.0357
18788W        W34922  19.217  18.341  11.018 -0.1047 -0.0308  0.1305
18789W        W34923  12.840  16.131   0.026  0.1763 -0.2008 -0.1958
18790W        W34924   6.434   3.924  11.972 -0.2467 -0.1531  0.2531
18791W        W34925  16.558  14.506   1.735 -0.0775  0.2728 -0.1459
18792W        W34926   4.623  14.828  12.378  0.1784  0.0463  0.0197
18793W        W34927   2.588   4.907   5.022 -0.1681  0.1385  0.1234
18794W        W34928   7.355  17.820   2.583  0.1073 -0.0074 -0.1741
18795W        W34929  16.693  14.177  13.567  0.0678 -0.0022  0.0402
18796W        W34930   9.773   5.676  12.748 -0.1563  0.3610 -0.1154
18797W        W34931   9.708  12.132  12.527 -0.3124 -0.2164 -0.2992
18798W        W34932   5.267  10.220  13.091  0.1371 -0.0504 -0.2171
18799W        W34933  12.977   4.970  13.054 -0.1049 -0.3047 -0.3059
18800W        W34934   5.493   1.716  11.459  0.4619  0.2430 -0.2519
18801W        W34935   1.068   4.857  11.952 -0.0246 -0.0126  0.1894
18802W        W34936   8.042   5.925   3.882 -0.2069  0.0806  0.1416
18803W        W34937  12.044   1.823   0.416 -0.1285 -0.0891  0.2561
18804W        W34938  12.483   4.832  13.790 -0.1555  0.1489  0.0615
18805W        W34939  16.622   0.841  13.897  0.1905 -0.1199  0.2699
18806W        W34940  13.797  12.148   4.835  0.0414  0.1137 -0.3311
18807W        W34941   0.842   6.850  14.428  0.0560  0.0304  0.2114
18808W        W34942   7.813   7.569  12.595  0.1461 -0.0192 -0.0763
18809W        W34943   9.366  16.268   4.322  0.0188 -0.1232  0.2531
18810W        W34944   0.943  13.472  11.845 -0.1189  0.3206  0.0865
18811W        W34945  19.286   1.094   1.915  0.2229 -0.1765 -0.0753
18812W        W34946  13.371   7.520   3.165  0.3293  0.0309  0.0638
18813W        W34947   3.955   5.574  11.981 -0.0404  0.1436  0.1039
18814W        W34948   8.549   1.292  13.967 -0.1252  0.0844 -0.4620
18815W        W34949   8.480  17.398  13.145  0.2893 -0.2139  0.4178
18816W        W34950   7.301  13.304  12.431 -0.0694 -0.0082  0.0106
18817W        W34951  16.999  16.843   5.354 -0.0397 -0.0927  0.0079
18818W        W34952   1.511  16.896  14.170 -0.1889  0.1847 -0.1010
18819W        W34953  15.363  16.211   3.702  0.0350 -0.1653  0.2524
18820W        W34954   1.605  13.787  14.130 -0.0997 -0.4376 -0.1319
18821W        W34955  13.045   3.464   5.492  0.1396 -0.1774 -0.1233
18822W        W34956  14.627  11.461   1.377  0.0951 -0.3323  0.1114
18823W        W34957  10.907  18.221  12.005 -0.2869  0.0635 -0.1255
18824W        W34958  16.129  13.687   2.702  0.0927  0.0930 -0.1378
18825W        W34959  12.058  17.532   2.903  0.0113 -0.1244 -0.0016
18826W        W34960  16.934  10.541   2.396 -0.2465 -0.0018 -0.1370
18827W        W34961  13.478   3.349   1.322 -0.4365 -0.1415 -0.1220
18828W        W34962   8.498   1.066  12.550 -0.0887  0.3341 -0.0690
18829W        W34963   7.702   1.310  12.868 -0.0149 -0.1236  0.3964
18830W        W34964  12.186   6.226  13.306  0.1136 -0.1141 -0.2163
18831W        W34965   3.398   5.351   3.779  0.2786  0.0251  0.0489
18832W        W34966  15.988  18.473   4.666 -0.1972  0.0782 -0.2655
18833W        W34967  15.369  10.974  11.823  0.3100 -0.0542 -0.4684
18834W        W34968  17.640  14.856   2.235 -0.0159 -0.2042  0.1209
18835W        W34969   9.942  15.141   1.787  0.1613 -0.2704  0.0397
18836W        W34970   4.690   4.743   1.994 -0.0993  0.3867  0.2568
18837W        W34971  14.617   5.417  14.103  0.1636 -0.3350 -0.0415
18838W        W34972   4.182   3.062  11.061  0.0295 -0.1839  0.2941
18839W        W34973   0.723  18.484  11.474  0.0341  0.0984  0.2371
18840W        W34974  13.238  13.316  13.670 -0.3332  0.2126  0.0119
18841W        W34975  11.708   2.777   0.724  0.0315 -0.0368 -0.2904
18842W        W34976   3.378   7.686  10.221 -0.0948  0.1274 -0.0322
18843W        W34977   9.266  16.634  14.944 -0.2309 -0.0655 -0.3109
18844W        W34978   6.671  17.883   0.149  0.1295  0.1455  0.0842
18845W        W34979  14.296   7.005   9.538 -0.5410 -0.2132 -0.0563
18846W        W34980   4.921   0.363   0.497  0.0680  0.1574 -0.2517
18847W        W34981  10.090   9.350  12.214 -0.2774 -0.1560  0.2433
18848W        W34982  10.912  17.431   5.013  0.0342  0.2119 -0.2313
18849W        W34983   4.320  11.316  12.294  0.3186  0.0203 -0.0068
18850W        W34984   9.342   6.481  14.805  0.3651 -0.0122  0.0048
18851W        W34985   1.174   2.097  12.484  0.0530 -0.0958  0.0391
18852W        W34986  15.267  13.600   0.587  0.0675 -0.0037  0.1089
18853W        W34987  10.320  11.628  14.110  0.0247 -0.0288  0.2661
18854W        W34988  17.563  10.877   2.255 -0.4628  0.0814  0.2868
18855W        W34989  16.786   6.405  12.699  0.2487  0.1429 -0.1520
18856W        W34990  17.835  13.032   1.635  0.2694 -0.3982  0.0206
18857W        W34991  16.536   9.818   2.785 -0.1258  0.2483 -0.3786
18858W        W34992  12.548   1.631   9.824 -0.0779  0.1014 -0.0425
18859W        W34993   1.708  13.300  13.603 -0.1229 -0.1141  0.0622
18860W        W34994  12.590   5.260   5.825 -0.0055  0.0091 -0.2333
18861W        W34995   6.907  14.476  14.121  0.2684 -0.0172  0.1519
18862W        W34996  17.423   1.296  12.491  0.0394 -0.0144  0.1140
18863W        W34997   3.849  11.853  10.995 -0.0294  0.0047 -0.2476
18864W        W34998   6.173  18.870   2.669  0.1034  0.2413 -0.2246
18865W        W34999   7.780   7.175   9.188  0.0472  0.0139 -0.0885
18866W        W35000  10.693   7.560   0.919 -0.2953  0.0785  0.3815
18867W        W35001   3.525   3.677   1.525  0.3888  0.2782 -0.0442
18868W        W35002  17.495   9.000  11.949  0.1802 -0.1544 -0.0231
18869W        W35003   9.001   9.981  14.179  0.1181 -0.4158 -0.1747
18870W        W35004   2.901  13.055  13.350  0.2398 -0.1744 -0.2334
18871W        W35005  10.221   6.060  12.374  0.2314 -0.3474 -0.0919
18872W        W35006   0.274  15.445  13.948  0.0291  0.2156 -0.0946
18873W        W35007   0.901   5.162  13.355  0.0605 -0.1577 -0.0932
18874W        W35008   0.039  15.833  14.410  0.4460 -0.2026  0.0342
18875W        W35009  11.339   9.686   1.234  0.4337 -0.0372  0.0530
18876W        W35010  13.365   4.882  13.841  0.1567 -0.0783 -0.0809
18877W        W35011   8.067  16.900  13.798 -0.0879 -0.1986 -0.0368
18878W        W35012   2.129  15.181  14.324  0.2398 -0.3034  0.0023
18879W        W35013   1.746   4.922   0.552  0.0735  0.1120 -0.1164
18880W        W35014  11.745   1.398   0.530 -0.0260 -0.1831 -0.1843
18881W        W35015  17.726   9.048  11.045 -0.0646  0.0818  0.1402
18882W        W35016  13.635   1.471  11.844 -0.0275 -0.1973  0.1390
18883W        W35017  17.070   2.885   3.590  0.2002 -0.3264  0.0373
18884W        W35018   0.706  12.189  10.680  0.2041 -0.1506  0.0885
18885W        W35019   4.260  19.184   2.572  0.2287  0.1466  0.1387
18886W        W35020   5.818  10.789  11.484 -0.3652  0.1430 -0.2346
18887W        W35021   0.046   0.864  11.368  0.0923  0.1790  0.2264
18888W        W35022  13.227  10.439  12.312  0.1605  0.1804  0.2013
18889W        W35023   1.408   6.125   3.265 -0.0865 -0.1993  0.2519
18890W        W35024  18.371   4.611   3.175 -0.2521 -0.4423  0.0023
18891W        W35025  10.295  18.450   1.535  0.1553 -0.0757 -0.1222
18892W        W35026   9.024   4.118  12.141 -0.2178  0.1757  0.0831
18893W        W35027  19.326   8.693   3.375  0.0187 -0.1689 -0.0111
18894W        W35028   3.546   0.018   4.870 -0.1966 -0.0063 -0.1826
18895W        W35029   4.753  11.131  13.402 -0.3515  0.1938 -0.0195
18896W        W35030   8.309   9.939   1.797 -0.3901  0.1659 -0.2317
18897W        W35031   0.258   0.377   3.675  0.3963  0.0249 -0.5324
18898W        W35032   6.511  18.949   9.595  0.5080 -0.2305  0.1260
18899W        W35033  16.873  10.939   0.131  0.0212 -0.0114 -0.1196
18900W        W35034  13.451   1.686  12.849 -0.1079 -0.2110  0.1266
18901W        W35035   8.953   8.507   4.715 -0.0055 -0.3533  0.2533
18902W        W35036   8.990   8.707  14.883  0.4017  0.0506 -0.0607
18903W        W35037  11.697   3.982   4.663  0.1056 -0.1520  0.1295
18904W        W35038  16.846  10.011  13.846  0.1895  0.3208 -0.0199
18905W        W35039  14.382   9.871   4.953  0.1495 -0.2681  0.0025
18906W        W35040  16.826  13.577  14.839  0.3050 -0.0399  0.1038
18907W        W35041  15.021   1.321   3.294  0.0111 -0.0048  0.2266
18908W        W35042  11.244   5.462  11.326 -0.5653 -0.1960  0.2313
18909W        W35043   4.004   9.307   0.690 -0.0984  0.1925 -0.7311
18910W        W35044   7.522   3.768  13.498 -0.1726 -0.4000  0.1009
18911W        W35045   0.424   1.967   3.175  0.6035  0.0342  0.2146
18912W        W35046  11.827  17.742   1.635 -0.1283  0.3803  0.5205
18913W        W35047  10.731   3.311   3.621  0.2090  0.0251 -0.3271
18914W        W35048   9.245  12.670   4.972  0.0729 -0.3154 -0.2774
18915W        W35049   1.441  10.245   2.828  0.0391 -0.4485 -0.3532
18916W        W35050  18.293   5.101   0.770 -0.0184  0.1941  0.0427
18917W        W35051   3.587  14.064  11.553 -0.0814 -0.0986  0.1367
18918W        W35052  15.398  11.674   2.899 -0.1958 -0.4653 -0.0527
18919W        W35053   7.754  14.269   2.659 -0.0210 -0.1111 -0.3541
18920W        W35054  16.657  11.392  12.085 -0.1756  0.0407  0.4459
18921W        W35055   8.169   2.486  12.160 -0.0894 -0.0299  0.2364
18922W        W35056   7.187  17.800   5.110 -0.4740 -0.0175  0.0874
18923W        W35057  12.267   0.466   3.430 -0.1450 -0.0287  0.0681
18924W        W35058   1.826   9.554   4.922  0.0957 -0.1338 -0.2286
18925W        W35059   5.758   0.475   1.828 -0.2835 -0.1428  0.1096
18926W        W35060   9.467  10.115   3.983  0.3473 -0.2377 -0.1452
18927W        W35061  11.028   3.831   4.322 -0.0616  0.1234 -0.2136
18928W        W35062   6.060  16.299  10.963 -0.0542  0.1835  0.1160
18929W        W35063  10.016   6.956  13.677 -0.1995 -0.0513 -0.0460
18930W        W35064   6.680  15.327  14.333  0.0961  0.0800 -0.0883
18931W        W35065  11.191   5.723   2.494 -0.0584  0.2485 -0.2437
18932W        W35066   7.217   9.715   3.834  0.1415  0.1035 -0.1779
18933W        W35067  16.218   4.921   2.368  0.3208 -0.0519 -0.1315
18934W        W35068  11.304   2.382  10.317 -0.2982 -0.0790  0.0684
18935W        W35069  15.399   4.563   0.032 -0.2447  0.1177  0.3069
18936W        W35070  10.179  12.447   4.685  0.0112 -0.0615  0.2207
18937W        W35071   2.673   2.554   3.084  0.0843 -0.0126 -0.1357
18938W        W35072   6.142  12.759   2.316  0.2360 -0.0326 -0.0437
18939W        W35073  13.216  13.815  10.609 -0.1333 -0.0199 -0.1009
18940W        W35074   6.264  13.701   2.385  0.0014  0.2206  0.1086
18941W        W35075   7.565  12.825   2.622  0.1433  0.1065  0.0544
18942W        W35076   3.395  14.551   2.493  0.0711  0.1207 -0.0203
18943W        W35077  14.344  10.447   1.780 -0.0144 -0.0813 -0.1312
18944W        W35078   8.020  18.141  12.171  0.2308  0.1201  0.1544
18945W        W35079   7.707   3.321  13.738  0.1159  0.2731  0.0368
18946W        W35080   2.810  15.438  11.869 -0.1648 -0.3372  0.0570
18947W        W35081   3.004   4.594  10.555 -0.4925  0.1349 -0.1857
18948W        W35082   3.172  18.574   3.467  0.2328 -0.0466  0.1882
18949W        W35083   1.012   3.267   2.788 -0.1087  0.1243 -0.4043
18950W        W35084  15.993   6.788   9.936  0.1563 -0.0760  0.0997
18951W        W35085  14.758   2.370   3.228  0.0254  0.4843  0.0292
18952W        W35086   5.646   6.567  12.301  0.0732  0.2047  0.2174
18953W        W35087   8.390   6.808   3.447  0.0190 -0.2203  0.2170
18954W        W35088  10.845   7.321   3.680 -0.3644 -0.2178 -0.3632
18955W        W35089   1.163  13.322  13.632  0.1308  0.0201 -0.3492
18956W        W35090   5.642   2.214  14.622  0.1267 -0.1375 -0.1057
18957W        W35091  16.272   4.568   4.183  0.0135 -0.2979  0.0289
18958W        W35092  18.965  19.103   0.597  0.0566  0.1186 -0.1020
18959W        W35093   3.984  14.367  12.969  0.0796  0.2463  0.0109
18960W        W35094   2.452   4.812  11.346  0.2789 -0.2170  0.2712
18961W        W35095  10.871   5.309   4.990  0.1080 -0.2334  0.1892
18962W        W35096   4.302  13.952   0.957 -0.0474  0.2002 -0.2748
18963W        W35097  13.346  13.832   0.347 -0.0463  0.2895 -0.3154
18964W        W35098  17.280  13.290  12.358 -0.1711 -0.3417 -0.0443
18965W        W35099  16.504   8.532  11.288 -0.1145  0.1037  0.1374
18966W        W35100   2.909  15.888   4.279  0.0495 -0.0755  0.0825
18967W        W35101   8.973   8.313  11.819 -0.2257 -0.1579  0.2079
18968W        W35102  11.430  15.846  11.141  0.1338 -0.0409  0.0135
18969W        W35103  12.777  17.232  14.448  0.2366  0.0620  0.2847
18970W        W35104  17.491  11.701  12.116  0.1539  0.2664 -0.0424
18971W        W35105  18.757   4.857   3.448 -0.0940  0.0058  0.1036
18972W        W35106  11.068   5.309  12.885  0.0724  0.2563 -0.1014
18973W        W35107   7.696  12.219   0.647  0.1555 -0.1330 -0.1424
18974W        W35108  14.607  10.121   3.388 -0.0575  0.0805 -0.1286
18975W        W35109   0.388  10.094  10.385 -0.0715  0.2803  0.1724
18976W        W35110   7.175   8.668  10.621 -0.2594 -0.0317 -0.0715
18977W        W35111   4.307   1.586   4.963 -0.0853  0.2890  0.0116
18978W        W35112  12.247  16.983  13.198 -0.0997  0.2641  0.1914
18979W        W35113  15.921   4.200  13.741  0.0897  0.0665  0.0924
18980W        W35114   9.585   6.753   2.960 -0.2337 -0.2542 -0.1299
18981W        W35115   8.076   2.091   4.038  0.0421 -0.0311  0.1245
18982W        W35116   7.510   0.096  11.703  0.0914 -0.2027 -0.1262
18983W        W35117  10.417   1.309  11.721 -0.0175  0.1117 -0.0726
18984W        W35118  14.842  12.288   4.488  0.1443  0.2807 -0.2009
18985W        W35119  15.632   2.504   4.317 -0.0590 -0.0513 -0.1523
18986W        W35120   8.453  16.360  14.798 -0.0470 -0.1869  0.3517
18987W        W35121   8.804   6.815  10.866 -0.0332 -0.3564  0.0302
18988W        W35122   0.296   4.782   1.159 -0.0885 -0.0691  0.1727
18989W        W35123   3.504  16.738  10.404  0.1442 -0.2168  0.0274
18990W        W35124  15.544  18.243  14.305 -0.0054  0.0556 -0.1353
18991W        W35125  17.688   8.997   1.853  0.2174  0.0099  0.2205
18992W        W35126   7.909  11.153  11.474  0.0263 -0.0619  0.0725
18993W        W35127   5.778   6.990   0.947  0.1270 -0.1438 -0.3737
18994W        W35128   4.777   8.949  10.468  0.1260 -0.2636 -0.0965
18995W        W35129   6.454   7.212  10.310  0.1268 -0.0849  0.1033
18996W        W35130  13.181  14.995   2.429  0.2646  0.2375 -0.3608
18997W        W35131  14.239   3.914  11.719  0.1489 -0.3075 -0.0605
18998W        W35132  10.214  15.539  12.105 -0.0770 -0.2098 -0.0986
18999W        W35133   4.170   1.641   1.465 -0.0276  0.2193  0.2526
19000W        W35134  11.467   7.411  10.198 -0.1146  0.1023 -0.0814
19001W        W35135   3.907  18.585  14.748 -0.0234 -0.1942 -0.1840
19002W        W35136   2.893  18.240   3.773  0.1729  0.2247 -0.0917
19003W        W35137  12.089   9.927  13.534 -0.0695  0.0463 -0.0748
19004W        W35138  18.455   7.949   2.918 -0.1628  0.0935  0.1366
19005W        W35139   3.778   0.870  14.765  0.2907 -0.0035 -0.0077
19006W        W35140   0.629  15.668  10.612 -0.1781  0.0405  0.1520
19007W        W35141   5.281   8.706   3.983  0.0669 -0.0364  0.2482
19008W        W35142  16.338  13.336  12.583  0.0207 -0.1741  0.0164
19009W        W35143  13.681   4.741  14.740  0.0432 -0.1005  0.0715
19010W        W35144   0.620  16.088   2.547  0.0774 -0.1398  0.2432
19011W        W35145   0.407  18.978  12.461 -0.0846 -0.3063  0.1285
19012W        W35146  13.086   9.994   1.046 -0.1331  0.0605  0.0674
19013W        W35147  16.326  15.882  14.397  0.1633 -0.2923 -0.0063
19014W        W35148   6.415  17.435  13.575  0.2292 -0.1379 -0.4091
19015W        W35149  11.367  18.869   5.778  0.1031  0.0371  0.1518
19016W        W35150   5.378   8.816  13.055  0.1004 -0.0944 -0.1933
19017W        W35151   5.185  16.913  14.623  0.2150 -0.2613 -0.0894
19018W        W35152   9.605  19.260   3.940 -0.3521  0.1407  0.1176
19019W        W35153  17.135  10.650   4.608  0.1676  0.0501  0.0643
19020W        W35154   6.932   4.265  12.458 -0.4316  0.3788  0.0061
19021W        W35155   4.190  12.913   4.498  0.0719  0.2002 -0.1601
19022W        W35156  17.248   1.612  14.684  0.2130  0.0769 -0.1212
19023W        W35157   9.369  11.255   5.871 -0.0931 -0.0575 -0.0402
19024W        W35158  13.194  12.265   0.334  0.0527 -0.0483  0.0959
19025W        W35159  11.112  14.481   6.324 -0.0254 -0.3352 -0.0487
19026W        W35160   0.960   5.338   3.814  0.1511 -0.1595 -0.0677
19027W        W35161   3.798   3.925   1.026 -0.3026 -0.0586 -0.0824
19028W        W35162   4.508   4.771   1.049  0.2273  0.3068 -0.0046
19029W        W35163  16.207   6.070   0.319 -0.3563 -0.1990 -0.0498
19030W        W35164  19.070   1.835  13.147 -0.3201  0.1966  0.4291
19031W        W35165   9.932  10.896  12.699  0.1633 -0.1197 -0.0547
19032W        W35166  16.305   8.998   1.437  0.0892 -0.2195  0.2051
19033W        W35167  18.762   6.390  13.285 -0.1560 -0.0453 -0.0468
19034W        W35168   5.159   5.911  12.786 -0.0183 -0.1034  0.0775
19035W        W35169  15.081   4.675  11.445  0.0136 -0.1523 -0.1202
19036W        W35170   9.959   1.340   2.823  0.1382 -0.3796 -0.0778
19037W        W35171  15.464  15.731   3.528 -0.4171  0.0737 -0.0492
19038W        W35172  10.825   4.743   3.129  0.0647 -0.2660 -0.0810
19039W        W35173  11.814  15.946   4.165  0.2190  0.0854  0.1068
19040W        W35174   4.466  10.398  13.465  0.3836  0.0108 -0.2027
19041W        W35175  16.948  17.616   0.518  0.1142  0.5470 -0.0039
19042W        W35176  16.705  13.310   5.316  0.0581 -0.1579  0.0077
19043W        W35177  17.760   3.818  13.253 -0.1097 -0.1863 -0.0356
19044W        W35178  17.842  12.105  12.322 -0.1634  0.2495  0.1445
19045W        W35179  17.994   3.375  11.755  0.1486  0.1968  0.2494
19046W        W35180  16.662   7.697  10.296  0.1733 -0.1701 -0.1190
19047W        W35181   6.378  13.272  10.862 -0.1411 -0.0622  0.0536
19048W        W35182  15.412   3.985   3.410  0.0739  0.3008 -0.0543
19049W        W35183  17.484   6.018   2.395 -0.2418  0.0847 -0.1255
19050W        W35184  13.441   3.306   2.272  0.0182 -0.4184 -0.0057
19051W        W35185   5.963   9.709   4.342  0.0769 -0.3374  0.0122
19052W        W35186   8.348  11.817   0.388  0.3206 -0.1940 -0.0068
19053W        W35187   4.498   5.504  10.559 -0.0625 -0.0522  0.0675
19054W        W35188  16.632   5.574  11.578  0.0569  0.1332 -0.1532
19055W        W35189   0.253   7.733  10.031  0.2806 -0.2097  0.2743
19056W        W35190  11.107   7.143  14.369  0.0894 -0.1085 -0.0668
19057W        W35191  16.196   7.454   0.714  0.0978  0.1367 -0.0557
19058W        W35192   4.875  11.792   4.845 -0.2752  0.0643  0.0400
19059W        W35193   8.082  13.183  11.563  0.0207 -0.2347 -0.2481
19060W        W35194   4.078  14.010  12.005 -0.0431  0.0574  0.1050
19061W        W35195  17.407   8.097  13.388 -0.2238 -0.1835  0.1726
19062W        W35196   7.915  16.719   3.913  0.1156  0.3274  0.0169
19063W        W35197   1.789   7.045  11.310 -0.1449  0.0625  0.1420
19064W        W35198   8.156  13.378  12.043 -0.0298 -0.1598 -0.1571
19065W        W35199  18.196   6.143   1.005  0.0271 -0.0744 -0.1162
19066W        W35200   5.155   0.012  11.605 -0.0395 -0.0024  0.0722
19067W        W35201   4.386  10.270   2.057 -0.0906 -0.0042 -0.0818
19068W        W35202   4.738   5.174  13.489  0.1090 -0.5125 -0.2922
19069W        W35203  11.695   3.200  13.145 -0.4100  0.1478 -0.0272
19070W        W35204  17.484   6.836   0.702  0.2772 -0.0734  0.2146
19071W        W35205  11.447  18.966   2.873  0.0878  0.1883 -0.0566
19072W        W35206   3.549   0.496  12.328  0.1745  0.0179  0.4113
19073W        W35207  12.342   7.570  10.194  0.1228  0.1127 -0.0739
19074W        W35208   2.007  12.271   9.907  0.3388  0.0862 -0.2038
19075W        W35209   8.567   6.541  14.127 -0.1169  0.1744  0.2095
19076W        W35210  11.078   1.889  14.255 -0.1646  0.1344  0.0598
19077W        W35211  17.336   4.383  10.769  0.1687  0.1918  0.1379
19078W        W35212   4.505  16.326   1.009  0.0471  0.1462  0.0381
19079W        W35213   9.866   8.853   3.162  0.2688  0.1264  0.0951
19080W        W35214   6.547   7.194  10.810 -0.0027 -0.1216  0.2833
19081W        W35215  11.682  10.921   1.084 -0.2518 -0.0493 -0.0642
19082W        W35216  14.179  13.553   3.343 -0.0272 -0.0945 -0.4322
19083W        W35217  15.411   1.616  14.191  0.0923  0.0822  0.0342
19084W        W35218   8.150   0.764   1.902  0.0114  0.0157 -0.2138
19085W        W35219  10.960  10.141   3.879  0.1631 -0.0422  0.1860
19086W        W35220  16.149   3.537   1.667  0.1702 -0.0257  0.2253
19087W        W35221   2.235  16.466  12.037  0.0387 -0.3839 -0.3039
19088W        W35222   0.457   5.536   1.115  0.2089  0.0653  0.1074
19089W        W35223  17.025  13.415   4.150 -0.1841 -0.3566 -0.0435
19090W        W35224  12.411   1.422  11.609  0.1176  0.2880  0.0219
19091W        W35225  18.113  15.281   2.015  0.0949  0.2331  0.2708
19092W        W35226   5.593   7.914   4.133 -0.2725  0.1644 -0.1313
19093W        W35227  13.539   2.859   4.246 -0.0258  0.2432  0.1095
19094W        W35228  11.260   6.936   0.462 -0.2425  0.1627 -0.0337
19095W        W35229   1.593  17.611   3.386 -0.1583 -0.1016 -0.3031
19096W        W35230   5.489  19.029  11.618  0.1479  0.2876  0.1174
19097W        W35231   3.703  17.455   1.609 -0.1711  0.0297  0.3795
19098W        W35232   5.473  12.436  12.528 -0.0402  0.0437 -0.2785
19099W        W35233  14.817  10.935   3.496 -0.2307 -0.0730 -0.1564
19100W        W35234  17.441  12.790  10.329 -0.1129  0.1782  0.0199
19101W        W35235   3.261   8.217   1.546 -0.1388  0.1356 -0.0626
19102W        W35236  14.016  13.446  12.990 -0.2974 -0.2808  0.4512
19103W        W35237  14.096  13.937   9.739  0.2098 -0.2199  0.2248
19104W        W35238  17.063   2.385   5.671 -0.0607  0.0993 -0.0485
19105W        W35239   5.472   1.766   1.018  0.1678  0.3449 -0.1148
19106W        W35240   0.596   3.969   3.412  0.3344 -0.1599  0.0994
19107W        W35241   9.251   8.493  13.240  0.1831  0.0256  0.0624
19108W        W35242  16.154   1.568  13.914  0.1674 -0.1197 -0.1944
19109W        W35243   8.946  18.029  14.327 -0.3445  0.0045  0.1069
19110W        W35244  16.688   3.857   0.537 -0.3747  0.1711  0.0973
19111W        W35245   9.752   9.851  13.678 -0.3675 -0.0585 -0.0199
19112W        W35246   8.338  15.512   2.867 -0.0491 -0.3646 -0.0177
19113W        W35247  18.735  13.460   0.509 -0.3717  0.1373  0.0666
19114W        W35248  11.874   5.934   1.344  0.2979 -0.2795  0.2564
19115W        W35249  13.969  19.043  10.744  0.0597  0.1410  0.4963
19116W        W35250   8.324   4.909   3.646 -0.0769 -0.2619 -0.2441
19117W        W35251   1.076  12.215   2.289 -0.2846 -0.4357 -0.2034
19118W        W35252   4.008   1.119   3.548 -0.2703 -0.0321  0.2193
19119W        W35253   9.780   9.575  12.573  0.2574 -0.0061  0.2983
19120W        W35254   0.818   7.447   3.809  0.2240  0.2395 -0.0032
19121W        W35255   2.781   7.074   2.689  0.0490  0.5631 -0.0513
19122W        W35256   0.941   3.224   1.611 -0.0747 -0.1008  0.2605
19123W        W35257  14.291  17.477  14.425  0.3133 -0.1675  0.0282
19124W        W35258   1.383   0.828   3.722  0.1117  0.0639  0.2222
19125W        W35259   5.762   2.878  10.173 -0.0909  0.0540 -0.2277
19126W        W35260  16.884  12.711  13.066  0.0600  0.2864 -0.0732
19127W        W35261  13.486  13.444   4.068 -0.2989  0.2117 -0.0212
19128W        W35262  18.059  16.308   0.673  0.0439 -0.1955  0.2506
19129W        W35263  15.013   5.194   3.807  0.2474  0.0514  0.2041
19130W        W35264   9.514  13.175   2.572 -0.1571  0.2173  0.0935
19131W        W35265   1.361  13.582   2.379 -0.1029  0.1232  0.2591
19132W        W35266  14.023   6.010   4.052 -0.0299 -0.0893  0.1932
19133W        W35267  14.813  10.345  14.584 -0.5345  0.0725  0.0441
19134W        W35268   2.806  12.521  14.253 -0.0326  0.1293 -0.3303
19135W        W35269  11.510  10.857  14.060  0.0249  0.0496  0.1585
19136W        W35270  11.059  10.697  13.384 -0.0757 -0.0582  0.1305
19137W        W35271   8.727  15.134   2.830 -0.1359 -0.1896 -0.0625
19138W        W35272  11.765  17.907  12.246  0.1201  0.2998 -0.2986
19139W        W35273   6.549   2.160   4.820  0.1118  0.1663 -0.0642
19140W        W35274  11.526   5.708  11.708 -0.4328 -0.1602  0.1186
19141W        W35275   7.044   1.036  13.888  0.3614  0.1558  0.2649
19142W        W35276   2.004  11.288   1.903 -0.5092 -0.0462 -0.1559
19143W        W35277   3.479   0.302   2.297 -0.0937 -0.0045 -0.3535
19144W        W35278  13.618   8.466   2.785 -0.2279  0.3687 -0.1984
19145W        W35279  10.047   5.263  10.494 -0.1399 -0.1491  0.0321
19146W        W35280  12.626   9.789   3.095 -0.0131 -0.2259 -0.0057
19147W        W35281  13.420   7.258   1.077 -0.4930  0.3371  0.1003
19148W        W35282   9.039   0.837   2.293 -0.0156 -0.1836 -0.0799
19149W        W35283   3.929   9.221   9.881  0.3957 -0.0450  0.1771
19150W        W35284   6.109  12.788   0.394 -0.0937 -0.2649  0.1029
19151W        W35285  13.746  13.702  11.302 -0.0551 -0.2067  0.2031
19152W        W35286  13.527  12.168   3.694  0.0431 -0.2147 -0.1358
19153W        W35287  12.011   2.793  14.863 -0.0541  0.0092  0.2132
19154W        W35288   2.934   9.778   1.217 -0.1169 -0.2405  0.0824
19155W        W35289  14.700   4.173  12.821 -0.0842 -0.0867  0.3423
19156W        W35290  10.685   5.866   2.437 -0.0033 -0.0663  0.1325
19157W        W35291   3.365   5.190  14.091  0.2642  0.1984 -0.0784
19158W        W35292  13.913  16.750  14.823  0.1533  0.2249  0.1130
19159W        W35293   1.376   3.344   2.421 -0.1194 -0.2265 -0.0199
19160W        W35294  15.645  11.434   3.940  0.3768  0.1362 -0.4301
19161W        W35295  18.181   4.948   4.040  0.0443  0.4193  0.4682
19162W        W35296   0.642  18.950  14.707  0.0152 -0.0191  0.1114
19163W        W35297   3.933  13.170  14.070 -0.1353  0.6166  0.1139
19164W        W35298   3.786   4.209  14.344  0.1590 -0.3042 -0.0403
19165W        W35299   1.993   5.399   3.573  0.2758 -0.1535  0.0295
19166W        W35300   4.749  11.185   0.761 -0.0467  0.3724  0.0328
19167W        W35301   4.352   3.534   8.807  0.0635  0.3489  0.0084
19168W        W35302   2.938  14.603   2.249  0.0551 -0.1179 -0.1823
19169W        W35303   2.712   4.635   0.114  0.0230 -0.1744  0.1138
19170W        W35304   0.561  18.358   5.385  0.2022  0.1928 -0.0027
19171W        W35305   7.827  14.663   2.905  0.0951 -0.3523 -0.3359
19172W        W35306  11.862   6.277   0.993 -0.0148  0.1363 -0.2472
19173W        W35307  10.458   3.152  11.598  0.0018  0.2510  0.0911
19174W        W35308  10.415   7.337  12.729  0.3079 -0.1081  0.1175
19175W        W35309  17.805  14.299  13.252  0.2010 -0.1382  0.0221
19176W        W35310   4.726  18.764  12.424 -0.5524  0.0032 -0.2013
19177W        W35311  13.282   6.982   0.743  0.2291 -0.1343  0.0838
19178W        W35312   7.353   2.110  13.900 -0.0148 -0.1241  0.3107
19179W        W35313   7.279  13.166   1.952 -0.0468  0.0421 -0.0727
19180W        W35314   3.226   5.104   0.560 -0.0812  0.4284 -0.2763
19181W        W35315  15.652   4.801   3.197 -0.2340  0.0643  0.0390
19182W        W35316   5.663  15.455  14.355  0.0743  0.3081 -0.0909
19183W        W35317   5.034   5.145  13.057 -0.3091  0.1182  0.1220
19184W        W35318   6.646  16.500  13.201  0.2526 -0.0264 -0.1836
19185W        W35319  17.395   5.439  13.058 -0.3196 -0.0616  0.0000
19186W        W35320  12.105  17.889   2.011  0.1575  0.1987  0.2229
19187W        W35321  17.555  14.191   1.513  0.2872  0.1289  0.0559
19188W        W35322  18.112  16.508  12.826  0.2605  0.1606 -0.0610
19189W        W35323   8.352  15.978  13.089  0.1835 -0.2791 -0.0737
19190W        W35324   8.128  14.653  12.908  0.1660  0.0606 -0.0908
19191W        W35325   1.336  15.494   2.716 -0.1100 -0.2492 -0.0258
19192W        W35326   8.290  18.876  12.865 -0.0134  0.0778  0.0585
19193W        W35327  10.343   3.133  14.674 -0.1661 -0.2356  0.0300
19194W        W35328   1.194  13.655   2.909 -0.1022 -0.1579  0.1308
19195W        W35329  15.575   6.978  10.151  0.2015  0.1519 -0.1749
19196W        W35330   1.126  10.418   3.360  0.1992 -0.0882  0.1110
19197W        W35331  13.690  13.783   3.765  0.1266  0.3046 -0.1143
19198W        W35332  11.876  12.663  10.957  0.3046  0.0272  0.1563
19199W        W35333  13.744   8.603  12.474 -0.2755  0.0998 -0.0522
19200W        W35334  14.981   5.844  14.220 -0.1316  0.0648 -0.2875
19201W        W35335   2.853   1.743   3.988  0.1582  0.0646  0.1550
19202W        W35336  17.358   6.695  12.480 -0.2918 -0.1262 -0.3079
19203W        W35337   6.150   6.682   4.515 -0.2112  0.0994 -0.0925
19204W        W35338  14.943   6.149  10.277  0.0614 -0.0713  0.2198
19205W        W35339  13.554   0.522   2.060  0.0091  0.3048  0.3196
19206W        W35340  14.128   6.228   2.188  0.0303 -0.1771  0.1459
19207W        W35341  14.843  18.438   2.088  0.1442 -0.0532  0.1859
19208W        W35342   9.122   0.886  12.741  0.0213  0.0997  0.1513
19209W        W35343  16.175   2.351   2.866 -0.5505 -0.0151  0.0149
19210W        W35344   2.537  10.180   1.847  0.3429 -0.2021  0.3361
19211W        W35345   1.715   0.777  10.586  0.3601 -0.0693  0.0678
19212W        W35346   1.572   5.143   4.318 -0.0121 -0.0695  0.0009
19213W        W35347   4.562  15.222   5.649 -0.1777 -0.0442  0.2958
19214W        W35348   1.591   1.648  12.660  0.2203 -0.0299  0.0417
19215W        W35349  16.230   0.950  10.692  0.0354  0.2346  0.1739
19216W        W35350  16.136  17.005  10.696  0.0640  0.1228  0.1455
19217W        W35351   1.605  11.199   0.037  0.3057  0.1532 -0.1729
19218W        W35352  15.616  15.408  14.174 -0.0158 -0.1205  0.1401
19219W        W35353   1.703   8.207   8.946  0.0263 -0.2753 -0.1133
19220W        W35354   3.416  17.550  12.638 -0.0859  0.3168  0.4443
19221W        W35355  13.083   8.036   4.346 -0.3364 -0.0672  0.1992
19222W        W35356  11.525  15.283  12.621  0.0501 -0.2778 -0.0315
19223W        W35357  15.920   6.696  13.849  0.0691  0.2615  0.1212
19224W        W35358  12.272  16.539   5.772 -0.0262  0.1718  0.3827
19225W        W35359   1.481   0.462   1.604  0.0452  0.0984 -0.1551
19226W        W35360  17.042  18.743   0.750  0.0364 -0.0198 -0.2210
19227W        W35361   7.363  18.182   4.311 -0.0993 -0.0425 -0.0960
19228W        W35362   4.034   0.169   1.740 -0.0150 -0.2381  0.0706
19229W        W35363   9.267   8.844  13.605 -0.0194 -0.0403  0.0839
19230W        W35364  16.251  16.248   0.903 -0.0176 -0.1937 -0.0578
19231W        W35365  14.057  17.019  13.342  0.1050 -0.0719 -0.1351
19232W        W35366   0.307   7.465  13.912  0.1395 -0.1403  0.1841
19233W        W35367  18.860   2.343   3.912 -0.0692 -0.2042 -0.1558
19234W        W35368   0.097  18.735   3.671  0.1420 -0.0147  0.1697
19235W        W35369   4.380  13.650  13.428 -0.0528  0.3421  0.1048
19236W        W35370   2.899  11.018  14.350 -0.2810 -0.0370 -0.2893
19237W        W35371   4.841  15.020   3.232 -0.3624  0.0218  0.4533
19238W        W35372   4.162  14.970   0.597 -0.1324  0.2345 -0.1940
19239W        W35373   6.964   8.510  10.168  0.0584 -0.0249  0.0830
19240W        W35374  17.038  19.133   1.272 -0.1748 -0.2217  0.1634
19241W        W35375  10.311   2.638  13.058  0.1879  0.2205  0.0433
19242W        W35376   8.846  10.975  10.416  0.0749  0.0906  0.2761
19243W        W35377   3.172  15.659   5.567 -0.1819 -0.1861  0.2196
19244W        W35378   2.559  15.352   4.370  0.0005 -0.1755  0.0887
19245W        W35379  13.612   9.090  14.911  0.0596  0.0144 -0.0869
19246W        W35380   4.912   8.861   0.806  0.0166  0.0585  0.0715
19247W        W35381   1.039   6.534   1.025  0.3032 -0.0728 -0.2356
19248W        W35382  15.452   1.376  10.371 -0.1338 -0.1948 -0.2016
19249W        W35383   9.869   6.721   2.098 -0.1550  0.0433 -0.1390
19250W        W35384   6.291   4.936  13.820 -0.0172 -0.0575 -0.1510
19251W        W35385  18.774   3.755   1.682 -0.1149 -0.1982  0.0523
19252W        W35386   3.049   6.907   4.376  0.2735 -0.1032 -0.0730
19253W        W35387  14.168   2.981   3.815  0.0968 -0.0018  0.0631
19254W        W35388  12.738   0.856  13.928 -0.0529  0.2067  0.3278
19255W        W35389  13.035   1.226   0.841  0.1603 -0.2237 -0.3131
19256W        W35390  10.804   8.441  11.223  0.0977 -0.3875  0.0837
19257W        W35391   8.381  13.719  14.127 -0.0395 -0.0233  0.0932
19258W        W35392   8.014  13.514  13.725 -0.1251 -0.0022  0.0635
19259W        W35393   8.969  19.052  13.413 -0.3430 -0.2255  0.1832
19260W        W35394   0.888   0.279  13.023  0.1019  0.1598  0.1952
19261W        W35395  10.132   8.585  13.321 -0.3671 -0.3135  0.2819
19262W        W35396  12.422  19.311   4.447  0.3767 -0.0606  0.0345
19263W        W35397  12.452  14.751   1.056  0.2558  0.0949 -0.4344
19264W        W35398   9.151   1.268   3.077 -0.0767 -0.2939  0.3365
19265W        W35399   7.587  17.428   5.925 -0.1235  0.0867 -0.3330
19266W        W35400   2.454  13.271  13.535 -0.1679  0.0766  0.0488
19267W        W35401  10.896  16.030   5.741  0.0281  0.0302 -0.0261
19268W        W35402   0.205  12.786  13.781  0.2026  0.2978  0.1735
19269W        W35403   4.665   1.504  14.224  0.1293 -0.0220 -0.1665
19270W        W35404   4.461  14.521   0.466  0.0347  0.0408  0.2081
19271W        W35405   0.250  13.259  13.703  0.1234 -0.1692 -0.0734
19272W        W35406  14.855   6.797   0.466 -0.3197  0.0292 -0.0272
19273W        W35407  11.425  16.749   4.542  0.1188 -0.0838 -0.0469
19274W        W35408  12.644   7.995   2.672  0.0589  0.0689 -0.1087
19275W        W35409  15.651  15.915   2.095 -0.0374  0.3562  0.0831
19276W        W35410   3.638   9.180   4.856  0.1969  0.0709 -0.0592
19277W        W35411   2.923   9.223  11.587 -0.0408 -0.2228  0.1033
19278W        W35412  15.676  15.452   0.724  0.2978  0.1934  0.0329
19279W        W35413   7.035   2.977   0.044  0.1643  0.2873 -0.1625
19280W        W35414  13.783   8.658   1.610 -0.1678  0.1292  0.2243
19281W        W35415  17.825  17.195   1.187 -0.0753  0.4344 -0.1107
19282W        W35416   6.706  16.706   5.044  0.1421  0.1026 -0.4191
19283W        W35417  12.681  11.205  14.307 -0.2434 -0.1996  0.2755
19284W        W35418  13.532   7.708  13.505 -0.3993  0.1923 -0.3264
19285W        W35419   2.354   5.578   2.221 -0.0408 -0.1444 -0.0443
19286W        W35420  16.129   8.034  13.361 -0.1421  0.2358  0.0870
19287W        W35421   7.955   5.992   3.226 -0.2540 -0.2580  0.0142
19288W        W35422  15.651   5.000   4.447 -0.1838 -0.3452 -0.0545
19289W        W35423  11.440   4.973   2.433 -0.1825 -0.1442 -0.1216
19290W        W35424   1.368  13.782   9.929  0.3402  0.0598  0.0226
19291W        W35425  18.490  14.120   1.760  0.1103 -0.2584  0.2191
19292W        W35426   9.020  11.827  11.634 -0.0459  0.3894  0.1126
19293W        W35427  16.351  13.699   1.493  0.1124 -0.0166  0.0730
19294W        W35428  12.117   5.185   4.781  0.2032  0.2932  0.1912
19295W        W35429   6.312  10.921   1.383 -0.1662  0.2681 -0.0535
19296W        W35430  18.060   9.685  11.695 -0.0790  0.0014  0.1253
19297W        W35431   6.372  17.410  11.872 -0.3443 -0.3878  0.1669
19298W        W35432   1.265  11.438   1.427  0.1387  0.1247  0.0043
19299W        W35433   2.133   2.664   9.234 -0.3199 -0.3894  0.0807
19300W        W35434   5.089   6.568   0.841  0.1720 -0.1607 -0.0181
19301W        W35435  12.781   0.998   4.200 -0.0052  0.5042 -0.0398
19302W        W35436  19.329  17.911   0.223  0.0839 -0.0033  0.0751
19303W        W35437   4.808  19.038  11.591  0.1201  0.0073 -0.2613
19304W        W35438  17.947   4.852   5.334  0.1132 -0.0869  0.1691
19305W        W35439  16.877   9.848  11.507  0.0561 -0.1649 -0.1449
19306W        W35440  16.152  15.982  13.590  0.1599 -0.0394  0.0808
19307W        W35441  14.119   1.305   4.917  0.0675  0.0521 -0.2305
19308W        W35442  16.596   5.847  10.549  0.2688  0.0811  0.1953
19309W        W35443   9.123   4.492   9.254 -0.0475 -0.3765  0.1818
19310W        W35444   5.259  12.476   3.713 -0.1190  0.3568 -0.4089
19311W        W35445   7.125   8.964  10.240  0.0544  0.1321 -0.1829
19312W        W35446  17.230   7.788   0.540  0.0033 -0.1108  0.2404
19313W        W35447   1.996   2.565  14.032  0.0715  0.0441  0.0779
19314W        W35448  12.282  11.279   0.145  0.3301  0.2835  0.2989
19315W        W35449  11.484  19.088  11.339  0.1626 -0.0450 -0.0966
19316W        W35450   2.913  13.556  13.547  0.0121 -0.0648 -0.0027
19317W        W35451  17.441  14.379  10.959  0.1450  0.1856 -0.0262
19318W        W35452   1.316  11.643  14.959 -0.2441  0.2356 -0.1384
19319W        W35453   8.272  15.109   3.680  0.5219  0.1490 -0.2275
19320W        W35454  11.948  17.896   3.393  0.1272  0.1484  0.0884
19321W        W35455   0.800  16.373  13.005  0.1806 -0.4005 -0.1640
19322W        W35456   5.776   3.280   0.100  0.1487  0.2345 -0.0200
19323W        W35457  10.203   8.703   4.123 -0.0322 -0.5256  0.1726
19324W        W35458  17.834  13.914   3.911  0.4726 -0.0881 -0.0443
19325W        W35459  16.430  18.659   2.676  0.2227 -0.0850 -0.2356
19326W        W35460   0.056   8.852  12.247 -0.2124 -0.1528 -0.2242
19327W        W35461   1.749  14.555   4.211 -0.1613  0.0499  0.0071
19328W        W35462   7.320   9.670  10.704 -0.1128  0.0917  0.1680
19329W        W35463  14.778  17.796   5.824 -0.0486  0.1389 -0.0158
19330W        W35464   2.165   4.442  11.221  0.0924 -0.0483 -0.2862
19331W        W35465   4.369   4.774  13.410 -0.0610  0.4610 -0.2202
19332W        W35466   2.568   5.322  14.600 -0.0467 -0.0862 -0.1046
19333W        W35467   3.407  14.679   1.534  0.0586  0.2451 -0.2707
19334W        W35468   3.429   8.257  11.116 -0.1912  0.0935 -0.1687
19335W        W35469  17.312  17.293   4.740  0.2896 -0.3464 -0.0953
19336W        W35470  14.959   2.325  11.728 -0.4067  0.1817 -0.1091
19337W        W35471   9.152  18.614   0.265  0.2257  0.0208  0.1690
19338W        W35472  16.533  11.387   0.233 -0.0389  0.0362  0.0478
19339W        W35473  17.710  16.244   1.115 -0.1388  0.1939  0.0316
19340W        W35474   3.753  18.268  12.159 -0.1464  0.0574  0.1800
19341W        W35475   9.820  14.267  11.412 -0.1878  0.2712  0.2266
19342W        W35476   4.435   8.832  11.959  0.0913 -0.1299  0.1268
19343W        W35477  10.831   0.041  10.793 -0.0058 -0.2469  0.0550
19344W        W35478   2.343  12.804   1.059  0.3238 -0.2988  0.0204
19345W        W35479  13.445  15.823   4.982 -0.3467  0.0788  0.1603
19346W        W35480   2.560   4.491  13.701  0.2966 -0.0537  0.0732
19347W        W35481  18.027   1.859   1.564  0.1423 -0.1190 -0.2445
19348W        W35482  13.700  18.536   5.249 -0.0767  0.2021  0.3584
19349W        W35483  14.536  11.758  14.105  0.1501 -0.3053 -0.1892
19350W        W35484  16.616   8.161  10.409 -0.0383  0.4441  0.0347
19351W        W35485   0.449   7.869  12.927 -0.2024  0.2674  0.2433
19352W        W35486   8.987  14.756  13.388  0.0976  0.2426  0.2369
19353W        W35487   6.335   1.996  11.719  0.2578 -0.0744 -0.1029
19354W        W35488   6.951   5.684   4.894  0.2664  0.1635  0.0091
19355W        W35489  13.815  10.374  13.153  0.2108  0.1021 -0.0462
19356W        W35490  19.080  18.961  14.258  0.2844 -0.2902  0.1607
19357W        W35491  18.944  18.858  12.976  0.2122 -0.0590 -0.2304
19358W        W35492   4.441  13.248   2.952  0.0719  0.1001  0.2157
19359W        W35493  10.532  12.656   0.709  0.1471  0.1596 -0.2769
19360W        W35494   0.301  14.970   5.445  0.0504  0.1388 -0.2191
19361W        W35495   7.072   9.795  12.677  0.2650  0.2247  0.2474
19362W        W35496   2.859  17.299   1.138  0.0767 -0.0045 -0.3941
19363W        W35497   5.140   4.668   3.957 -0.0930  0.0170  0.3240
19364W        W35498   3.515   6.731  12.273  0.2622 -0.1562  0.2108
19365W        W35499   0.125   1.152   9.525 -0.0849 -0.0146  0.2160
19366W        W35500  18.314  15.493  14.655  0.3757  0.2095 -0.1724
19367W        W35501   6.533  14.560  13.807 -0.0180 -0.1525  0.0530
19368W        W35502   5.591  13.738   3.627 -0.2803  0.4776 -0.4775
19369W        W35503  10.766  18.135  13.610  0.3096 -0.0464  0.2432
19370W        W35504   6.061   2.405  11.679 -0.0070 -0.1033 -0.2333
19371W        W35505  18.065   5.847   3.138  0.1317 -0.1742 -0.1833
19372W        W35506  13.296   8.564   3.960 -0.0102 -0.1117  0.0424
19373W        W35507   8.439  12.113  14.872 -0.1254 -0.0209  0.0861
19374W        W35508  12.559  14.346  14.158 -0.0344 -0.0591 -0.1523
19375W        W35509  16.459   0.047   4.749  0.1041 -0.0561  0.0341
19376W        W35510  15.379  15.138  11.887  0.3086 -0.4953 -0.0359
19377W        W35511   2.331   0.685  14.669  0.0438 -0.0368  0.3197
19378W        W35512   4.839  12.715  10.566  0.2764  0.1200 -0.2581
19379W        W35513   5.044   5.103  12.531 -0.1988 -0.0447 -0.0961
19380W        W35514   7.058   5.385  11.614  0.0516 -0.0387  0.0142
19381W        W35515   2.175  18.795  14.182 -0.0250 -0.1659 -0.3052
19382W        W35516   3.535   4.927   0.910  0.4825  0.3961  0.1029
19383W        W35517   3.739  12.157   1.942 -0.0559  0.0344  0.0604
19384W        W35518   0.269   0.653   9.696 -0.3282 -0.1273  0.1037
19385W        W35519  14.517   3.420   0.682 -0.2454  0.2090  0.0668
19386W        W35520  10.115  14.398  12.920  0.1458  0.0556  0.4371
19387W        W35521  13.883  16.296  12.808 -0.1789  0.0515  0.3388
19388W        W35522   5.021  18.942  12.037  0.1787  0.0798  0.1236
19389W        W35523   3.497   1.427   3.568 -0.0968  0.2950 -0.0976
19390W        W35524   2.615   7.262  13.841 -0.1140 -0.0375 -0.1218
19391W        W35525   1.982  11.519  11.392  0.1123  0.0991 -0.3698
19392W        W35526  11.369  19.228   3.346 -0.0978 -0.1024 -0.2635
19393W        W35527   1.055   0.528   4.074  0.2927  0.0080 -0.1608
19394W        W35528  18.931   9.747  10.662  0.2066 -0.0041 -0.0038
19395W        W35529  17.085  10.282  11.182 -0.0959  0.1861  0.0486
19396W        W35530  18.404  18.498   1.750 -0.0235  0.0874 -0.1051
19397W        W35531  10.495   2.602   0.996 -0.1274 -0.0664 -0.2837
19398W        W35532  15.439  10.591  13.835 -0.0762 -0.0499  0.2296
19399W        W35533  11.111  11.172  11.715  0.0484 -0.0380 -0.0422
19400W        W35534   4.684  15.770  11.368  0.3226 -0.1495 -0.2169
19401W        W35535  12.943  11.523   4.383 -0.1278  0.0834  0.3066
19402W        W35536  18.265  10.770  10.758  0.3534  0.1353  0.1330
19403W        W35537  18.120   1.466  11.067 -0.3236 -0.2224  0.1915
19404W        W35538   3.295  16.102   1.473 -0.0385  0.4372 -0.0082
19405W        W35539  16.565   3.254   1.632  0.1692 -0.0649  0.2507
19406W        W35540   6.561   2.880   1.182  0.1500 -0.1023 -0.5390
19407W        W35541  15.901   1.582  12.927 -0.4626  0.1123  0.5511
19408W        W35542  17.822  15.574   3.643 -0.1108 -0.4116  0.3710
19409W        W35543  10.329  11.401   3.547  0.1665  0.2552  0.0740
19410W        W35544  15.882   2.569   1.531  0.1864  0.2886  0.3022
19411W        W35545  10.378   0.395   2.122  0.1457 -0.1805  0.2193
19412W        W35546  19.050   5.048  13.428 -0.1187 -0.1543  0.0649
19413W        W35547   6.513  10.173   0.962  0.1875 -0.2201  0.1466
19414W        W35548   4.861  14.606   5.052 -0.0967 -0.1005  0.0788
19415W        W35549   4.915   6.217  13.804 -0.4048  0.0378 -0.2014
19416W        W35550   0.758   3.587   1.944  0.2109 -0.3632  0.3723
19417W        W35551  13.517   4.465   1.737 -0.1635 -0.0070 -0.0651
19418W        W35552  11.720   5.526   4.565  0.1180 -0.1623 -0.7653
19419W        W35553  18.665   1.045   1.873 -0.2431  0.1164 -0.3867
19420W        W35554   7.663   2.620   3.828 -0.0655  0.3135  0.1444
19421W        W35555  17.123   9.153   4.618  0.0599  0.0091 -0.0617
19422W        W35556  14.085   8.742   3.527  0.0627 -0.1619  0.0572
19423W        W35557   4.867  15.473  12.976 -0.0397 -0.2317 -0.1479
19424W        W35558  15.438  12.904   4.324  0.1016 -0.0272 -0.1487
19425W        W35559  18.140   5.173   2.265 -0.0234 -0.1983 -0.1186
19426W        W35560   0.210   6.983   0.532 -0.1718  0.0767  0.2904
19427W        W35561   7.704  13.958  13.820  0.1948 -0.0577 -0.0833
19428W        W35562   6.746   6.005  13.027 -0.3740 -0.0800  0.1725
19429W        W35563  18.823  10.570  13.146  0.1105  0.0442 -0.4495
19430W        W35564  16.884   6.887  12.582  0.0278 -0.1991 -0.0578
19431W        W35565  17.260  14.491  14.354  0.1290  0.2027 -0.2417
19432W        W35566   4.636  10.720   3.610  0.3589 -0.1446  0.3143
19433W        W35567   5.025   4.475  13.695 -0.0901 -0.0764 -0.0029
19434W        W35568  16.029  10.900   2.029 -0.1167 -0.1356  0.1265
19435W        W35569  18.651   9.958   3.695  0.3657  0.0541 -0.0472
19436W        W35570   5.798   8.046  11.636 -0.4039 -0.1959  0.0740
19437W        W35571  13.360   0.890   1.039 -0.0333 -0.1197 -0.1810
19438W        W35572  12.289  18.033  10.601 -0.1214  0.1147 -0.2037
19439W        W35573   6.489   2.799  12.699 -0.0211 -0.0469  0.0362
19440W        W35574  16.037  18.716   0.839 -0.0950  0.0519  0.4320
19441W        W35575   2.714   7.451   3.025  0.1592  0.2367  0.2812
19442W        W35576   3.252  12.453  14.469  0.0649  0.3409  0.1442
19443W        W35577   5.320  11.009   2.322 -0.2414 -0.2087  0.0052
19444W        W35578  18.429  18.199   0.220  0.1330  0.1546 -0.3123
19445W        W35579  11.227   2.190   3.717 -0.2251  0.1892  0.2510
19446W        W35580   9.088  15.654  13.597  0.2764  0.2591 -0.0692
19447W        W35581   2.872   1.136  14.499 -0.3510 -0.1265 -0.2737
19448W        W35582   9.635  12.842   4.267 -0.3092 -0.1267 -0.1436
19449W        W35583   5.903   0.987  10.327 -0.3028  0.0106  0.1778
19450W        W35584   4.367  12.463   1.904 -0.2072 -0.5500  0.0194
19451W        W35585   0.959   4.273   0.598  0.1970 -0.0246  0.1355
19452W        W35586   1.674  14.691   0.939 -0.3773 -0.1068 -0.2962
19453W        W35587   7.739  15.906   2.203 -0.1405  0.1191 -0.0745
19454W        W35588   2.954   6.062   0.125 -0.3872  0.0452  0.2677
19455W        W35589  11.345   5.472   2.907 -0.0271 -0.0915  0.0487
19456W        W35590   8.482   8.629   4.118  0.0544 -0.0271  0.4066
19457W        W35591  16.585  15.980  11.923 -0.1835  0.2176 -0.0280
19458W        W35592   5.961  17.146   3.770  0.3826 -0.0330 -0.0982
19459W        W35593  16.169   2.945   3.971 -0.2063  0.0634  0.0739
19460W        W35594   9.263   0.072   2.379  0.1032  0.1147  0.0579
19461W        W35595  13.928   9.218   4.260  0.2643  0.0674  0.1126
19462W        W35596  13.733  13.410  11.922 -0.1537 -0.1778  0.0018
19463W        W35597   2.508  17.869   2.143  0.2763 -0.0360 -0.1372
19464W        W35598  10.799  15.402  14.450 -0.1306  0.2123  0.3202
19465W        W35599  11.676   8.269   3.217 -0.0687  0.0079  0.2251
19466W        W35600   0.852  11.517   1.067  0.1989 -0.0366  0.0863
19467W        W35601  11.607   7.378  13.389 -0.1636 -0.2202 -0.1302
19468W        W35602  14.416   9.678  10.880  0.0504 -0.2662  0.1474
19469W        W35603   4.518   8.285   1.530  0.4095 -0.1074 -0.2245
19470W        W35604  17.491   1.899  11.710 -0.1767 -0.1900 -0.0631
19471W        W35605   4.871  12.870   4.636  0.0796 -0.1526  0.0801
19472W        W35606  13.585   6.549  11.891 -0.0414  0.3238 -0.1744
19473W        W35607   6.967  16.023   5.566  0.1033  0.0952 -0.0842
19474W        W35608  15.023  13.035  12.214  0.3002  0.0708 -0.0915
19475W        W35609   0.447  12.350  12.297 -0.3346 -0.2380  0.0158
19476W        W35610   0.922   2.409  11.098  0.2545  0.1825 -0.0819
19477W        W35611   6.608  16.158   2.531 -0.0511 -0.2853  0.1539
19478W        W35612  12.069   5.534   5.135 -0.2298 -0.1928 -0.2466
19479W        W35613   3.785  18.926   3.438 -0.0950  0.2298 -0.0303
19480W        W35614   0.864   1.263  14.031  0.0376 -0.2783 -0.0107
19481W        W35615  13.701   3.944   0.653  0.0077  0.0069 -0.0541
19482W        W35616   4.626  12.958  12.946 -0.0287 -0.1113 -0.2734
19483W        W35617   4.162  16.199   4.371  0.1804  0.0436 -0.2833
19484W        W35618   6.354   0.659  13.165  0.1404  0.2245  0.1620
19485W        W35619  15.834  10.879   0.694 -0.1792  0.3372  0.3060
19486W        W35620  16.681  16.545   4.442 -0.0601  0.0425 -0.0032
19487W        W35621  14.339   0.047  13.775  0.1193 -0.0298 -0.0781
19488W        W35622  15.603   9.683   4.191  0.0423 -0.1511  0.3712
19489W        W35623  19.153   3.986   0.289  0.2020  0.5795  0.0485
19490W        W35624   2.734  13.676  11.140 -0.1225  0.1248  0.1071
19491W        W35625  13.825   1.642   0.816  0.1373 -0.3086 -0.3407
19492W        W35626   5.432  17.396   4.788  0.2128  0.2996  0.3658
19493W        W35627   1.399   0.179   3.826 -0.0994  0.2820  0.1059
19494W        W35628  11.064  16.319   0.985  0.2292  0.1369  0.2120
19495W        W35629  14.325   6.615  13.136  0.3352 -0.1119  0.2136
19496W        W35630   6.737   0.280   1.053  0.1510  0.3534  0.0635
19497W        W35631   0.204  18.488  10.721 -0.0364 -0.2517  0.4377
19498W        W35632  14.204  18.691   5.183  0.0687  0.0418  0.0011
19499W        W35633   4.392   6.348  10.703 -0.2183 -0.3981 -0.1841
19500W        W35634  13.214   2.492   1.672 -0.3486 -0.0405 -0.3907
19501W        W35635   2.063   6.395   0.668  0.0366  0.0882 -0.0141
19502W        W35636  12.762  12.802  12.474  0.4016 -0.3960 -0.3048
19503W        W35637   6.610   8.528  14.130  0.2202  0.0414  0.3096
19504W        W35638   1.126   0.813   2.406  0.1537 -0.1044  0.1048
19505W        W35639  18.270  18.628   4.545 -0.0301  0.0133 -0.0111
19506W        W35640   8.876  11.440  14.326  0.1889 -0.0591 -0.1120
19507W        W35641   8.361   2.711  12.624  0.0614 -0.2447  0.4563
19508W        W35642   5.956   7.831   1.065 -0.2967  0.1688 -0.0953
19509W        W35643   7.063   3.329  10.045  0.0390 -0.0490 -0.2050
19510W        W35644   7.577   6.956   0.141  0.2669 -0.0105  0.0852
19511W        W35645  13.667  11.747   9.973 -0.1906 -0.1638  0.0724
19512W        W35646   2.612   0.016  11.492  0.4719  0.5260  0.0455
19513W        W35647   7.820  16.059  12.498  0.0546  0.0509 -0.1480
19514W        W35648  18.959  19.093  10.287  0.2551  0.3142 -0.0011
19515W        W35649  11.045   0.770   0.506 -0.2142  0.0527  0.2416
19516W        W35650  18.922   1.293   3.873  0.2083  0.2425  0.0134
19517W        W35651  18.718   5.404  13.448 -0.0964 -0.0130  0.0530
19518W        W35652  15.520   5.183  11.343 -0.0077  0.3657  0.0574
19519W        W35653  17.116   8.295   2.656  0.0215  0.0958  0.0476
19520W        W35654  14.136  10.761   1.121  0.2584  0.0517 -0.0430
19521W        W35655  10.984  13.080  12.213  0.0570  0.1478 -0.0611
19522W        W35656  13.831  14.824  11.335 -0.0117 -0.0884  0.1542
19523W        W35657  17.924  18.897   0.824 -0.1124 -0.1114  0.0443
19524W        W35658  17.954   1.418   3.061 -0.0372  0.1606 -0.2267
19525W        W35659  18.853   7.075   2.593 -0.1356 -0.1602 -0.1239
19526W        W35660   5.856  10.890  10.125 -0.0888  0.2390  0.2056
19527W        W35661  17.102  11.896   2.213 -0.0343  0.2717  0.0994
19528W        W35662   8.037  19.174  14.847  0.0403  0.0965 -0.1630
19529W        W35663   5.022  15.092  14.903 -0.2917 -0.1420  0.1017
19530W        W35664  13.141   7.249  12.821  0.1245 -0.2159 -0.0942
19531W        W35665   6.986   7.486  12.944 -0.0312 -0.3250  0.2665
19532W        W35666   1.065   3.746   0.410  0.2627 -0.0390 -0.1223
19533W        W35667  17.518   1.103  11.581  0.0262  0.0085  0.2048
19534W        W35668   1.709  17.172   0.050 -0.0280  0.1494 -0.2650
19535W        W35669  16.568   5.986  13.764  0.0748 -0.1773 -0.2314
19536W        W35670  11.525   6.309   5.398 -0.1312 -0.0583 -0.0099
19537W        W35671   4.831  18.967   2.196 -0.2982  0.1215  0.1890
19538W        W35672  19.010  10.709   0.658  0.0753 -0.3845 -0.2211
19539W        W35673   5.017  15.871   3.723 -0.0731  0.1527 -0.2738
19540W        W35674   7.419   0.605   4.024 -0.0370  0.1732  0.1083
19541W        W35675  15.801  12.223  13.580  0.0075 -0.2138 -0.0044
19542W        W35676   5.406   7.430  13.103  0.1657 -0.0998 -0.2176
19543W        W35677  10.621   8.728   2.438 -0.1173 -0.0507 -0.4358
19544W        W35678   8.322   9.891   4.589  0.0177 -0.1501 -0.2104
19545W        W35679   9.197   7.823  14.656  0.1074 -0.4578 -0.1861
19546W        W35680   7.769  17.715  11.255 -0.3156 -0.3474  0.1983
19547W        W35681  12.849  11.538   1.502 -0.2566 -0.4240  0.0512
19548W        W35682   6.892  13.197  12.045 -0.1492  0.0893 -0.0684
19549W        W35683  11.037  11.849  12.129 -0.0864 -0.1580  0.2430
19550W        W35684  12.876  11.694   3.197  0.0069 -0.2017 -0.3206
19551W        W35685  13.297   5.144  13.436 -0.3396  0.3204  0.1225
19552W        W35686   5.997  13.292   4.457 -0.0984  0.0526  0.0544
19553W        W35687   1.645  10.793  12.665  0.3263 -0.1624 -0.1789
19554W        W35688   4.027  18.292  13.680  0.3151 -0.2225  0.0302
19555W        W35689   2.429   6.682  10.784 -0.1585 -0.2209  0.2307
19556W        W35690   3.632  13.794  14.607  0.0929  0.2092  0.1476
19557W        W35691   5.507  11.457   2.500 -0.1335 -0.2120  0.1459
19558W        W35692  16.701   0.813   3.841 -0.0122 -0.1218 -0.1018
19559W        W35693   4.700  18.772   4.706 -0.0987 -0.1485  0.2597
19560W        W35694  17.189   4.761  10.409 -0.2770  0.2050  0.0482
19561W        W35695   8.374  16.833   4.010 -0.0448  0.0197 -0.1854
19562W        W35696   3.873  13.609  10.642  0.1709  0.1535  0.2129
19563W        W35697   2.686   0.257   1.579 -0.0667  0.0798  0.1027
19564W        W35698   4.131   4.939  12.072 -0.2565 -0.0400 -0.1596
19565W        W35699   2.618   1.667  13.002  0.3036  0.0091  0.0101
19566W        W35700   6.895  18.516  11.154 -0.2656  0.0394  0.1533
19567W        W35701  10.585  18.449  13.017  0.0459 -0.0407  0.1142
19568W        W35702  18.652   8.706  10.744  0.0628  0.0975  0.1395
19569W        W35703   9.972   4.622   4.161 -0.0092 -0.0239 -0.0249
19570W        W35704   9.609   5.274   3.525  0.1987  0.0409  0.0191
19571W        W35705   0.914   7.022   1.036 -0.4036 -0.2075  0.2898
19572W        W35706  10.120   5.961   1.683  0.4710 -0.1741  0.0017
19573W        W35707  10.472   2.598   9.883  0.0208 -0.2611  0.2052
19574W        W35708  16.818   8.845  13.034 -0.1333 -0.1267  0.0912
19575W        W35709   0.066   0.864  14.733  0.1307 -0.1131 -0.0151
19576W        W35710  13.394  15.275   3.055 -0.1746 -0.1303 -0.0437
19577W        W35711  13.954   8.679  12.957 -0.1877 -0.2212 -0.4277
19578W        W35712  14.363   4.583  12.868 -0.1899 -0.0028  0.0873
19579W        W35713   8.519   1.887  10.450 -0.2364  0.2956  0.0647
19580W        W35714   8.003  18.052   3.542  0.3272 -0.2494  0.1404
19581W        W35715   3.561  14.164   4.559 -0.0110 -0.1489 -0.0226
19582W        W35716   8.281  11.831   1.969  0.1518  0.2276 -0.1827
19583W        W35717   6.304  16.403   5.148  0.3364 -0.0598  0.3157
19584W        W35718   6.826  12.223   0.156  0.0804 -0.3475  0.1717
19585W        W35719  10.184  14.205   5.181 -0.0989  0.1728  0.0290
19586W        W35720   7.095   4.949   0.288  0.4448  0.0048 -0.1159
19587W        W35721   1.868   9.050  12.824  0.0054 -0.0715  0.1665
19588W        W35722   7.870  13.251  12.748  0.1030 -0.1799 -0.0345
19589W        W35723  14.670   6.935  13.250 -0.1679 -0.1711  0.2771
19590W        W35724  14.011  18.947  13.636  0.3052  0.4463 -0.1419
19591W        W35725   3.544  14.973  10.546 -0.0059 -0.0974 -0.0491
19592W        W35726  14.368   1.717  14.205  0.0257 -0.0844 -0.1725
19593W        W35727  18.236   4.788  12.285  0.1128  0.2065  0.1640
19594W        W35728   1.458  16.550   2.039  0.0884 -0.1695 -0.1337
19595W        W35729   5.982  14.122  13.199  0.1027  0.0396  0.3152
19596W        W35730  13.450  10.967  13.650 -0.2638  0.0458 -0.0206
19597W        W35731  16.940   9.246  10.567 -0.2690 -0.0741 -0.1619
19598W        W35732  17.349   9.093   1.498 -0.0377  0.3386  0.2492
19599W        W35733   1.534   8.287   2.901 -0.4398  0.0867  0.1826
19600W        W35734   9.529   3.354   4.706 -0.1164  0.3487 -0.0240
19601W        W35735   8.713   5.309   3.767  0.2704 -0.0202  0.0537
19602W        W35736   8.206  11.066   4.556 -0.2936 -0.1541  0.1170
19603W        W35737  15.331  16.057  14.672 -0.3139 -0.0394 -0.0145
19604W        W35738  17.377  14.851  14.757  0.1883 -0.1849  0.2591
19605W        W35739   7.424   0.670   0.753 -0.2644  0.1112  0.1022
19606W        W35740  11.939   9.016   1.712 -0.1979  0.2899 -0.4674
19607W        W35741  17.386   7.077  14.695  0.0308 -0.0306  0.0469
19608W        W35742   6.906   7.227  12.448  0.3329  0.2121  0.0024
19609W        W35743  11.581  18.715   5.040  0.1677 -0.3001  0.0632
19610W        W35744   8.516   0.237  11.903  0.1055  0.1294 -0.1000
19611W        W35745  13.269  12.432  10.414 -0.0839 -0.1923 -0.1449
19612W        W35746   8.710  15.811   0.216 -0.4430 -0.0609 -0.2363
19613W        W35747   3.552   2.901   1.047 -0.0308  0.1894  0.0299
19614W        W35748   2.941   1.808   0.785 -0.2144  0.1719 -0.3535
19615W        W35749   8.134   3.029  12.048 -0.3262  0.0858 -0.0353
19616W        W35750  18.426   1.356   0.688  0.0503 -0.4779  0.1677
19617W        W35751   4.969  14.698   1.838  0.2939 -0.3402 -0.0994
19618W        W35752  15.696   7.422  12.024  0.1384  0.2561 -0.0652
19619W        W35753  13.508  16.365   3.347 -0.0951 -0.1554 -0.0899
19620W        W35754  17.913   6.929   9.759  0.0703  0.1792 -0.1412
19621W        W35755   6.734  14.950  11.584 -0.0935  0.0384 -0.0700
19622W        W35756   5.893   8.816   2.134 -0.1641  0.0312 -0.0074
19623W        W35757   4.786   2.660   1.757  0.1209 -0.1439 -0.1521
19624W        W35758   7.776  10.282   0.342 -0.0260  0.0263  0.0297
19625W        W35759   5.038   1.486  11.325 -0.1220 -0.1608  0.3527
19626W        W35760   8.282   7.634  11.148 -0.0553  0.1462  0.4717
19627W        W35761   5.360  18.227   1.625  0.1817 -0.1167  0.0733
19628W        W35762   5.052   3.364   1.173 -0.1624  0.1186 -0.0784
19629W        W35763   0.962  13.473   1.583  0.0293 -0.0178  0.5089
19630W        W35764   7.186  17.101  13.340 -0.0428  0.2655  0.2560
19631W        W35765   0.410  14.236  13.967  0.2117  0.0003 -0.3916
19632W        W35766   0.620  10.834  10.282 -0.2580 -0.0273  0.0399
19633W        W35767  13.728   9.433   2.236  0.0532 -0.2919  0.0024
19634W        W35768  17.273   4.302  13.465 -0.1549 -0.1009  0.0180
19635W        W35769  17.135   4.064   5.333  0.1496 -0.0770 -0.0917
19636W        W35770   5.215  13.361   5.316 -0.0557  0.0961 -0.0376
19637W        W35771   9.096   0.737  13.641 -0.1956 -0.0688  0.3000
19638W        W35772  19.016   1.091  11.861 -0.0905 -0.3450 -0.2144
19639W        W35773  18.698   8.432   3.998 -0.0624 -0.0710  0.0665
19640W        W35774   9.613   8.556  12.410 -0.0190  0.0038  0.0988
19641W        W35775   1.697   8.520   0.122 -0.1064 -0.1036  0.0857
19642W        W35776  11.406  15.459   2.310  0.0047  0.1403  0.1070
19643W        W35777  18.370   1.749   6.010  0.0569  0.6699 -0.0533
19644W        W35778   0.884   7.545   0.916  0.0045  0.1306 -0.1547
19645W        W35779  16.194  12.628   2.072 -0.1525 -0.1877  0.1421
19646W        W35780  10.083   5.620   1.221 -0.1336 -0.2347 -0.2009
19647W        W35781  17.269  14.561   4.379 -0.3103  0.0177 -0.2661
19648W        W35782  19.132  11.187   5.231 -0.1340  0.0981  0.1142
19649W        W35783   8.303   0.028  12.671 -0.0342 -0.0901 -0.1137
19650W        W35784  16.035  14.526   0.277  0.1687  0.0187 -0.4594
19651W        W35785   0.840  16.516   4.006  0.2497 -0.0118 -0.3677
19652W        W35786   5.099   3.055  12.267 -0.2687 -0.0915  0.2825
19653W        W35787   8.679  13.460  12.680 -0.1869  0.0120  0.1347
19654W        W35788  16.526   0.783   5.619 -0.0217 -0.1244 -0.0396
19655W        W35789  10.675   6.172   3.096  0.2769 -0.1130 -0.1573
19656W        W35790   2.508  18.165  13.507  0.0009 -0.3826  0.2130
19657W        W35791  17.637   1.086   0.740  0.4665 -0.0605 -0.0521
19658W        W35792   4.262  12.852   0.073  0.0003  0.0012 -0.0167
19659W        W35793   5.006   8.531  10.537 -0.1788  0.1855  0.1549
19660W        W35794   3.180   8.859  10.116 -0.2446 -0.1756 -0.0674
19661W        W35795   8.368   6.327  12.335  0.0189  0.0460 -0.2929
19662W        W35796   6.236   8.079  14.960 -0.0727  0.1371 -0.0069
19663W        W35797   0.410   7.720  13.490  0.3122  0.0891 -0.0378
19664W        W35798  18.489   6.272  14.651  0.1703 -0.2280  0.0966
19665W        W35799   6.560   2.311  11.409 -0.3098  0.0507  0.0032
19666W        W35800   7.954  11.143   0.955  0.2945  0.1181  0.1653
19667W        W35801   0.168   5.584  10.828 -0.3091 -0.1128 -0.1706
19668W        W35802  11.890  16.655   1.203 -0.0520 -0.0729  0.3679
19669W        W35803  14.593   0.571   2.017  0.1776 -0.1147 -0.1598
19670W        W35804   4.960   4.454   8.978  0.0934  0.0415  0.1694
19671W        W35805  19.325   5.213   1.298  0.0862  0.3299  0.3650
19672W        W35806   1.024  12.026  14.282 -0.2509 -0.2768  0.2757
19673W        W35807  10.684   6.340   4.942 -0.0056 -0.1218 -0.0571
19674W        W35808   4.997   1.728  11.772 -0.1103 -0.1208 -0.1737
19675W        W35809   6.753  15.652  11.011 -0.2115 -0.0163 -0.1529
19676W        W35810   9.609  14.494   1.926  0.1109 -0.0826  0.0030
19677W        W35811  14.524  16.481  13.757 -0.1316  0.0173  0.1046
19678W        W35812  10.704  18.623   4.471 -0.2547 -0.0530  0.1972
19679W        W35813  18.355   8.571   1.363  0.1271 -0.2376 -0.0757
19680W        W35814  14.452  15.688   2.728 -0.1384 -0.0481 -0.2205
19681W        W35815  14.122  13.224   0.831 -0.0027  0.0816  0.3574
19682W        W35816   4.553  18.923  13.373 -0.0762 -0.0662  0.3054
19683W        W35817   6.005  11.485  11.155 -0.2284 -0.0788 -0.0837
19684W        W35818   3.632  17.107   2.958 -0.1261 -0.2684  0.0246
19685W        W35819   6.335   4.287   2.045  0.0893 -0.1338  0.0318
19686W        W35820  13.653  19.298  11.075 -0.0958  0.0876  0.2140
19687W        W35821   0.187  18.286   3.788  0.0089  0.0960  0.2147
19688W        W35822   1.327   4.007  12.964  0.2598  0.1079  0.1264
19689W        W35823   6.044  11.109   0.604  0.1328  0.1027  0.1019
19690W        W35824  17.637   4.896   3.686  0.0028  0.2605 -0.0079
19691W        W35825   9.306   0.635  11.631 -0.0812 -0.0006 -0.4646
19692W        W35826  18.812   9.573   2.210 -0.2366 -0.0368  0.3295
19693W        W35827  11.741   6.123   2.421 -0.0042 -0.0939  0.0232
19694W        W35828  12.013   9.176  10.926 -0.1705  0.2136 -0.2265
19695W        W35829   1.407   6.669   0.758 -0.1087  0.0481  0.0792
19696W        W35830   1.988  10.719  12.292  0.0838  0.2141  0.1550
19697W        W35831   5.166   3.945   1.888 -0.1398  0.4640  0.0848
19698W        W35832  15.355  15.926   4.441 -0.1805 -0.0414  0.0389
19699W        W35833  15.590   9.988   3.762 -0.1026 -0.2207  0.0247
19700W        W35834  16.504   1.198   5.950 -0.2296 -0.1347  0.1830
19701W        W35835  16.195   9.081  14.693 -0.0713  0.0530  0.3417
19702W        W35836  13.012  11.919   4.060  0.1578  0.1030  0.1171
19703W        W35837   9.850   5.874  13.277 -0.2416  0.1825  0.0019
19704W        W35838   1.106   0.722   4.548  0.1466  0.0185 -0.1900
19705W        W35839   7.570  12.024  12.875  0.2530  0.1280 -0.1009
19706W        W35840  11.112   5.295  14.904 -0.0841  0.1673 -0.2022
19707W        W35841  14.738   0.506  12.055  0.0983 -0.0799  0.1315
19708W        W35842   1.036   0.061  11.871 -0.1046 -0.0897 -0.1510
19709W        W35843  12.475  16.067   3.509 -0.0152  0.0389 -0.1619
19710W        W35844  14.242   1.687   2.719  0.1017 -0.0608  0.0721
19711W        W35845  16.576  16.359  13.585 -0.2733 -0.1439  0.2014
19712W        W35846   9.458   5.575  13.551  0.4776  0.0621  0.0080
19713W        W35847  14.321  11.568   5.085 -0.2038 -0.2607  0.1982
19714W        W35848   4.353  17.665  12.026  0.3181  0.3096 -0.2319
19715W        W35849   9.828   1.395   1.288 -0.2009  0.1449 -0.2104
19716W        W35850   4.790   4.808   3.625  0.1230  0.1030 -0.1245
19717W        W35851   3.097   2.845   1.284  0.4634 -0.0720  0.0087
19718W        W35852   4.260   9.784   2.099  0.0174  0.0202 -0.1659
19719W        W35853   1.950  11.089  10.429 -0.1565  0.0620 -0.1510
19720W        W35854   3.234   8.819  10.688  0.0888 -0.2913 -0.0725
19721W        W35855   9.002  18.029  12.031 -0.1367  0.0240 -0.1048
19722W        W35856  17.806  13.887  11.600  0.0177 -0.2418 -0.0837
19723W        W35857  18.991  18.446   2.926  0.0981  0.0809 -0.3910
19724W        W35858   3.754   3.688  10.529 -0.1282 -0.0318  0.0977
19725W        W35859   0.496   0.184   2.703 -0.3801  0.2737  0.1880
19726W        W35860  16.303  11.895   0.170  0.1242 -0.1444 -0.3386
19727W        W35861  16.299  16.664  13.827 -0.0105  0.0868 -0.1239
19728W        W35862  16.011   2.882  12.046 -0.0415  0.0886 -0.1867
19729W        W35863   1.071  14.482   0.945  0.0002 -0.6135 -0.0019
19730W        W35864   8.989   0.492   2.646 -0.1098  0.1886  0.3800
19731W        W35865  13.029  14.984   5.506 -0.2197 -0.3151 -0.3624
19732W        W35866   2.555  18.891   0.072  0.3617 -0.0641 -0.2363
19733W        W35867   0.967  10.954  10.637 -0.2669 -0.1087 -0.0376
19734W        W35868   0.578  10.477  12.985  0.1684 -0.5070  0.0795
19735W        W35869  17.123   3.836  12.204  0.0780 -0.0429 -0.0017
19736W        W35870  10.019  13.305  12.303  0.2024  0.1093  0.0457
19737W        W35871   9.241   6.673   2.382  0.0714 -0.2460  0.2864
19738W        W35872  12.391   7.874   1.422 -0.1314 -0.0108  0.2352
19739W        W35873   1.289   3.828  13.569  0.0162  0.0377  0.0000
19740W        W35874   3.477   9.180  14.412 -0.0535 -0.3280  0.0745
19741W        W35875  15.268  17.168  12.496 -0.0464 -0.1671 -0.1323
19742W        W35876   2.507   0.872  14.217 -0.0744 -0.1890  0.0815
19743W        W35877   0.057  10.132   4.102 -0.2429 -0.1035  0.0127
19744W        W35878  14.403   3.911  11.155  0.0863  0.4489 -0.3139
19745W        W35879  17.816   9.716   3.440  0.0391 -0.0485  0.1153
19746W        W35880   2.348  13.581   0.681  0.2691 -0.3315  0.0227
19747W        W35881   5.202   0.733   0.682 -0.1607 -0.1521  0.1236
19748W        W35882   2.483  14.734   1.506  0.3119  0.1761  0.0573
19749W        W35883   3.285  18.945  13.405 -0.2342 -0.2463 -0.1441
19750W        W35884  14.455   4.307   2.065  0.0866 -0.1191  0.0158
19751W        W35885   0.052   6.453   2.135 -0.1410 -0.0139 -0.3224
19752W        W35886   5.913   3.364  14.536  0.2126  0.0699 -0.1641
19753W        W35887   5.396   8.710   3.477 -0.1305  0.0246 -0.3311
19754W        W35888  17.960  12.419   0.774  0.0783 -0.1688 -0.1531
19755W        W35889   8.357  12.301   1.187  0.0519  0.0606  0.2340
19756W        W35890   2.169  13.363  12.782  0.1781 -0.0629  0.0672
19757W        W35891  14.173   6.605  10.476 -0.0470  0.1049 -0.2770
19758W        W35892   6.499   5.946   4.044  0.0877 -0.1666  0.1761
19759W        W35893   1.558   6.395   3.835 -0.0271 -0.0169 -0.2575
19760W        W35894   0.520  16.066   0.661 -0.1010 -0.2165 -0.0596
19761W        W35895  15.332   0.185  12.289 -0.1298 -0.2264 -0.0724
19762W        W35896   8.772   9.073  11.711  0.2483  0.0738 -0.0562
19763W        W35897  16.142   5.046   4.434 -0.0798  0.0653  0.1202
19764W        W35898   0.240   5.199   9.857  0.0156  0.1354  0.0944
19765W        W35899  17.035  11.508  13.859 -0.0409  0.3175  0.1273
19766W        W35900  13.929   2.285  14.591  0.2498  0.2299 -0.1026
19767W        W35901   1.147  16.153  11.783 -0.2193 -0.4068 -0.3311
19768W        W35902   1.630   8.751   1.707 -0.1238 -0.0924 -0.0696
19769W        W35903  12.400   0.784   9.998  0.0093 -0.1357 -0.2258
19770W        W35904   6.044   5.057  11.098  0.2778  0.3660  0.1333
19771W        W35905   0.237   2.915  11.173  0.1043  0.2733  0.4026
19772W        W35906   6.025   6.492  11.226  0.2054 -0.1125  0.0026
19773W        W35907  11.423   8.925   2.727 -0.0092 -0.3760 -0.0512
19774W        W35908   8.854   3.184   4.329 -0.0826 -0.0006 -0.1682
19775W        W35909  18.786   8.789  13.010  0.3289 -0.3232 -0.1103
19776W        W35910   8.359  17.930  11.048 -0.2002  0.3550  0.0571
19777W        W35911  11.695   2.226   2.820  0.2065  0.0511 -0.0663
19778W        W35912  18.826  13.877  12.665 -0.1319  0.1621 -0.4774
19779W        W35913   8.866  15.116  14.139  0.1616 -0.1294  0.1098
19780W        W35914   6.285   6.718   1.970 -0.0853 -0.3466 -0.2536
19781W        W35915   9.673   6.107   1.277  0.0368 -0.1713 -0.2835
19782W        W35916   9.545  10.084   0.783  0.1582 -0.0032 -0.2094
19783W        W35917   2.464  19.141   1.622 -0.1373  0.0593 -0.0879
19784W        W35918   6.429   1.665   5.112 -0.2505 -0.0049 -0.0256
19785W        W35919  18.909  11.339   3.649  0.0290  0.2383 -0.0898
19786W        W35920  11.248   3.093   3.944  0.1951 -0.0217 -0.0401
19787W        W35921  11.926  14.918   4.383 -0.3786 -0.4217 -0.4008
19788W        W35922   2.686  10.345   3.017 -0.3061 -0.0757 -0.0118
19789W        W35923  13.178   0.347   1.058  0.0006  0.0053 -0.1306
19790W        W35924  19.073   5.930   0.464 -0.1066 -0.1546 -0.1355
19791W        W35925   3.762  14.510  11.894  0.1711  0.0849  0.4289
19792W        W35926   9.390  18.349   4.239  0.1679 -0.2082  0.2498
19793W        W35927  16.223   0.657   1.540 -0.1277  0.2990 -0.2478
19794W        W35928   8.040  10.618   9.018  0.1085  0.4252  0.1433
19795W        W35929  17.001   8.208   3.168  0.2089  0.4138  0.3274
19796W        W35930   6.824  18.114   3.081 -0.2547  0.1067 -0.1602
19797W        W35931   3.347   3.681  14.144 -0.2858  0.1795 -0.1717
19798W        W35932  10.749   8.554   2.880 -0.0568  0.2741  0.3194
19799W        W35933   7.120  12.860  14.471 -0.0209  0.0800  0.3255
19800W        W35934  16.136   9.603   1.220 -0.0306  0.0482  0.0439
19801W        W35935  18.923   2.719  14.216 -0.1678 -0.3979  0.0208
19802W        W35936   4.175  10.345   0.777  0.0395 -0.0682 -0.2669
19803W        W35937   0.431   0.390   5.032  0.3936 -0.4279 -0.0954
19804W        W35938  10.222  17.245   4.098  0.0853  0.1347 -0.2516
19805W        W35939  13.120  16.494   1.290 -0.1047 -0.1841 -0.0776
19806W        W35940  11.398  13.399  14.157 -0.0119 -0.1716 -0.0448
19807W        W35941  17.410  17.800   0.749 -0.3587 -0.1607  0.4632
19808W        W35942   4.891   5.431  10.933 -0.0137 -0.0129 -0.3478
19809W        W35943   2.580   0.708  12.091  0.0824  0.2119 -0.3308
19810W        W35944   1.075  14.734  14.520 -0.1238 -0.0718  0.1144
19811W        W35945   1.234  16.406  10.822  0.1494  0.1891 -0.0149
19812W        W35946   4.093  14.775   3.193 -0.1865  0.0187  0.0185
19813W        W35947  19.125   0.647  14.304  0.0691 -0.2319 -0.0405
19814W        W35948  12.818  10.142  12.097 -0.4347 -0.0965  0.4305
19815W        W35949   3.141   3.374   9.763  0.1619 -0.5045 -0.2907
19816W        W35950  17.580  16.335  12.019  0.1390  0.1652 -0.0814
19817W        W35951   5.609  11.873  14.472 -0.1116  0.0363 -0.1257
19818W        W35952  10.037   8.085   1.393  0.1614 -0.0667 -0.1939
19819W        W35953  10.850   5.306  10.298 -0.0811 -0.1234  0.3107
19820W        W35954   0.729   5.025  14.283  0.2375 -0.0446 -0.1065
19821W        W35955   9.461   7.108  12.785 -0.0917  0.0043  0.0210
19822W        W35956  17.123  10.556   9.469 -0.1021  0.0684 -0.1740
19823W        W35957   6.508  18.492   0.292 -0.4493  0.0369 -0.1701
19824W        W35958   7.502  12.258  10.490 -0.3138 -0.1595  0.2890
19825W        W35959  17.335   6.217   3.810 -0.0675 -0.0586  0.0341
19826W        W35960  10.320  10.761   2.924  0.1204 -0.0712  0.1564
19827W        W35961   7.667  14.373   3.382 -0.3067 -0.0905 -0.3258
19828W        W35962  14.025   0.769   1.948  0.2415  0.3957  0.2569
19829W        W35963   3.088   6.677  10.520 -0.0146 -0.1231  0.0431
19830W        W35964   8.626  14.664   1.800  0.2752  0.1254  0.1506
19831W        W35965  15.383  13.747  14.119  0.0269  0.0694 -0.1960
19832W        W35966   3.662   4.468   2.152 -0.3818  0.2526 -0.1720
19833W        W35967   6.956   5.678  12.326 -0.5119 -0.1621  0.0161
19834W        W35968  10.042   2.775   2.664 -0.2818  0.5035 -0.2926
19835W        W35969   4.209  13.887  14.541 -0.1776  0.0249 -0.2506
19836W        W35970  18.285   3.312  13.927  0.2540  0.1940  0.2517
19837W        W35971  11.399  18.182  12.427 -0.0015  0.1391  0.2041
19838W        W35972  12.374  16.064   0.743 -0.1801  0.2824  0.0521
19839W        W35973   8.261  14.922  14.589  0.0436  0.0676  0.2201
19840W        W35974  17.048  12.845  10.672 -0.3430 -0.1195  0.0019
19841W        W35975   2.431   7.544   9.659 -0.4187  0.2674 -0.1622
19842W        W35976  13.333  15.602  11.265  0.1971 -0.0143  0.0628
19843W        W35977  13.800  16.142   2.371 -0.1845 -0.1375 -0.0043
19844W        W35978  18.340   2.757  12.771  0.2024 -0.2532 -0.2318
19845W        W35979  13.525  16.938   0.248 -0.0472 -0.0887  0.1209
19846W        W35980  12.926   8.227  10.427 -0.1691  0.1647 -0.0495
19847W        W35981   7.088  15.851   0.886 -0.1724  0.3249  0.2244
19848W        W35982  18.711   8.884  14.137  0.1171  0.0313  0.4172
19849W        W35983  17.427  14.876  10.928 -0.0872 -0.4478  0.0159
19850W        W35984   6.677   3.299   4.083 -0.3794 -0.0116 -0.2305
19851W        W35985   3.537   8.706   2.805  0.0308  0.3003 -0.1238
19852W        W35986   8.003  15.016   0.261  0.0596  0.2304 -0.1301
19853W        W35987  13.129   2.175  13.503  0.0474 -0.2914 -0.3593
19854W        W35988   3.816   5.968   4.735  0.0610  0.0397 -0.3076
19855W        W35989  10.551   3.190   0.677  0.1679  0.1200  0.1111
19856W        W35990   0.837   0.803  12.870 -0.4991  0.3190  0.0666
19857W        W35991  10.856  18.206  12.533  0.2078  0.2287  0.1727
19858W        W35992  10.172  16.228  11.317  0.2214  0.0380  0.1775
19859W        W35993  15.225  10.294  13.365  0.2413  0.0625 -0.0873
19860W        W35994  10.794   9.580   5.647 -0.1100  0.0586  0.1226
19861W        W35995  14.219  12.815   1.411 -0.1826  0.3834  0.1501
19862W        W35996   0.773   3.830   4.783  0.0195  0.0037  0.0802
19863W        W35997   7.552  12.461   2.952 -0.3193 -0.2388 -0.2900
19864W        W35998  17.160   6.656   3.529  0.0489 -0.0151  0.0186
19865W        W35999  18.687   2.274  13.644 -0.1965 -0.3101 -0.0370
19866W        W36000   8.524  16.712   3.537  0.1030 -0.3133  0.0077
19867W        W36001   3.691   1.325  10.794  0.0158  0.0136  0.0316
19868W        W36002  13.290  13.954   3.399  0.0365 -0.1043  0.0130
19869W        W36003  10.584  11.619   4.813  0.2210 -0.0713 -0.2383
19870W        W36004  18.269   4.290  11.880  0.1587  0.1795  0.0957
19871W        W36005   0.550   5.942  13.112  0.0405  0.0530  0.0898
19872W        W36006  17.320  13.608   3.368  0.3391 -0.1093 -0.0112
19873W        W36007   3.553   0.622  13.660 -0.1071  0.3023  0.1081
19874W        W36008   3.634   7.429   3.963  0.3023 -0.0614  0.0688
19875W        W36009   6.142  11.562   3.285 -0.1983  0.1435  0.2229
19876W        W36010   3.354  11.856   9.516  0.2601  0.0990 -0.1258
19877W        W36011   4.468   6.618   2.298  0.3551 -0.0493 -0.2894
19878W        W36012   0.368  14.199  14.910  0.0824 -0.1827 -0.3201
19879W        W36013  17.506  14.367  14.802 -0.2815 -0.0086  0.2322
19880W        W36014   0.843  14.482  12.475 -0.1362  0.0078 -0.0932
19881W        W36015   1.548  11.258  10.913  0.0806 -0.4396  0.1085
19882W        W36016  18.019   9.355   2.039 -0.1564  0.0286 -0.2602
19883W        W36017  11.578   2.672  12.224  0.0908 -0.1600  0.2085
19884W        W36018   9.453  14.972  13.312  0.0872 -0.0999  0.0787
19885W        W36019  17.054  16.063  13.737 -0.0227 -0.0004 -0.1169
19886W        W36020  16.207  14.336  10.338  0.0856 -0.2754  0.0868
19887W        W36021   3.815   7.375  14.558 -0.2290 -0.1091  0.1256
19888W        W36022  13.640   9.925  14.449  0.1623 -0.2795  0.0533
19889W        W36023   9.333   1.193  14.411  0.1294 -0.0231  0.2192
19890W        W36024   2.737   9.695   2.168  0.1855  0.0386  0.4663
19891W        W36025  11.819   9.710  13.854  0.2111 -0.0422  0.1805
19892W        W36026   1.558  14.995   2.423 -0.2889 -0.1403  0.3834
19893W        W36027   3.130  17.669   3.633  0.2206  0.0683 -0.0131
19894W        W36028  11.132  18.854  11.660 -0.2379  0.1380 -0.0199
19895W        W36029  13.483  18.022   4.266 -0.0046  0.0130 -0.0693
19896W        W36030   1.180  18.839  11.896  0.1091  0.0494 -0.0849
19897W        W36031  16.111  11.068   1.085 -0.1489  0.0235 -0.1417
19898W        W36032   9.925  10.448  14.399  0.0579  0.1287 -0.1280
19899W        W36033  15.818   9.471   3.758 -0.0247  0.0433  0.0123
19900W        W36034   2.315   7.430  11.858 -0.5830 -0.2785  0.1455
19901W        W36035  12.335   2.105  12.519 -0.2867 -0.0799  0.0011
19902W        W36036   1.986   1.702  11.033  0.3132 -0.0617 -0.1386
19903W        W36037  16.497   5.928   1.579 -0.2067  0.0131 -0.2754
19904W        W36038   4.296   4.479  11.494 -0.2430  0.0582 -0.1901
19905W        W36039   9.058  11.119  12.352 -0.2080  0.0358  0.1502
19906W        W36040   7.433   6.104  12.874 -0.2281  0.3416 -0.2715
19907W        W36041  11.441  10.002   3.895  0.0361  0.2429 -0.0231
19908W        W36042  13.146   2.445  14.139 -0.0676 -0.3262 -0.0383
19909W        W36043  14.104  16.450   1.588 -0.0883  0.0076 -0.2233
19910W        W36044   1.948   7.448  13.855  0.1941 -0.1974 -0.1120
19911W        W36045   7.230   3.536   5.067  0.0963 -0.1973  0.1842
19912W        W36046  15.205  15.122   4.492  0.0041  0.3554 -0.0008
19913W        W36047   8.096  13.834   1.060  0.0086  0.0281 -0.0327
19914W        W36048   3.344   5.459  10.163 -0.1812 -0.0087 -0.1630
19915W        W36049   7.727   4.796  10.977 -0.2058 -0.0268 -0.1932
19916W        W36050   5.969  15.704  11.477  0.0327  0.1776 -0.2993
19917W        W36051   5.930   4.094  11.942 -0.3108  0.1279  0.2069
19918W        W36052   1.460  19.351  13.931 -0.1659  0.2787  0.4145
19919W        W36053   6.190  10.118  13.729  0.2776  0.2257 -0.4630
19920W        W36054   9.130  16.652   5.438  0.1155 -0.0679  0.0479
19921W        W36055   4.412   5.481  10.035  0.0867 -0.1192  0.1501
19922W        W36056   1.371  15.112  13.045  0.0114  0.1549  0.0607
19923W        W36057   4.475   9.727   3.416 -0.0699 -0.2576  0.0776
19924W        W36058   8.981  16.371   1.152  0.0732  0.1589  0.0453
19925W        W36059   8.171   4.450   1.189  0.0223 -0.1343  0.0123
19926W        W36060  11.872   5.036  14.609  0.3227  0.1743 -0.3655
19927W        W36061   0.812   5.107  10.283 -0.0226 -0.0872  0.0725
19928W        W36062  18.669  17.340   3.573  0.0203  0.1498 -0.1787
19929W        W36063   3.352  14.071   1.045  0.2448  0.1502  0.0465
19930W        W36064  18.165  10.683  10.242 -0.0830  0.1646  0.0849
19931W        W36065  10.343   4.364  13.135  0.0112  0.3000 -0.4062
19932W        W36066  15.844   0.702  13.035 -0.1217  0.1405  0.2653
19933W        W36067  15.459   7.312  10.931  0.0360 -0.2060 -0.1473
19934W        W36068  16.431  10.573   9.960  0.1294  0.0987 -0.0747
19935W        W36069  17.618   8.201  12.410  0.1526 -0.3739  0.0447
19936W        W36070   3.072   0.154  11.534 -0.1169 -0.1588 -0.0760
19937W        W36071  14.685   7.531   4.852 -0.0682  0.1213 -0.0923
19938W        W36072   3.387  10.298  10.398 -0.2988 -0.1483 -0.3373
19939W        W36073  18.075   5.501  10.408  0.2674  0.0431 -0.1565
19940W        W36074  11.060  17.760  13.547 -0.0458 -0.3502  0.1049
19941W        W36075   4.778   9.170   2.601  0.2576 -0.4551 -0.2515
19942W        W36076   3.285   7.274  14.545 -0.1641 -0.0014 -0.0727
19943W        W36077  13.812  15.923   0.770 -0.0950 -0.1182 -0.0357
19944W        W36078  19.144   9.061  14.850 -0.0220 -0.1654 -0.1015
19945W        W36079  14.591  10.586   1.384 -0.1312 -0.1538 -0.0318
19946W        W36080  15.940   1.130   0.001  0.2340  0.2506 -0.1095
19947W        W36081   0.278   8.643  12.653  0.2294 -0.0643 -0.3075
19948W        W36082   6.057   9.228   1.790  0.0903  0.0292 -0.4027
19949W        W36083   0.146   0.981   4.420 -0.1674  0.1110 -0.0007
19950W        W36084  11.308  16.655   5.097  0.0665  0.1372  0.2155
19951W        W36085  16.585  17.358   0.144  0.0945 -0.3204  0.0203
19952W        W36086  19.174  13.186   2.035  0.2821  0.2319 -0.0062
19953W        W36087   0.380   1.850   2.003  0.1160  0.1610 -0.0315
19954W        W36088  17.383   8.204   4.200  0.0458 -0.0502  0.2084
19955W        W36089  12.752   0.539  12.565 -0.2710 -0.2618 -0.0347
19956W        W36090  19.159   4.139   3.560  0.3290 -0.2693  0.3747
19957W        W36091   0.884  10.478  13.980 -0.1742 -0.1080  0.2534
19958W        W36092   8.746   0.299  12.860  0.3629 -0.1220  0.1691
19959W        W36093   4.547  13.778   3.540  0.2035  0.4116  0.1075
19960W        W36094   1.239   7.212  14.496  0.0460  0.0592  0.0023
19961W        W36095   6.899   8.851   2.647 -0.0197  0.1107 -0.1346
19962W        W36096   0.261   4.302  12.474  0.0664 -0.1581  0.1625
19963W        W36097  10.334  16.006  13.777  0.1751  0.0897  0.0635
19964W        W36098  15.715  17.975   2.703  0.0696  0.4365 -0.0294
19965W        W36099  12.100   3.911  12.741 -0.0984 -0.1324  0.0968
19966W        W36100   4.999   8.746   4.416  0.0498  0.2125  0.1812
19967W        W36101   3.572  10.080   4.099 -0.1410  0.0475  0.0945
19968W        W36102  14.862  17.113  14.460  0.0497  0.2267  0.1063
19969W        W36103   9.604   7.069   2.357 -0.0906 -0.1982 -0.0618
19970W        W36104   4.848  13.803   1.807  0.3832 -0.0211 -0.2274
19971W        W36105   2.045   7.658   3.481 -0.0375 -0.2181 -0.3270
19972W        W36106   6.867   6.838  10.214 -0.3952 -0.1934  0.1879
19973W        W36107  15.206  17.392  11.197  0.0657  0.1014  0.1825
19974W        W36108  12.534   9.446   0.794  0.0052  0.0260  0.2617
19975W        W36109  18.199   3.005   4.457 -0.0027  0.1526  0.0179
19976W        W36110   0.280   6.324  13.107 -0.0135 -0.4246  0.0714
19977W        W36111   8.079   0.252   4.649  0.0493 -0.1957 -0.0336
19978W        W36112  14.492   6.958  10.670  0.1753 -0.0829  0.0969
19979W        W36113  10.146  17.677   4.463  0.1039  0.0926 -0.1515
19980W        W36114   1.250   7.848  13.030 -0.0912 -0.2130 -0.1352
19981W        W36115  10.143  11.297   1.986  0.0237  0.2181 -0.1863
19982W        W36116  12.553  15.129   3.022 -0.3293  0.0305  0.0110
19983W        W36117  17.458  15.592  14.045  0.0260  0.0101  0.3761
19984W        W36118   7.712  14.393  13.382 -0.2777 -0.2588  0.2418
19985W        W36119  12.265  18.536   1.033  0.0438  0.1548 -0.2998
19986W        W36120  17.112  18.067   0.472 -0.3870  0.1662  0.0210
19987W        W36121  12.027  15.387   3.979  0.0203 -0.1004  0.0810
19988W        W36122   9.077  12.241   4.626  0.1892  0.1644 -0.0518
19989W        W36123  11.464   5.447   3.762  0.4026  0.0473 -0.1477
19990W        W36124   3.968  15.145  13.096  0.5628 -0.2645 -0.2928
19991W        W36125   8.008   5.484  10.008  0.3086  0.0648  0.0278
19992W        W36126   6.223  14.487   3.491 -0.1791  0.0026 -0.0168
19993W        W36127   9.578  18.981  11.615 -0.1895 -0.0258  0.0346
19994W        W36128   5.704  15.975  13.345  0.0648  0.0150 -0.3083
19995W        W36129   3.002   8.697   4.525 -0.0707  0.2835 -0.0980
19996W        W36130  17.052  12.994   0.826  0.0785  0.1140  0.0671
19997W        W36131  11.459   2.504  13.621  0.0377 -0.0476  0.0321
19998W        W36132   4.669  18.743  11.202 -0.1652  0.0502 -0.1641
19999W        W36133   7.433  11.356   2.904 -0.2034 -0.1523  0.1100
20000W        W36134   1.210   4.155   4.518  0.0462  0.1419  0.0186
20001W        W36135  16.824  13.526  10.468  0.1928 -0.1005 -0.1623
20002W        W36136   5.876   4.126  10.849 -0.2282 -0.3359 -0.3981
20003W        W36137  17.306   2.113   3.968 -0.0169  0.1048 -0.0778
20004W        W36138  17.160   0.187  14.088  0.0168 -0.2795 -0.0579
20005W        W36139  13.911   3.289   3.433 -0.1072  0.1416 -0.2391
20006W        W36140   9.295   4.270  10.337  0.0240  0.2592 -0.2631
20007W        W36141  19.041   9.445  12.152  0.1303 -0.1958  0.2076
20008W        W36142  10.430   7.813  12.685  0.2000 -0.1646  0.2367
20009W        W36143   6.668  11.028  14.759 -0.2443 -0.1828 -0.0001
20010W        W36144   3.959  12.515   0.447  0.0453 -0.0478 -0.2750
20011W        W36145  10.174  11.540   3.059 -0.2697 -0.3896 -0.0423
20012W        W36146  16.102  14.956  13.239  0.0071 -0.2898  0.0207
20013W        W36147   4.208   0.519   1.006 -0.1961  0.0559  0.1086
20014W        W36148  10.137  11.184   5.157  0.2298  0.1739  0.1137
20015W        W36149   6.579   2.033   3.857  0.1814 -0.5888 -0.0907
20016W        W36150  11.302  14.444  11.440  0.0748  0.0027 -0.2792
20017W        W36151  12.422  16.605   0.876 -0.3054 -0.3501 -0.0613
20018W        W36152   7.533  16.688  11.320 -0.0189 -0.1172 -0.1772
20019W        W36153   5.999  18.528   5.396  0.2211  0.1744  0.2045
20020W        W36154   4.287  10.821  10.593 -0.1190 -0.1782  0.1247
20021W        W36155   5.724  17.286  13.978 -0.2344 -0.3036  0.0020
20022W        W36156  11.074  14.028   1.109 -0.2402  0.0617 -0.0419
20023W        W36157  16.518  11.310  14.643 -0.0770  0.0575 -0.1362
20024W        W36158   0.242  12.998  12.951 -0.0013  0.0592 -0.1565
20025W        W36159  10.769  17.547  11.449 -0.0861 -0.2016  0.0551
20026W        W36160  16.299   9.991   0.060 -0.0902  0.0463  0.1709
20027W        W36161  18.842  10.766   1.363 -0.3764  0.3144  0.2501
20028W        W36162  10.687   2.681   3.199  0.0511 -0.1204 -0.1621
20029W        W36163  10.484   3.765  11.947 -0.0727  0.0643  0.1518
20030W        W36164   9.672  13.457   2.943 -0.0024 -0.2437  0.0211
20031W        W36165  11.953  14.019  11.994 -0.0360  0.2252 -0.0394
20032W        W36166   5.570   2.800   4.331  0.1583  0.1515 -0.0936
20033W        W36167   8.184  12.369  12.154  0.0134 -0.0749  0.1446
20034W        W36168  10.049   1.935   0.487  0.2147  0.1472 -0.0302
20035W        W36169  16.896   3.594  10.442 -0.3742  0.0872 -0.1673
20036W        W36170  10.063   0.376  13.325  0.0219 -0.1472  0.0735
20037W        W36171   6.007   5.841  10.075  0.1486  0.0673 -0.0776
20038W        W36172  11.061   0.479  14.512 -0.1666  0.1842 -0.1280
20039W        W36173  15.057   2.749  11.423  0.1380  0.0167  0.0826
20040W        W36174   0.021   3.027   3.928  0.0825 -0.0362 -0.2952
20041W        W36175  19.043  11.566  12.227  0.5373 -0.0655 -0.1105
20042W        W36176   9.042  17.746  11.611 -0.0653  0.0190  0.1738
20043W        W36177   8.555  18.270   4.088 -0.1821  0.3209  0.2422
20044W        W36178   8.211  13.874  10.813  0.2197 -0.3041 -0.1081
20045W        W36179   7.070  14.448  11.517  0.1736  0.1207 -0.2141
20046W        W36180   5.802   7.740  11.141 -0.1799  0.0458  0.1170
20047W        W36181  17.291  12.087   4.290  0.0218  0.1223 -0.1064
20048W        W36182   1.783   4.448  14.547 -0.0649 -0.2685  0.1966
20049W        W36183   7.754   5.295   2.758  0.0612 -0.0242  0.0392
20050W        W36184  17.769  16.073  11.089 -0.1067  0.1508 -0.5138
20051W        W36185   0.710  19.076   1.155  0.0357  0.2722  0.1422
20052W        W36186  11.093  16.173   5.283  0.1460 -0.3521 -0.3220
20053W        W36187  15.610  17.530  12.158 -0.2675  0.1790  0.0522
20054W        W36188  17.477  14.573  12.882 -0.0384  0.0064  0.0198
20055W        W36189  18.438   2.923   4.025  0.1031  0.0493  0.0827
20056W        W36190  11.442   2.082  11.479  0.2109 -0.0244  0.1204
20057W        W36191  15.850  13.620   5.560  0.0529  0.1687 -0.0365
20058W        W36192  13.435  18.277   3.848  0.2072  0.0241 -0.0731
20059W        W36193   4.245   4.334   0.977 -0.0615 -0.0942 -0.2767
20060W        W36194  15.331   8.980  12.878  0.0852  0.2051 -0.1933
20061W        W36195   6.314  18.645   3.523 -0.0070  0.0250  0.1437
20062W        W36196   4.015   4.738  14.219  0.1829  0.0134 -0.1966
20063W        W36197  11.838   2.640  13.009 -0.1368 -0.0478 -0.0046
20064W        W36198  15.164   9.836   3.928 -0.0179  0.0278  0.0907
20065W        W36199  15.023  17.071   3.564  0.0522  0.2183 -0.0840
20066W        W36200  10.111   1.403   4.809  0.0108 -0.1107  0.1726
20067W        W36201   5.963  14.638  11.801 -0.2838 -0.2110 -0.3312
20068W        W36202   1.568   6.671  12.358 -0.0235 -0.2259  0.1423
20069W        W36203   7.218  18.420   3.160  0.1270 -0.1704  0.2238
20070W        W36204   1.583  17.562  14.334 -0.3165 -0.0930  0.0532
20071W        W36205   7.637   8.978  11.422 -0.0462  0.0783  0.0004
20072W        W36206   2.414   4.773   1.232 -0.1601  0.2790  0.1142
20073W        W36207   0.170   9.397   3.800  0.1858 -0.1555 -0.0956
20074W        W36208  18.852   4.025   2.079 -0.1889  0.2496  0.0754
20075W        W36209   9.778   4.279  14.093  0.2390 -0.4092 -0.1209
20076W        W36210   4.812  17.013   0.557  0.1745 -0.0317 -0.1873
20077W        W36211   6.081   2.455  10.087  0.1185  0.1681  0.2744
20078W        W36212  15.374   2.773  11.755  0.0077  0.2180 -0.1381
20079W        W36213  11.068   6.685   2.496  0.0138 -0.1041  0.0461
20080W        W36214  14.780  15.119  11.101  0.0565  0.0897  0.1195
20081W        W36215   7.408  12.210  13.680  0.5411  0.1092  0.1185
20082W        W36216   2.601   3.120  13.094  0.0013 -0.0393 -0.1010
20083W        W36217  12.520   7.599   1.804  0.1166  0.0617 -0.3105
20084W        W36218   7.338  17.159   0.423 -0.0633  0.0804 -0.1090
20085W        W36219  10.489  12.697   1.512 -0.2350  0.2294  0.3142
20086W        W36220   3.283  10.392  13.761  0.4797 -0.1266  0.0790
20087W        W36221  13.350  17.697  12.849 -0.1401 -0.0762 -0.0387
20088W        W36222  13.178  11.095  14.188 -0.2678  0.3971  0.1058
20089W        W36223  14.797  14.410  11.587 -0.1725  0.2710  0.0095
20090W        W36224   2.088   7.017  10.927  0.2357 -0.1374  0.0138
20091W        W36225  17.624  17.232  12.466  0.0925 -0.0033  0.1538
20092W        W36226   6.124  18.715   0.602  0.0527 -0.2255  0.1531
20093W        W36227   8.630   3.732   1.868  0.2157 -0.2967 -0.2463
20094W        W36228   2.909  15.343   2.054  0.0166  0.0197 -0.0221
20095W        W36229   6.251   6.797  10.501 -0.0821  0.0985  0.2690
20096W        W36230  14.720   4.411  14.241  0.2523  0.0368  0.0067
20097W        W36231  19.255  18.107  14.242 -0.0996  0.4929  0.1525
20098W        W36232  15.881   3.599   4.191 -0.0677  0.2065  0.1650
20099W        W36233  12.801   1.198   9.901 -0.6450  0.1465 -0.0949
20100W        W36234  17.244   3.966  11.616  0.2493  0.1880  0.1856
20101W        W36235   7.032   0.130  11.544 -0.3244  0.0434  0.2165
20102W        W36236  15.265   4.401   9.954  0.0881 -0.0582 -0.1268
20103W        W36237  10.907  19.302   2.147  0.3987  0.3964  0.3320
20104W        W36238  19.225  15.245   5.248 -0.0941  0.0505  0.0274
20105W        W36239   0.778   7.182   2.166 -0.4062 -0.0629  0.1253
20106W        W36240   1.627  18.584  12.296  0.5118  0.0560 -0.1142
20107W        W36241  12.826  13.979   3.226  0.3064 -0.1423  0.1124
20108W        W36242   9.267   6.812   0.621 -0.4052 -0.0527  0.2454
20109W        W36243  13.909  10.793   4.624  0.1286 -0.1675  0.1204
20110W        W36244  12.956  12.641   2.298  0.0120  0.0864 -0.0864
20111W        W36245   1.347   3.327  10.023  0.0319 -0.0185 -0.1585
20112W        W36246  15.082   5.940   2.050  0.1468 -0.2591  0.4856
20113W        W36247  12.855   3.341   5.961 -0.2069  0.2290 -0.1211
20114W        W36248   9.849  11.738  12.241  0.1917 -0.3175 -0.1691
20115W        W36249   8.198  15.823   2.513  0.3066 -0.0331 -0.0713
20116W        W36250   5.165   8.343   2.004 -0.4140  0.0113 -0.2080
20117W        W36251  13.179   3.719   1.981 -0.1731 -0.0986 -0.3851
20118W        W36252  17.595  13.137  14.631 -0.0718 -0.1797 -0.1223
20119W        W36253  12.408   6.834   2.186 -0.0041  0.1773  0.2200
20120W        W36254   3.682   9.012   4.183 -0.3703  0.2835 -0.0013
20121W        W36255  15.159   2.689   3.213  0.0099 -0.2152  0.1732
20122W        W36256   0.669  11.827  11.010  0.0540  0.0208  0.3365
20123W        W36257   7.527   3.532  14.269 -0.1343 -0.3373 -0.1515
20124W        W36258  15.976  16.534   0.214 -0.0493 -0.1824  0.2475
20125W        W36259  10.994  16.190   2.381  0.2616 -0.0021  0.1113
20126W        W36260   5.758   5.243   1.447 -0.0556  0.1156  0.1562
20127W        W36261  16.382   7.915   0.895  0.1555  0.1919  0.0253
20128W        W36262  14.073   9.624  12.638 -0.0653  0.0647  0.1121
20129W        W36263  14.480  10.787  14.585  0.2430  0.2253 -0.2750
20130W        W36264   2.258  10.199   9.884 -0.0182 -0.0906 -0.1715
20131W        W36265   0.109   8.825  11.786  0.3637  0.2366  0.1807
20132W        W36266  17.664  16.825   9.628 -0.0198  0.0270 -0.0412
20133W        W36267   2.727  15.309  14.411 -0.1853 -0.3199 -0.1909
20134W        W36268   8.733  13.477  11.247 -0.0845 -0.1671 -0.2508
20135W        W36269   3.686   1.406   1.153  0.0118 -0.1228 -0.1940
20136W        W36270  14.435  17.369   3.654 -0.3274 -0.3638  0.1908
20137W        W36271  14.167  16.774   0.869 -0.2028  0.3464  0.0969
20138W        W36272   3.693   9.985   0.005 -0.1538  0.1687 -0.2219
20139W        W36273  12.494   8.525  10.466 -0.0404 -0.0397  0.1265
20140W        W36274  12.162   4.684   1.357 -0.0662 -0.0878  0.3099
20141W        W36275   3.897  13.974  12.533  0.1315  0.1030  0.0904
20142W        W36276  18.025   6.116  14.685  0.1925  0.1190 -0.0295
20143W        W36277   1.504   3.050  13.155 -0.0256 -0.4154  0.1326
20144W        W36278   7.306  13.072  12.943 -0.1593  0.1522  0.7307
20145W        W36279   1.301   5.400  13.604 -0.0992 -0.4165  0.1377
20146W        W36280  13.417   8.909   2.921 -0.0597  0.4572 -0.0960
20147W        W36281  13.164  15.606  12.967  0.0900 -0.2191 -0.3511
20148W        W36282   1.691   6.185  10.604 -0.0135 -0.2251 -0.0454
20149W        W36283   5.471   0.876   1.500 -0.0298  0.0983 -0.0719
20150W        W36284  15.383  10.371  12.415 -0.1380 -0.0550 -0.0111
20151W        W36285  10.279  12.073  13.494  0.1478 -0.1032 -0.1486
20152W        W36286   3.793  17.205  14.513  0.2090 -0.2066 -0.0036
20153W        W36287   2.044   3.632   8.495 -0.1647 -0.2382  0.2170
20154W        W36288  18.889   3.678  12.507 -0.2334 -0.1751  0.1401
20155W        W36289  18.800  11.784   1.095  0.1029 -0.1725  0.0703
20156W        W36290   1.938  17.603  14.010 -0.2973  0.1171  0.0321
20157W        W36291  11.864  11.033   0.408  0.0241  0.1471 -0.1148
20158W        W36292  16.644  14.833   3.690  0.2900  0.1354 -0.1247
20159W        W36293   7.757  10.716   4.463  0.1122 -0.0341 -0.1680
20160W        W36294   5.791  14.331  12.248 -0.2217 -0.2496 -0.0776
20161W        W36295   6.405  14.894   3.183  0.1604  0.0423  0.3542
20162W        W36296   4.639   7.911  11.346 -0.4347  0.0024 -0.5102
20163W        W36297   6.769  18.205   1.627 -0.1706  0.0157 -0.4005
20164W        W36298  19.264   1.278   1.068  0.0256 -0.1156  0.2369
20165W        W36299  13.070  17.481   1.730  0.2830  0.0487  0.0718
20166W        W36300   7.471   1.620  13.941 -0.3598 -0.2644 -0.1340
20167W        W36301   9.880  12.757  12.391  0.0867  0.4228  0.0121
20168W        W36302  16.395   8.128  12.584  0.0489  0.3516  0.2549
20169W        W36303   0.647  14.985  14.658  0.2942  0.0514  0.0377
20170W        W36304   4.831  11.132   4.207  0.3673 -0.1040  0.3723
20171W        W36305   4.241  19.344   4.014 -0.0026 -0.2120  0.0154
20172W        W36306  12.850  16.418  11.275  0.1081  0.1204  0.1014
20173W        W36307   2.052   4.025  13.814  0.1539  0.0162 -0.0799
20174W        W36308  11.326   2.771   2.371  0.1627 -0.0967  0.0265
20175W        W36309   1.448  14.147  11.308  0.1718  0.1051 -0.1109
20176W        W36310  17.914  15.249   5.262 -0.0029 -0.2186 -0.1113
20177W        W36311  10.650   4.798   4.862 -0.0984  0.1442  0.0739
20178W        W36312   3.915  15.338  10.208 -0.3395  0.0536 -0.0632
20179W        W36313   5.484  19.061   0.689 -0.2248  0.1178 -0.1022
20180W        W36314   7.858   6.519   2.161 -0.0286  0.4246 -0.0256
20181W        W36315   9.291  16.761   4.443 -0.4336 -0.4838  0.0382
20182W        W36316  10.329  17.401  14.053 -0.5194  0.4289 -0.2169
20183W        W36317  18.041  14.604  11.497 -0.2196 -0.0215  0.0529
20184W        W36318  10.542   9.136  14.510 -0.2089 -0.0117  0.2367
20185W        W36319  11.817  12.401  13.075 -0.3598 -0.1961 -0.0687
20186W        W36320  14.775  10.898  10.081 -0.3137 -0.0782 -0.2632
20187W        W36321   7.981  13.106   3.598 -0.0217  0.0359 -0.0979
20188W        W36322   8.698  14.732   3.173  0.1141  0.0633 -0.1247
20189W        W36323   9.319   2.194  11.483  0.2679 -0.0831 -0.3017
20190W        W36324   8.482  18.625   1.288 -0.1882  0.2975  0.1364
20191W        W36325   0.752   5.544  11.322 -0.0329  0.0978 -0.1927
20192W        W36326  15.056   4.089  14.129  0.2375 -0.0381  0.1498
20193W        W36327   3.846   0.285  13.897  0.2633 -0.0313  0.2812
20194W        W36328   5.113  11.038   3.755  0.0378 -0.0314 -0.5434
20195W        W36329   6.375   7.809  10.278  0.2178 -0.1719 -0.1773
20196W        W36330   7.906   6.822   3.504 -0.3155 -0.1944  0.2074
20197W        W36331   6.768  14.323   6.176  0.0968  0.1685  0.2207
20198W        W36332  10.698  16.320  11.652  0.1700 -0.0463  0.3015
20199W        W36333  16.734  15.646   4.142 -0.1203 -0.0933  0.1094
20200W        W36334  15.366   5.906   3.102  0.2164 -0.2512 -0.1955
20201W        W36335   3.512  11.453  13.212  0.0694 -0.1459 -0.1099
20202W        W36336  17.437  15.600  10.926  0.0169 -0.1328  0.3123
20203W        W36337   7.073   1.958  14.884 -0.1927  0.1571  0.2233
20204W        W36338  16.666  10.626   9.167 -0.0142 -0.6368 -0.1139
20205W        W36339  16.207   2.356   5.894 -0.1091 -0.1048  0.4430
20206W        W36340  16.086   0.408  11.623  0.0620 -0.1742 -0.0221
20207W        W36341   2.419  15.114   2.615  0.1362 -0.0843  0.1142
20208W        W36342  13.206   6.022   4.314 -0.0957 -0.2280  0.2644
20209W        W36343  13.615   4.510   4.031  0.0021 -0.1558 -0.0032
20210W        W36344   6.938   4.604   4.042 -0.3534  0.3993  0.2270
20211W        W36345   8.574   8.821  10.401 -0.1482 -0.0948  0.0429
20212W        W36346  19.053  16.363  11.524  0.2088 -0.0110  0.0805
20213W        W36347  14.332   9.432  14.839  0.0880  0.1146 -0.1272
20214W        W36348  11.715  18.784  12.357  0.0201 -0.2079  0.3783
20215W        W36349   9.019  11.801   1.473 -0.0129 -0.2132 -0.3377
20216W        W36350   0.223   0.065  12.217 -0.1374 -0.0781  0.1130
20217W        W36351   0.726   4.047  10.867 -0.2058 -0.0386  0.0532
20218W        W36352  16.200   1.494  11.501 -0.1051  0.1121 -0.0678
20219W        W36353   3.427  18.259  10.802  0.1463  0.0380 -0.1382
20220W        W36354   3.858   8.066   2.764  0.2262 -0.1047 -0.0065
20221W        W36355   8.343   9.853  14.022 -0.1355  0.2965  0.1290
20222W        W36356   2.902  19.181   0.762  0.1573 -0.3619  0.1982
20223W        W36357   8.076   1.888  13.177 -0.1025  0.0191 -0.1363
20224W        W36358   6.740   8.110   2.217  0.2412  0.0554  0.1380
20225W        W36359   3.525  10.473  13.320  0.0768  0.1007  0.0023
20226W        W36360   8.160  11.614   0.875 -0.0862 -0.0164  0.1973
20227W        W36361  19.192  15.655   1.306  0.0829 -0.0700  0.1324
20228W        W36362  13.594   7.260  12.986  0.0256 -0.1174 -0.2916
20229W        W36363   8.205   8.990  10.020 -0.1031  0.1115 -0.1463
20230W        W36364   4.642   8.710  10.883 -0.1382  0.0235  0.1829
20231W        W36365  11.838  11.648  11.879 -0.0553  0.1857  0.1929
20232W        W36366  16.820  16.150  14.530  0.0094  0.1606 -0.0622
20233W        W36367   4.445  11.104   1.613 -0.0174 -0.2104  0.0207
20234W        W36368  11.958  16.454   0.079 -0.0890  0.0773 -0.1215
20235W        W36369   6.468   4.323   3.882 -0.0306 -0.1200  0.2206
20236W        W36370  10.650  10.484  13.188 -0.0367 -0.2949  0.2385
20237W        W36371   4.735   3.833   2.038 -0.1792  0.1877  0.1748
20238W        W36372  14.130   6.141  14.854 -0.1968 -0.1043  0.0569
20239W        W36373   5.398   6.682  10.444 -0.2778  0.1649  0.2306
20240W        W36374   3.105   0.474  10.503 -0.2201  0.2436  0.0110
20241W        W36375   0.618  17.508   0.869 -0.1890  0.0697  0.1453
20242W        W36376  12.200  13.162   3.133  0.0605 -0.2999 -0.0931
20243W        W36377   0.104   4.727  11.154  0.2143  0.0007 -0.0878
20244W        W36378  10.433  10.302  14.575 -0.2681  0.1285 -0.0952
20245W        W36379  18.973  10.185   0.279 -0.1897 -0.1303  0.3769
20246W        W36380  10.624   2.133   2.706  0.2265  0.2821  0.1328
20247W        W36381   6.956   4.697  11.942 -0.0132 -0.2842 -0.1536
20248W        W36382  12.561  11.039   2.107 -0.0115  0.0065  0.0143
20249W        W36383  16.831   1.254   4.133  0.1820 -0.1927  0.0938
20250W        W36384   1.151   6.670   0.283 -0.2546 -0.3784 -0.0148
20251W        W36385   9.670  16.960   2.146  0.1052  0.2110  0.2641
20252W        W36386   0.002   2.483   3.704  0.0367 -0.0699  0.2310
20253W        W36387   8.135  11.514  13.822 -0.0655 -0.0435 -0.1061
20254W        W36388  17.217   2.846  10.978 -0.0742 -0.2748  0.1623
20255W        W36389   6.471  11.161   0.258  0.0257  0.4125 -0.0514
20256W        W36390  18.218   4.055  13.239  0.5328 -0.0366  0.0720
20257W        W36391  15.564   8.233   4.120 -0.0395  0.1826 -0.0179
20258W        W36392   4.112   9.728  13.788  0.1017  0.1911 -0.2684
20259W        W36393  13.280  17.686   2.593  0.2428 -0.0006 -0.0925
20260W        W36394  17.514  10.471  10.948  0.4257  0.0377 -0.4246
20261W        W36395  13.269   6.552   0.051  0.0926 -0.1543 -0.1584
20262W        W36396   6.851   1.728   4.838  0.2585  0.2479 -0.0424
20263W        W36397   1.830   5.499   2.674  0.1995  0.2646  0.3836
20264W        W36398   6.746   3.529  14.893 -0.1801  0.0389 -0.0875
20265W        W36399  12.914  12.593   5.393  0.1314 -0.0042  0.0759
20266W        W36400  18.345  18.438  13.959  0.0718 -0.1206  0.1483
20267W        W36401  16.115   4.921   0.507 -0.0398  0.0011  0.0019
20268W        W36402  12.006  10.750  13.803 -0.0740  0.2618 -0.1281
20269W        W36403  15.276   7.388   0.433  0.1468  0.3105  0.0614
20270W        W36404   5.461  14.669  11.953  0.0039  0.1649 -0.0407
20271W        W36405  10.839  14.478  14.820 -0.0170 -0.0422  0.0107
20272W        W36406   9.404   5.984  11.883 -0.1974 -0.0054 -0.1181
20273W        W36407  10.565   6.687   3.282  0.2593  0.1806 -0.1399
20274W        W36408   2.518   1.009   4.273 -0.0696 -0.1096 -0.0290
20275W        W36409   5.963  15.466   0.311 -0.2404  0.3150 -0.1583
20276W        W36410   9.845  16.032  14.545 -0.4110 -0.0302  0.0301
20277W        W36411  17.894  11.509  14.287  0.1052  0.0753  0.2705
20278W        W36412   7.388   9.329  14.217 -0.2654  0.2741 -0.0254
20279W        W36413  14.338  17.695   4.509  0.1066  0.0989 -0.2422
20280W        W36414   6.007  12.526   3.937 -0.0744 -0.4695  0.5269
20281W        W36415   1.150   1.396   0.074  0.2254  0.1028 -0.4154
20282W        W36416  18.405  11.187  11.801 -0.4821  0.3652  0.0067
20283W        W36417   6.587   0.205  13.156  0.0779 -0.3204 -0.0761
20284W        W36418  11.575  14.510   0.374 -0.1196 -0.0909 -0.1860
20285W        W36419   0.326   3.723  13.640 -0.0765 -0.2154 -0.2998
20286W        W36420   4.505  18.981   1.307  0.0588  0.2004 -0.1759
20287W        W36421  18.627  12.521   5.084  0.1487  0.1095 -0.2532
20288W        W36422  12.872   1.211  13.611  0.0843 -0.0193 -0.0114
20289W        W36423  19.323   9.436  13.556  0.2689 -0.3718 -0.2676
20290W        W36424  10.182   2.143   0.925 -0.0335  0.0789 -0.1034
20291W        W36425   7.223   8.974   3.843 -0.1396  0.2731 -0.0461
20292W        W36426   2.477   8.300   1.883  0.1381  0.1233 -0.0712
20293W        W36427  14.475   3.268  14.115  0.3056 -0.2149 -0.1601
20294W        W36428  17.648   6.237   3.364 -0.2071  0.4642  0.1318
20295W        W36429  13.184  18.831   1.468  0.0124 -0.4996 -0.0001
20296W        W36430   9.834  15.046   4.972 -0.3249  0.1320  0.2457
20297W        W36431  19.062  17.113   3.288 -0.3796  0.2158 -0.3135
20298W        W36432   5.268   3.627  13.759  0.0545  0.3847 -0.0829
20299W        W36433  16.620   0.276   5.463 -0.1468 -0.1959 -0.3251
20300W        W36434  17.425   7.926  10.194 -0.2705  0.0711  0.1432
20301W        W36435  15.046  17.157   2.309  0.1141 -0.0583  0.1490
20302W        W36436  12.193  14.987   3.422 -0.3059 -0.1970 -0.1835
20303W        W36437   4.146   1.980   3.285  0.2467 -0.2315 -0.2068
20304W        W36438   2.250   7.863  14.629  0.1148  0.4375  0.1566
20305W        W36439  15.718   9.986   5.413  0.1600  0.0415 -0.2910
20306W        W36440   9.441  10.769   4.752 -0.0510 -0.0562 -0.0085
20307W        W36441  12.188   1.189   4.887  0.1952  0.0896  0.0983
20308W        W36442  15.271  17.997  11.184 -0.2177  0.0677  0.1514
20309W        W36443  17.642   6.369  13.281 -0.1302 -0.0345 -0.1383
20310W        W36444   2.556  12.748  10.794 -0.1967 -0.0037 -0.1657
20311W        W36445   3.592  18.466  10.372  0.0180  0.1118 -0.3186
20312W        W36446  10.898  18.408   4.890 -0.1447 -0.1292 -0.1822
20313W        W36447   6.991  12.222   1.054  0.2251 -0.0206 -0.0244
20314W        W36448  12.555  12.088   0.650  0.0610  0.1392 -0.1373
20315W        W36449  13.522  15.060   1.168  0.5216  0.0728  0.1670
20316W        W36450  16.583   6.306   2.151 -0.1814  0.0575 -0.0039
20317W        W36451   1.278  13.991   2.072 -0.3787  0.0679 -0.1339
20318W        W36452   0.537  17.255   2.993  0.1183  0.2009  0.3929
20319W        W36453  18.080   6.678   4.082  0.1837  0.0433  0.1868
20320W        W36454   8.895   6.940  10.391 -0.2154  0.0653 -0.2178
20321W        W36455  10.565   1.765   3.364 -0.2386  0.1092 -0.3452
20322W        W36456  18.860  14.438  14.398 -0.1365 -0.0992 -0.0913
20323W        W36457   3.492  12.637  12.771  0.1628 -0.2784 -0.0842
20324W        W36458  12.197   3.531   1.612 -0.3306  0.2869  0.0737
20325W        W36459   3.605   8.612  13.486  0.0793 -0.0420  0.1277
20326W        W36460   0.384   9.967  12.769 -0.1080 -0.1326  0.1553
20327W        W36461  15.467  13.543   4.631 -0.2937  0.2703 -0.1446
20328W        W36462  12.752  16.528   0.471 -0.0473  0.2211 -0.1517
20329W        W36463   1.916  19.030  13.826 -0.0094  0.3503 -0.0720
20330W        W36464   0.672  12.850  13.691 -0.3417 -0.0776 -0.1042
20331W        W36465  12.412   6.470   1.755 -0.2364  0.1852 -0.0369
20332W        W36466   1.800   7.980  12.381  0.1368 -0.0211  0.3179
20333W        W36467  13.932  14.607   5.116  0.2967 -0.1873 -0.1416
20334W        W36468   9.907  12.171  11.903  0.3018 -0.0750 -0.0821
20335W        W36469   7.602  17.573   2.956  0.0979  0.2398  0.0544
20336W        W36470  16.028   1.076   3.984  0.0959  0.4688  0.0461
20337W        W36471   4.763   2.243   4.306 -0.2360  0.2854  0.0177
20338W        W36472  13.904  12.529   2.020  0.2531 -0.0370 -0.1818
20339W        W36473   2.086   5.285  14.380 -0.3122 -0.1403 -0.1938
20340W        W36474  19.261  18.697   0.480 -0.0019  0.3294 -0.1208
20341W        W36475   5.416   0.709  10.999 -0.0284 -0.1884 -0.0523
20342W        W36476  12.668   2.697   4.783 -0.0252  0.0643  0.0097
20343W        W36477   3.023   3.541   3.091 -0.0140 -0.1510 -0.2170
20344W        W36478  11.376  12.784  12.355 -0.0595  0.2539  0.0855
20345W        W36479   5.301   6.605   1.733  0.0018 -0.5017  0.1245
20346W        W36480   5.814  12.735   1.368 -0.2650  0.0535  0.2456
20347W        W36481  11.876  19.085   3.132 -0.1774  0.0639 -0.0240
20348W        W36482  10.974  12.934  14.493 -0.2822  0.2585  0.1890
20349W        W36483   2.764   2.776  11.090 -0.1228  0.3518  0.1237
20350W        W36484  18.259  13.049  10.956  0.0979  0.0562  0.3221
20351W        W36485   5.985  17.972  12.494  0.0766 -0.1376  0.2060
20352W        W36486  17.171  17.006  13.177 -0.0407 -0.0100 -0.1088
20353W        W36487  18.542   0.160   5.198  0.2073  0.1666 -0.2020
20354W        W36488  18.655  10.358  12.715 -0.1758 -0.0424 -0.0370
20355W        W36489   8.775  18.672   3.629  0.2245  0.1079 -0.1050
20356W        W36490   0.383  12.648  13.320  0.2662 -0.2776 -0.1097
20357W        W36491   9.177  10.772   1.195 -0.2694  0.2902  0.0825
20358W        W36492   9.809  16.635   0.903  0.2471 -0.2006  0.1974
20359W        W36493  12.244   8.207  13.499 -0.1634  0.0883  0.0282
20360W        W36494   2.168   3.548  13.718  0.2333  0.2668  0.0465
20361W        W36495  17.529  10.816  13.001 -0.0313  0.0990 -0.5555
20362W        W36496  19.010  17.304   1.762  0.1050 -0.0756 -0.1905
20363W        W36497   7.823  18.197  13.210  0.0595  0.1502  0.1354
20364W        W36498   5.652   3.785   3.956 -0.1008  0.1650  0.2613
20365W        W36499   5.325  15.865  13.734 -0.1410 -0.0810  0.2159
20366W        W36500   7.364   4.833   2.176 -0.1211 -0.0605 -0.1337
20367W        W36501   7.834   1.221  12.048 -0.0949  0.2305  0.4841
20368W        W36502  10.074   5.456   1.905 -0.0894  0.0144 -0.0512
20369W        W36503   7.028   6.827  13.822  0.2545  0.2407 -0.0918
20370W        W36504  13.301  16.144   2.982  0.0588 -0.3933  0.4644
20371W        W36505  14.230   8.831   0.674  0.0363  0.0280 -0.1322
20372W        W36506   0.665  11.865   5.096 -0.1965 -0.1307  0.2392
20373W        W36507  15.594  13.560   3.203  0.2345  0.0754 -0.2073
20374W        W36508   8.382   0.857   5.667 -0.1917  0.1554  0.1019
20375W        W36509  11.636  17.050   2.911 -0.4279  0.1608 -0.1773
20376W        W36510   4.728  16.874   9.697 -0.3004 -0.0435 -0.0557
20377W        W36511  11.639  16.718   5.541 -0.1802 -0.1416  0.1178
20378W        W36512   6.863  10.154  14.503  0.0335  0.0660 -0.3072
20379W        W36513  18.972  19.186   1.730  0.0280 -0.3193 -0.0489
20380W        W36514   9.182   9.929  10.725  0.2301 -0.0857  0.2456
20381W        W36515  10.883  14.676  14.102  0.0228 -0.1546 -0.3934
20382W        W36516   3.502  18.766   0.143 -0.2084 -0.0627 -0.2683
20383W        W36517   8.134  16.601  10.605  0.3849  0.3462 -0.0676
20384W        W36518   7.725   6.754  14.607  0.2195  0.0016  0.0715
20385W        W36519   8.937   3.025  11.030 -0.1618  0.3574 -0.2778
20386W        W36520   1.388  16.604  11.770 -0.1770 -0.1015  0.1830
20387W        W36521   1.573   2.483  14.293 -0.1072 -0.0983 -0.0319
20388W        W36522  16.960  14.652   0.660 -0.1785  0.0244  0.0365
20389W        W36523   9.297  18.350   2.408  0.2222  0.1911 -0.0718
20390W        W36524   0.436   9.873   1.478 -0.0898 -0.1310 -0.0529
20391W        W36525  10.619   8.282   0.188 -0.3849 -0.0163  0.0089
20392W        W36526   4.296  12.043  12.841 -0.0589 -0.1924  0.0656
20393W        W36527   9.136   8.476  12.597 -0.2559  0.0472  0.4847
20394W        W36528   1.509  16.257   2.516 -0.0397 -0.2350 -0.2631
20395W        W36529  15.692  13.688  11.087  0.2369 -0.1206  0.1858
20396W        W36530   4.777   6.305  12.549  0.2135 -0.0754  0.1305
20397W        W36531  17.644   4.119   0.225  0.2028  0.2500 -0.0124
20398W        W36532  16.299   3.643   5.570  0.0064  0.2180 -0.0802
20399W        W36533   4.442   4.905  12.634 -0.3350  0.1033  0.0093
20400W        W36534   1.510   7.625  11.477  0.2533 -0.3156  0.1705
20401W        W36535   6.767   8.426  11.810  0.0629  0.0361 -0.1583
20402W        W36536   0.706  14.214   2.378 -0.3831 -0.0575  0.0750
20403W        W36537  13.644   4.982   3.590  0.0862 -0.0711 -0.2529
20404W        W36538   7.240   8.751   9.365  0.1467 -0.2402 -0.0271
20405W        W36539   6.410   6.267   2.131  0.2344  0.0082  0.0058
20406W        W36540   8.328   6.161  14.886  0.0464  0.3173 -0.0580
20407W        W36541  19.092   8.622   2.843 -0.5326  0.2031  0.0814
20408W        W36542  10.999  17.575   5.552  0.1248  0.0513 -0.1858
20409W        W36543  16.822  10.999   9.593  0.3935  0.1894  0.1650
20410W        W36544   0.551   0.028  13.294  0.0593 -0.1870  0.0396
20411W        W36545  18.869   7.273   1.546  0.1930  0.5693  0.2026
20412W        W36546   9.137  13.688  10.932 -0.1159  0.0734  0.1248
20413W        W36547   0.220   2.008   0.710 -0.2363 -0.1127 -0.1020
20414W        W36548   8.152  16.237  13.894  0.0276 -0.0117  0.0488
20415W        W36549   6.705   0.074   4.204 -0.0921 -0.0963  0.1452
20416W        W36550  15.565  15.254  11.316  0.0139  0.5471  0.3709
20417W        W36551   1.686   7.435   2.177 -0.1233 -0.2894 -0.0357
20418W        W36552  15.945   4.173   3.964 -0.4567  0.0360  0.1044
20419W        W36553  16.200  10.008  12.415 -0.2947 -0.0125 -0.0760
20420W        W36554   3.407   1.305   4.444  0.0465 -0.1681  0.3796
20421W        W36555  10.846   0.424   1.427  0.0347 -0.3108  0.3514
20422W        W36556   8.928  10.548   3.974 -0.0261 -0.0223  0.1324
20423W        W36557   3.189   7.366   2.588  0.0536  0.0700  0.2094
20424W        W36558   5.659   8.717   1.128  0.0076  0.2048  0.1841
20425W        W36559  11.416   6.661  11.107 -0.3407  0.1496  0.3046
20426W        W36560  19.001   5.438  13.014 -0.2893 -0.2117  0.1030
20427W        W36561   7.290  18.171   4.802 -0.3169 -0.2361  0.0716
20428W        W36562   4.228   0.547   1.986  0.1218  0.2836  0.0145
20429W        W36563  14.658  16.578   1.528 -0.1022  0.0240  0.2819
20430W        W36564  18.401   8.694   9.262  0.0347  0.2719  0.2733
20431W        W36565   7.252   7.175  10.038  0.0220  0.0731 -0.2284
20432W        W36566  13.490  14.146  13.078  0.2208  0.0494 -0.2848
20433W        W36567   8.176  17.522   3.298 -0.0351 -0.2664 -0.3079
20434W        W36568   0.894   9.473   0.690  0.1698  0.2165  0.0016
20435W        W36569   3.384   3.504   3.524 -0.0979  0.0448  0.2401
20436W        W36570   8.620  17.123  11.093 -0.1448 -0.1908 -0.1558
20437W        W36571  14.306   1.913  14.624  0.0756  0.0498 -0.0487
20438W        W36572  16.241  15.982  10.519  0.3421  0.4163 -0.0267
20439W        W36573  14.043  19.263   3.677  0.2308 -0.2026 -0.1994
20440W        W36574  17.030   2.450   4.544  0.0850 -0.0621 -0.4033
20441W        W36575   1.420   5.657   9.483 -0.0773 -0.1265  0.0360
20442W        W36576  16.026  10.144  14.398  0.2590 -0.0873  0.1694
20443W        W36577   5.434   1.219   1.890  0.1291 -0.1700 -0.3021
20444W        W36578  17.538  13.194   4.481 -0.5001  0.1152 -0.0632
20445W        W36579  17.383  11.576  10.800  0.1929 -0.2753  0.3205
20446W        W36580   4.410   1.261  13.224 -0.1761  0.1795  0.1265
20447W        W36581   6.781  16.108  10.770 -0.2624 -0.1627  0.0502
20448W        W36582   4.898   9.616   9.800  0.0748  0.0524  0.0309
20449W        W36583  15.888   6.638   0.341  0.0936 -0.2404  0.1534
20450W        W36584   2.836  18.913  13.094 -0.3465  0.0385  0.1154
20451W        W36585  17.001   6.826  13.841  0.0857  0.1009  0.0971
20452W        W36586   5.632   3.892  11.337  0.1082 -0.2043 -0.1537
20453W        W36587  10.582   1.956   0.728 -0.4784 -0.1334  0.5722
20454W        W36588  16.017   2.746  12.551 -0.0847 -0.3230  0.1108
20455W        W36589  15.962   8.320   2.826  0.1518  0.0317  0.0232
20456W        W36590  17.824  11.771  10.047 -0.0075  0.1240  0.1711
20457W        W36591  12.535  17.809   4.700 -0.2772 -0.1482 -0.3602
20458W        W36592  13.700  15.271  11.595 -0.1311  0.0618 -0.0576
20459W        W36593   3.759   1.527   5.175 -0.2842 -0.0081 -0.2121
20460W        W36594  14.663  17.130   5.772  0.0751  0.0828  0.1979
20461W        W36595   7.507   3.999   9.845  0.1257 -0.1958 -0.1917
20462W        W36596  17.607  10.253   3.981  0.2186 -0.0719 -0.0889
20463W        W36597   8.049  16.290  13.319  0.0530  0.0223  0.1894
20464W        W36598   1.101  10.750  14.301  0.1234  0.0512  0.0145
20465W        W36599   7.135  11.367   0.707  0.0059 -0.2997 -0.0171
20466W        W36600   7.203   7.455  10.992 -0.0745 -0.2971  0.2122
20467W        W36601  16.228  19.322   0.113 -0.1159 -0.0376  0.0373
20468W        W36602  13.758   3.623   0.060  0.2071  0.2042  0.0024
20469W        W36603   9.021   7.031   1.476  0.1474  0.1886  0.1525
20470W        W36604   9.992   7.068   4.229 -0.0369 -0.0347 -0.1663
20471W        W36605   5.953  16.947  14.225  0.1533 -0.1329 -0.0969
20472W        W36606  18.650   9.278   0.866 -0.2232  0.0127 -0.0164
20473W        W36607   5.811   7.341   3.342 -0.1046 -0.1469 -0.1601
20474W        W36608   2.015  13.483   3.536 -0.3209 -0.1368  0.2642
20475W        W36609  14.552  12.793   2.540  0.1438 -0.1561  0.0400
20476W        W36610   2.174   4.684   0.308 -0.1820 -0.3188  0.1077
20477W        W36611   2.779  11.255  11.290 -0.3148  0.1788 -0.1823
20478W        W36612   4.116  11.849  10.445  0.2429 -0.1005  0.0228
20479W        W36613   5.522   1.124   4.595 -0.2684  0.0175  0.0062
20480W        W36614  18.514   4.414  13.509  0.1716 -0.3843 -0.0873
20481W        W36615  12.426  11.574   4.617 -0.0383 -0.1375  0.0764
20482W        W36616   0.542   4.651  11.413  0.1437 -0.0397 -0.1125
20483W        W36617   2.633   3.194  11.450  0.4050 -0.0096 -0.1066
20484W        W36618  16.409  16.122   0.459 -0.3065  0.2220  0.1094
20485W        W36619  15.614  17.001  14.588 -0.2370 -0.0250  0.2329
20486W        W36620  12.509   3.076  12.500  0.1843  0.0866  0.0303
20487W        W36621  17.337  10.091   3.499 -0.0650  0.0441  0.0096
20488W        W36622   5.486  15.526   2.397 -0.1292 -0.0528 -0.3247
20489W        W36623   6.555  14.040   2.700 -0.0945  0.0185  0.0266
20490W        W36624  17.467  18.901   2.940  0.2234 -0.2061  0.1234
20491W        W36625  19.114   7.793   3.192  0.0676 -0.0397  0.0592
20492W        W36626  11.130  16.133  10.800 -0.1135 -0.2027  0.6298
20493W        W36627  11.371  13.898   2.489  0.1618  0.2848 -0.1173
20494W        W36628   8.728   7.782   4.285 -0.4030 -0.0049 -0.3002
20495W        W36629  13.058   5.529   0.693  0.3136  0.0321 -0.1506
20496W        W36630  17.722  12.321   3.961 -0.2050 -0.0522 -0.0085
20497W        W36631   9.654   2.030  11.144 -0.0586 -0.2708  0.2483
20498W        W36632   2.262   8.760   0.685 -0.1570  0.1994 -0.0951
20499W        W36633   6.548   1.265   0.686  0.2496  0.0394 -0.5532
20500W        W36634  12.948  12.280   1.892 -0.4232  0.0951  0.1290
20501W        W36635  11.589  12.104   1.563 -0.0096  0.2246  0.1605
20502W        W36636   5.750  14.283   5.957 -0.2456  0.1389 -0.2136
20503W        W36637   6.041  10.487   1.558  0.3270 -0.2364 -0.1101
20504W        W36638  19.173   5.479   9.899  0.4146  0.3193  0.3006
20505W        W36639  17.830  17.141  11.430 -0.0573 -0.0659 -0.1014
20506W        W36640   6.186  12.651   1.765  0.2778 -0.1319  0.2468
20507W        W36641   8.940   2.041  14.741 -0.0627 -0.2471 -0.2309
20508W        W36642  13.301   3.586   5.904  0.2342 -0.0590 -0.0569
20509W        W36643   5.716   5.060  10.786  0.0971  0.2001  0.4067
20510W        W36644   2.067   9.534   1.649  0.1058 -0.3138 -0.1498
20511W        W36645   3.102   4.355  10.132 -0.0453  0.0752 -0.0072
20512W        W36646   0.956   9.232   5.142 -0.0403 -0.2846 -0.0433
20513W        W36647   0.642   0.202  10.503  0.1665  0.2943 -0.2862
20514W        W36648  18.941   8.964  12.026 -0.2197 -0.1487 -0.2338
20515W        W36649  12.860  15.373  11.088  0.2791  0.1915 -0.2134
20516W        W36650  11.099  16.289  13.163 -0.1552 -0.0810  0.0890
20517W        W36651  18.503  18.723  14.423 -0.2554 -0.2035  0.2769
20518W        W36652  19.164  16.292   1.676  0.1583 -0.1745  0.3350
20519W        W36653   1.397   8.118  12.617 -0.0286  0.0341  0.0149
20520W        W36654   1.844  10.522  13.523  0.2396  0.0320 -0.0035
20521W        W36655   6.996  18.477   5.221  0.1637  0.0648 -0.3406
20522W        W36656   5.741  11.467   1.990 -0.2460 -0.1088 -0.1041
20523W        W36657   4.026   9.151  11.997  0.0190  0.0218 -0.1493
20524W        W36658  17.555  10.654  10.055 -0.0183 -0.1303  0.0224
20525W        W36659   6.061   6.076   8.795 -0.4042  0.0215 -0.1387
20526W        W36660  15.132   6.373  14.563 -0.1426  0.3673  0.2279
20527W        W36661  10.729   1.996  14.758  0.2387  0.2744  0.3153
20528W        W36662   7.619   8.099  10.130 -0.0235  0.0463  0.1906
20529W        W36663  18.133  11.784   4.522 -0.1684  0.1999  0.1943
20530W        W36664   2.216   2.330   3.150  0.5947 -0.1970 -0.3053
20531W        W36665   2.311  19.180   2.460  0.3840 -0.1712  0.2170
20532W        W36666   5.670   2.393  10.379 -0.0593  0.0056 -0.0181
20533W        W36667   6.513   7.738   3.771  0.0667  0.3037  0.1392
20534W        W36668  11.832   0.233   3.440 -0.0763 -0.0029 -0.1357
20535W        W36669  10.961  12.490   1.655  0.2685  0.2250  0.2056
20536W        W36670  15.600   4.275   3.011 -0.0481  0.0750  0.0034
20537W        W36671  13.881   4.750   4.508  0.2412 -0.2549 -0.0081
20538W        W36672   1.560  16.856  12.652  0.2750 -0.0258 -0.2111
20539W        W36673  14.453   9.644   9.534  0.0384  0.2486 -0.0172
20540W        W36674   9.957  19.086   2.348  0.1195  0.1856 -0.1428
20541W        W36675  10.927  18.964   0.559  0.0457  0.5109  0.4207
20542W        W36676  14.127  11.625   0.055  0.0829 -0.1457 -0.2150
20543W        W36677   1.548   9.119   2.448  0.0027  0.1031 -0.0600
20544W        W36678  11.689   8.884   2.278  0.1508 -0.0535 -0.0654
20545W        W36679   7.194   1.809   1.081 -0.2702  0.3091 -0.1381
20546W        W36680  14.359   5.676   5.653 -0.0431 -0.1306  0.1792
20547W        W36681   9.499   5.486   1.771  0.0528 -0.3852 -0.2205
20548W        W36682  16.205  19.289   1.095  0.3903 -0.0505 -0.1368
20549W        W36683  14.514  12.782  14.587 -0.1172 -0.2807 -0.1198
20550W        W36684  16.849  12.587  13.620 -0.2660  0.2982  0.2246
20551W        W36685   3.504   9.294  13.013  0.4119  0.1691  0.0467
20552W        W36686  12.101   7.469   0.416  0.0991  0.1405 -0.0611
20553W        W36687  10.410  12.672   3.059 -0.2623  0.0273  0.0417
20554W        W36688   2.641  13.990  12.626 -0.0031  0.0740 -0.3107
20555W        W36689   3.251   9.438  14.711 -0.3561  0.0951 -0.2007
20556W        W36690  11.358   6.467   4.538  0.2720  0.0831  0.2170
20557W        W36691  18.196  12.288   9.905  0.1888  0.0206 -0.1882
20558W        W36692   7.687  16.877  10.831 -0.1741  0.1376  0.0166
20559W        W36693   3.212  15.036   3.974 -0.0446 -0.0956  0.2806
20560W        W36694  14.821  11.737   4.418  0.0306 -0.1452 -0.1989
20561W        W36695   8.952   1.021  14.010 -0.0384 -0.3205 -0.0299
20562W        W36696   2.472  10.993  10.841 -0.1776  0.1027  0.3338
20563W        W36697   8.884   1.098   5.378 -0.3197 -0.0050 -0.0169
20564W        W36698   4.607  17.237  11.054  0.1307 -0.1947  0.2474
20565W        W36699   1.786   2.218  13.756  0.2347 -0.2087 -0.2232
20566W        W36700   1.801  14.978   3.388  0.3521 -0.4870 -0.2586
20567W        W36701  16.260   4.538  12.445 -0.2598  0.0205 -0.1121
20568W        W36702   7.094   9.625  14.435  0.0153 -0.1660 -0.2304
20569W        W36703   2.774   6.961   3.751  0.1296 -0.2463 -0.1560
20570W        W36704   2.890   5.876  10.105  0.3019  0.1499 -0.2600
20571W        W36705   4.371   0.646  11.615  0.1615  0.0119 -0.1117
20572W        W36706  18.180  12.051  12.737  0.0735 -0.0937 -0.3125
20573W        W36707   1.999  16.887  10.762 -0.1310  0.1350  0.1929
20574W        W36708  13.882  17.365   2.945  0.2879  0.2030 -0.0250
20575W        W36709  17.984  13.104   0.797  0.1204  0.0678 -0.0756
20576W        W36710   3.340   2.959   9.315  0.0367  0.0261  0.0953
20577W        W36711  13.027   5.344  12.559  0.0425 -0.0597 -0.0974
20578W        W36712  13.311   0.120  13.661 -0.0478 -0.0144  0.1060
20579W        W36713  17.973  16.598  13.742  0.0892 -0.1819 -0.0757
20580W        W36714  14.821   1.989   5.863 -0.1566 -0.1249 -0.0205
20581W        W36715  16.629  17.287  10.769 -0.1816  0.2384 -0.2476
20582W        W36716  14.756   8.814   1.287 -0.1808 -0.2953  0.1865
20583W        W36717   6.772   9.783  10.701 -0.4235 -0.1406  0.2736
20584W        W36718  17.848   7.730  10.625  0.2081 -0.1222 -0.1928
20585W        W36719   8.510  11.950  14.228  0.0900  0.1010 -0.0671
20586W        W36720  14.421   2.509  14.823 -0.0533  0.4505  0.1426
20587W        W36721   5.310   2.705  11.893  0.1763  0.0104  0.1173
20588W        W36722  12.573   3.205  14.040 -0.2736 -0.0104 -0.2503
20589W        W36723  12.253   1.848   2.437  0.1015  0.1359  0.0644
20590W        W36724  16.870   4.636   1.568  0.0718  0.2315  0.1071
20591W        W36725   0.411  11.220   1.465 -0.1285  0.0163 -0.0742
20592W        W36726   4.575   5.413   3.793 -0.0219  0.0717 -0.0335
20593W        W36727   1.503   4.933  12.754  0.2561 -0.0286  0.2033
20594W        W36728  16.361   7.026   5.191 -0.0379  0.0283 -0.0831
20595W        W36729  10.579  14.520   4.938 -0.0597  0.1529  0.1868
20596W        W36730   9.293  18.060   1.896 -0.2901  0.2830 -0.3896
20597W        W36731  19.122   6.072  13.046 -0.0057 -0.3310  0.2229
20598W        W36732  17.100  16.625  12.888 -0.4135  0.1680 -0.1063
20599W        W36733   0.414  11.435   4.967  0.0364 -0.0162 -0.2066
20600W        W36734  16.369  12.739   9.330 -0.1770 -0.0559 -0.2610
20601W        W36735   0.140   4.925  14.540  0.0818 -0.1813 -0.0791
20602W        W36736  14.584  10.983   3.940  0.0349 -0.1700  0.0971
20603W        W36737  16.678  12.963  10.322 -0.4188 -0.2851  0.0915
20604W        W36738   8.871   2.183   4.623  0.1398  0.1592 -0.3175
20605W        W36739  11.382   4.818  13.099  0.0828  0.1511 -0.0414
20606W        W36740   3.127   0.597   9.412 -0.2171 -0.1883  0.2148
20607W        W36741  15.371  16.604  12.782 -0.0868 -0.1381  0.0522
20608W        W36742  16.502   8.866  11.772  0.2961 -0.0154  0.2275
20609W        W36743  18.244  14.828   1.109 -0.0496 -0.1982 -0.0561
20610W        W36744   3.541  10.410  14.211 -0.3022  0.1196  0.0840
20611W        W36745   6.087   5.169   2.464 -0.0349  0.1630  0.0774
20612W        W36746   1.639   2.188  14.680 -0.0812  0.3651  0.1412
20613W        W36747  13.292  15.144   4.959  0.1128 -0.2637 -0.0931
20614W        W36748   1.858  10.130   3.256 -0.0278  0.2176 -0.2403
20615W        W36749   1.987   1.638   3.567 -0.1052  0.0250  0.2759
20616W        W36750  18.277   1.266   4.908 -0.0893  0.1004  0.1314
20617W        W36751  10.753  15.991  12.958  0.4264  0.3025 -0.3168
20618W        W36752  16.109  15.335   3.410 -0.0838 -0.1970 -0.0610
20619W        W36753   3.231  17.340  11.520  0.1715  0.1543  0.3672
20620W        W36754   7.301  16.879   1.108 -0.0506  0.0775  0.1319
20621W        W36755   2.585  12.944   1.448 -0.3735 -0.3288  0.1623
20622W        W36756  13.401  19.284   2.915 -0.0447  0.2571 -0.0803
20623W        W36757  12.786  18.008  14.913  0.1207 -0.0109 -0.2590
20624W        W36758  11.373   7.030  11.784 -0.0439 -0.1609  0.0559
20625W        W36759   7.666   5.946   2.785 -0.1753 -0.0879  0.0743
20626W        W36760  11.557  18.759  12.800 -0.1993 -0.1280  0.2139
20627W        W36761   1.294   1.451  12.995  0.1532 -0.2106 -0.3603
20628W        W36762   4.949   2.847   4.224  0.0352 -0.1245  0.1193
20629W        W36763  16.754   4.814   2.427  0.1278 -0.1930  0.0541
20630W        W36764   5.835   4.059   5.013 -0.3496 -0.2043  0.3302
20631W        W36765   6.853   3.821  11.020 -0.3121  0.1881  0.2569
20632W        W36766  12.586  14.963  10.746 -0.0665 -0.1253  0.1055
20633W        W36767  15.152  14.716  11.889  0.0259 -0.1081  0.1379
20634W        W36768  17.358  15.032   0.677  0.0900 -0.0133 -0.1782
20635W        W36769   1.993   3.130   3.626  0.2381  0.0775 -0.2545
20636W        W36770  17.867  16.607  10.095  0.0317 -0.1010  0.1812
20637W        W36771   2.741   1.364  10.960  0.0023  0.1643  0.1200
20638W        W36772   1.994  14.944   3.896 -0.1902  0.2646  0.1166
20639W        W36773   6.594   3.880   2.886 -0.0634 -0.4510 -0.0221
20640W        W36774   5.195  17.084  11.086  0.1563  0.1305 -0.0444
20641W        W36775   9.978  18.348  12.226  0.0545 -0.5560  0.0907
20642W        W36776  17.027  15.900   3.803  0.5035 -0.0499  0.0170
20643W        W36777   3.757  18.417   1.047 -0.0188 -0.0660  0.0697
20644W        W36778   7.687  14.799  13.638 -0.2483 -0.0913 -0.1014
20645W        W36779  15.615   8.302   4.656 -0.0377  0.2575 -0.3115
20646W        W36780   5.103   1.252  10.438 -0.0487 -0.0036 -0.2056
20647W        W36781  14.436  10.471  14.954 -0.0211  0.1508 -0.1400
20648W        W36782  13.871   2.099   3.890 -0.1423 -0.0090  0.2340
20649W        W36783   0.798  14.832   2.002  0.2671 -0.0643 -0.2427
20650W        W36784  15.013  14.273   3.933 -0.2138 -0.2762 -0.2455
20651W        W36785  10.233  14.143  14.069  0.2796 -0.0780 -0.0437
20652W        W36786   4.974   5.142   2.052 -0.0957 -0.1785 -0.1469
20653W        W36787   2.436   3.948   0.594 -0.2036  0.0409 -0.1692
20654W        W36788  13.452  14.628   4.200 -0.1716 -0.5216  0.0317
20655W        W36789   1.444   5.874   4.137 -0.0570  0.3153  0.2328
20656W        W36790   7.034   0.250   2.538  0.2116 -0.3348  0.0908
20657W        W36791  16.286   4.477   2.381 -0.0930  0.2577 -0.0208
20658W        W36792   0.936   5.407   0.941  0.1160 -0.0555 -0.0937
20659W        W36793  14.822   4.412   2.393 -0.2322  0.1641 -0.1048
20660W        W36794   1.313  11.295  14.592 -0.2498  0.2760 -0.0880
20661W        W36795   4.696   3.827   1.312 -0.2686  0.3232  0.0696
20662W        W36796   8.336   1.520   4.896 -0.0508  0.2187  0.1933
20663W        W36797  12.133   9.179   0.748  0.1660 -0.2463  0.0706
20664W        W36798  11.774   6.338   4.922 -0.0268 -0.1663 -0.0621
20665W        W36799  15.906   6.939   5.317  0.2132  0.1488  0.2693
20666W        W36800   2.885   1.716  10.554  0.0523  0.2226  0.1956
20667W        W36801   3.581  16.260  11.732  0.3839 -0.1464 -0.2672
20668W        W36802  18.075   7.029   3.704  0.0249 -0.1522 -0.4054
20669W        W36803   6.140  10.384   2.684 -0.0591  0.1481  0.2028
20670W        W36804  18.059  10.065   0.430  0.1708  0.1400  0.1398
20671W        W36805  10.148  16.404  13.434  0.0647 -0.1871  0.1971
20672W        W36806  14.046  12.761   3.337  0.2488 -0.0717 -0.2510
20673W        W36807  13.888  16.391   1.010 -0.3799 -0.3903 -0.0246
20674W        W36808  18.904   6.341  12.504  0.0117 -0.4251  0.0254
20675W        W36809  11.009  15.157   4.303 -0.4850  0.0418 -0.0121
20676W        W36810   8.608   1.081  12.068  0.1275  0.1357  0.0883
20677W        W36811   0.007  10.711  14.750 -0.1269  0.1711 -0.4022
20678W        W36812   5.026   7.295  10.976 -0.2167 -0.1599 -0.1510
20679W        W36813   3.730   9.067  10.385 -0.0571  0.0154  0.0549
20680W        W36814  11.892  19.093   5.213  0.1412 -0.0303  0.1234
20681W        W36815   9.372  11.578  13.118 -0.0895  0.1648 -0.1710
20682W        W36816  16.073  16.734   0.682  0.0175  0.1439  0.4262
20683W        W36817  10.946  14.218   0.335 -0.0615  0.3088  0.0187
20684W        W36818   7.907  10.045   0.781  0.1509 -0.0672 -0.0542
20685W        W36819   3.048  15.977   3.742 -0.0541 -0.2426 -0.3153
20686W        W36820  14.170   0.409   1.114  0.2497  0.0772  0.0071
20687W        W36821  10.280  11.783  11.603 -0.2610  0.0005  0.0620
20688W        W36822  12.524  12.847  13.489 -0.1767 -0.0811 -0.0084
20689W        W36823  14.025   4.148   4.809  0.0277  0.0848  0.3419
20690W        W36824  17.573  15.744  12.579  0.2919  0.2112  0.0190
20691W        W36825  13.444  12.323  13.179 -0.1781  0.1987  0.3036
20692W        W36826  13.005   7.936   3.041  0.2502 -0.1676 -0.0421
20693W        W36827   1.017  10.624  14.818  0.1439 -0.1727  0.1191
20694W        W36828   3.704   2.163  13.344 -0.1512  0.2732 -0.1191
20695W        W36829  14.188  13.825   3.850  0.1337  0.0383  0.1015
20696W        W36830   4.563  15.051  13.806  0.1928 -0.1432 -0.1697
20697W        W36831   1.736   9.915   0.468  0.1805 -0.0554 -0.1107
20698W        W36832  15.610  15.808  11.991  0.2681  0.2275  0.0735
20699W        W36833  13.242   5.773  12.147 -0.0098  0.2350  0.2385
20700W        W36834   1.798  12.492   1.930 -0.0396  0.2229  0.1829
20701W        W36835  15.965   7.859  14.861 -0.1703 -0.3481 -0.2960
20702W        W36836  15.164  10.846   9.180 -0.1724 -0.2413 -0.1697
20703W        W36837  14.389   9.252  12.406  0.0120  0.2214  0.1610
20704W        W36838  14.944   2.204   4.791 -0.0248  0.0444 -0.1422
20705W        W36839   7.851   4.691  13.201 -0.1289 -0.0425 -0.1837
20706W        W36840   7.982   3.723  13.709 -0.5338  0.1232  0.4433
20707W        W36841  15.613   0.650  13.606  0.1954 -0.2299 -0.2284
20708W        W36842   0.317   2.361  13.625  0.0476 -0.2122  0.2968
20709W        W36843   4.973   3.280  13.175 -0.3684  0.1045  0.0284
20710W        W36844   1.577   3.139   2.819 -0.4364 -0.3392  0.2234
20711W        W36845   4.912  13.122   2.990  0.0791 -0.1438 -0.1692
20712W        W36846   6.497  18.040  10.219  0.0105 -0.1657 -0.1017
20713W        W36847   9.306  17.106   3.128 -0.1188 -0.0063  0.0140
20714W        W36848  18.798  14.808   1.162  0.5517  0.0916  0.2064
20715W        W36849  15.358   9.191  14.774 -0.5614 -0.2064 -0.1418
20716W        W36850   0.629  16.639   5.041 -0.0523  0.1745  0.3199
20717W        W36851  10.930  16.783   4.774 -0.1593 -0.0278 -0.0512
20718W        W36852  14.830   3.969   1.381  0.1008 -0.2068  0.0479
20719W        W36853   5.184   2.971   9.138 -0.3022  0.2230  0.0002
20720W        W36854   3.605   0.545  10.899  0.0516  0.2054  0.1886
20721W        W36855  16.807   8.396   0.834  0.0227 -0.2016  0.0979
20722W        W36856  11.085   9.811   4.255 -0.0834 -0.0797  0.0452
20723W        W36857   9.293  13.792   0.413 -0.2427 -0.0253 -0.1246
20724W        W36858  15.478   4.500   9.503 -0.1884  0.1133 -0.4445
20725W        W36859  14.683   4.025  13.776 -0.2880 -0.2146  0.2503
20726W        W36860  13.812  18.351   2.067 -0.3381  0.1857  0.0817
20727W        W36861  14.976   6.447   1.347  0.3125 -0.1591 -0.0238
20728W        W36862  14.491   6.641   1.545  0.2287 -0.0397  0.1485
20729W        W36863   0.894   5.056  11.036  0.1791  0.0256 -0.2325
20730W        W36864   4.880   6.187  11.985 -0.0442  0.0529  0.0685
20731W        W36865   2.930  19.086   3.419  0.0048  0.0754 -0.0457
20732W        W36866  14.864   4.780   4.839 -0.0722 -0.0028 -0.0188
20733W        W36867  17.301  17.008   3.136  0.1667 -0.3820  0.1713
20734W        W36868  13.569   4.677  12.356  0.1524 -0.0555  0.0267
20735W        W36869   1.433   0.763   4.969 -0.3566 -0.0375  0.0521
20736W        W36870   7.303  13.397   5.745 -0.1956 -0.1368 -0.1237
20737W        W36871  12.863  18.699  14.528  0.0578  0.0832  0.3182
20738W        W36872   1.985   3.740  11.424 -0.2317 -0.2409  0.1835
20739W        W36873  15.848  10.139   1.391  0.0561 -0.1953 -0.2691
20740W        W36874   7.060  10.371   2.961  0.1578  0.4649  0.0007
20741W        W36875   2.569  10.792   0.938 -0.3431  0.2141 -0.3579
20742W        W36876   7.327   9.189  11.927 -0.0637 -0.1361 -0.1685
20743W        W36877   4.699   4.352  12.513  0.2634 -0.1182  0.3633
20744W        W36878  13.281   1.704  11.506 -0.3239 -0.2658  0.1249
20745W        W36879   9.019  14.514   0.337  0.0547  0.0631 -0.1310
20746W        W36880   5.975   5.151  11.630 -0.3473 -0.2778  0.1704
20747W        W36881   7.259   7.996  13.428 -0.0694 -0.0164 -0.0808
20748W        W36882   1.087   2.733   0.075 -0.1604 -0.0226 -0.0914
20749W        W36883  11.652  16.191  14.693 -0.0287  0.0024 -0.0972
20750W        W36884   7.143   9.587   3.372 -0.0999  0.1215  0.4039
20751W        W36885   4.374   6.986   1.251  0.1386  0.2503 -0.1035
20752W        W36886  12.592   8.183   3.195 -0.0532 -0.1837 -0.2998
20753W        W36887   5.173   7.494   4.899  0.1398 -0.0987 -0.1450
20754W        W36888  13.730  12.308   5.304 -0.1623 -0.0182 -0.1767
20755W        W36889  15.373   7.335  14.312  0.1078 -0.0404  0.0637
20756W        W36890  13.793   8.902  13.867 -0.0916 -0.0871  0.3066
20757W        W36891   8.470   3.434  12.127 -0.2649 -0.2838 -0.0245
20758W        W36892  11.189  12.165   2.032 -0.2797 -0.0018  0.2846
20759W        W36893  17.800   2.697  14.583  0.2812 -0.1463 -0.0536
20760W        W36894  11.205   2.154  14.720  0.0484  0.1786 -0.0242
20761W        W36895   6.474   8.413  12.763  0.2461  0.0395  0.3283
20762W        W36896   1.097   8.829  13.909 -0.1719 -0.0438 -0.1052
20763W        W36897  14.865  16.317  14.082  0.1527 -0.0209 -0.0243
20764W        W36898  11.316  17.558   2.895 -0.0718  0.2444  0.2804
20765W        W36899   8.806  10.326   4.420 -0.0255  0.0368  0.0205
20766W        W36900   9.881   0.242   2.494 -0.1878 -0.2435 -0.2113
20767W        W36901  10.769   6.413   4.349  0.2504  0.1503  0.1567
20768W        W36902  15.220   7.113   1.357 -0.0062 -0.2288  0.1464
20769W        W36903   5.514   0.217  14.159 -0.0481  0.0086  0.2650
20770W        W36904   7.060  17.595   0.315 -0.0656 -0.0216 -0.2216
20771W        W36905   8.921  18.892   1.306 -0.1404 -0.1445  0.2936
20772W        W36906  14.167   9.729  11.767  0.0125 -0.1298 -0.1692
20773W        W36907  10.579  12.489   4.228  0.0617 -0.2921 -0.2050
20774W        W36908   3.365   9.011   9.580  0.1405  0.3905  0.0629
20775W        W36909   8.866   6.802   3.276  0.0759  0.4521  0.1213
20776W        W36910  18.501  14.935   2.535 -0.1717 -0.0975  0.2489
20777W        W36911   7.441   1.825   5.872  0.0007 -0.0310 -0.1797
20778W        W36912   3.956  16.382  14.958  0.0542  0.2210  0.1741
20779W        W36913  10.251  10.032  14.956 -0.0070 -0.0471 -0.0761
20780W        W36914   9.735   8.524   9.156  0.0142 -0.2536  0.1098
20781W        W36915   0.987   5.174   3.243  0.2880  0.0943  0.3317
20782W        W36916  12.370  14.703  12.495  0.3565  0.1506 -0.0351
20783W        W36917   2.610   2.694  13.337 -0.2191 -0.3010 -0.1564
20784W        W36918   0.840   7.191  13.102 -0.1158  0.0232  0.0638
20785W        W36919   6.119   0.154   1.820 -0.1369  0.1428  0.0392
20786W        W36920   9.203   3.676   4.990  0.0767  0.5540 -0.1539
20787W        W36921  13.913   1.297   2.889  0.0692 -0.0663  0.0307
20788W        W36922   4.835   6.085   2.203 -0.1407 -0.2223  0.2728
20789W        W36923  10.397  12.177   5.530 -0.0897  0.1911  0.0257
20790W        W36924  14.778  14.364   1.930  0.0154  0.0112  0.1087
20791W        W36925   0.257   1.871   0.174 -0.0361  0.0827 -0.0982
20792W        W36926  13.041  11.274  14.729  0.1528  0.4591 -0.1715
20793W        W36927   2.199   8.150   3.685  0.0973  0.0686  0.0084
20794W        W36928   6.520  10.083  14.145 -0.0792  0.2060  0.3740
20795W        W36929   7.862  11.397  12.941 -0.0914  0.2985  0.0364
20796W        W36930   3.323  15.503   0.857 -0.1937  0.1079  0.1774
20797W        W36931   1.132   0.249   3.308  0.0182 -0.1015  0.2514
20798W        W36932  14.140   3.485   0.992 -0.0949 -0.0948 -0.0576
20799W        W36933   6.207   2.932  14.407 -0.1291  0.1476 -0.1964
20800W        W36934   1.791   7.426   1.234  0.0253 -0.1615  0.2791
20801W        W36935  13.659  14.347  13.497  0.2970  0.0830  0.0346
20802W        W36936   8.160  12.952   5.084 -0.0540  0.1819 -0.1412
20803W        W36937  14.139  15.450   1.119  0.2560 -0.2117  0.1406
20804W        W36938   6.434  17.833   1.096 -0.0788 -0.1130  0.2196
20805W        W36939   8.055   9.215   1.688  0.1146  0.2343  0.1489
20806W        W36940  15.499   7.544  12.951  0.1130 -0.1191 -0.0524
20807W        W36941   3.448  15.191   4.372  0.1507  0.2984 -0.2102
20808W        W36942  13.170   9.656  10.793  0.0241  0.1812  0.0374
20809W        W36943  17.700  18.937   3.485  0.0743 -0.0523 -0.0849
20810W        W36944  17.739   8.019  12.925  0.1605  0.0191  0.3080
20811W        W36945  16.796   8.623  10.165 -0.1555 -0.0311  0.2174
20812W        W36946   0.101  15.419   4.596 -0.2092  0.2327 -0.0788
20813W        W36947   2.145   3.685  10.646 -0.0271 -0.1678 -0.0348
20814W        W36948   2.013   2.545  14.578  0.2353  0.1822  0.2608
20815W        W36949   0.436   6.969   2.731 -0.1959 -0.0085 -0.2544
20816W        W36950  10.508  16.656  11.260 -0.3653  0.1113  0.1622
20817W        W36951  18.717  12.472   1.873 -0.0014  0.0897 -0.3129
20818W        W36952   2.764   3.975  14.672 -0.0966  0.0161  0.0665
20819W        W36953  18.226   3.575  12.970 -0.0556  0.2627  0.3370
20820W        W36954  18.618  12.890  11.291 -0.0960 -0.0955 -0.2571
20821W        W36955   2.438  17.357  14.156 -0.1344 -0.2024  0.0607
20822W        W36956   0.650  12.494   0.984 -0.1990  0.0082 -0.1517
20823W        W36957  17.848  16.277  14.213 -0.0250  0.4761  0.3433
20824W        W36958  14.747  10.562   3.217  0.1853 -0.1618 -0.0851
20825W        W36959   3.920  13.862   2.870 -0.0806 -0.1240 -0.1771
20826W        W36960  18.255  12.964   4.238  0.1692  0.2024 -0.0212
20827W        W36961  19.189  15.787  11.823 -0.1317 -0.2421  0.2535
20828W        W36962   0.882  16.113   4.327  0.0543  0.1264 -0.2246
20829W        W36963   8.676  19.117  11.951 -0.0321 -0.3447  0.1275
20830W        W36964   8.290   4.929   2.008 -0.2760  0.1170  0.0451
20831W        W36965  14.650   4.295   4.969 -0.2647 -0.2712 -0.1660
20832W        W36966   7.686   8.485  12.814 -0.0910 -0.0723 -0.2145
20833W        W36967   9.168  13.636  12.066 -0.1369 -0.1016  0.0089
20834W        W36968  14.851   0.229  10.278 -0.2434  0.3659 -0.1321
20835W        W36969   0.185  11.691  14.757  0.0932 -0.0985 -0.0187
20836W        W36970   2.476  12.590   2.388  0.2893  0.0854 -0.1928
20837W        W36971   4.796  17.683   3.995 -0.1052 -0.0535  0.2231
20838W        W36972   4.703  17.075   1.517 -0.2889  0.0478  0.0878
20839W        W36973  14.296   3.706   5.053 -0.0207 -0.4203 -0.2702
20840W        W36974  17.333   9.062  14.689  0.2443  0.2451  0.0556
20841W        W36975   1.375   5.819  14.367 -0.0719  0.0410  0.1087
20842W        W36976   4.223  11.268  11.579  0.3163 -0.0545 -0.2492
20843W        W36977   3.018   5.084  10.317  0.2552  0.2339  0.0460
20844W        W36978   1.416   5.634  11.596  0.1088  0.2618  0.0842
20845W        W36979   9.900   2.712   4.473  0.0481 -0.1637 -0.3665
20846W        W36980   1.303  18.870   4.238  0.0601 -0.0713  0.0601
20847W        W36981   1.003  16.729  12.618 -0.5784 -0.0562  0.0313
20848W        W36982  13.407  11.366   3.896  0.4990  0.0032 -0.1272
20849W        W36983   8.619   4.528   1.293  0.0584  0.3428 -0.1669
20850W        W36984   5.149   1.197   2.393  0.0980 -0.0870  0.0680
20851W        W36985  17.964   3.405   4.642 -0.1296 -0.0777  0.0806
20852W        W36986  14.861  17.737  11.372  0.0375 -0.1653  0.0671
20853W        W36987   5.230  12.268   0.766  0.0344 -0.1689  0.3034
20854W        W36988   1.871  11.926   2.672  0.1416 -0.1479  0.0095
20855W        W36989  14.095   9.737   2.511  0.1844 -0.3254 -0.2670
20856W        W36990   6.107   3.854   1.974 -0.0120 -0.1026 -0.0316
20857W        W36991  16.949   1.702   0.151  0.0142  0.3708 -0.1600
20858W        W36992   9.272  14.874  14.385 -0.0525 -0.1215  0.0045
20859W        W36993   4.628  12.597  14.107  0.3982  0.1340  0.0482
20860W        W36994  17.081   7.170  11.613 -0.0988  0.0127 -0.1335
20861W        W36995  10.801   9.668  10.438 -0.2939 -0.0724 -0.1896
20862W        W36996  18.329   3.185   3.253  0.0863 -0.0356 -0.1003
20863W        W36997   7.233  13.146   0.829  0.2322  0.0860  0.2109
20864W        W36998  14.514  15.787   5.579  0.3625 -0.2075 -0.1189
20865W        W36999   0.695   0.797  14.039 -0.2082  0.2553 -0.3552
20866W        W37000   5.097  17.058   0.164  0.0886 -0.0873  0.1399
20867W        W37001  10.996   9.881   1.621 -0.4140 -0.0086  0.3649
20868W        W37002  10.486  13.998  14.574  0.0785  0.2818  0.1849
20869W        W37003  14.555   6.444   2.940  0.1436  0.4588  0.2427
20870W        W37004  11.136   5.206   3.328 -0.1851 -0.0221 -0.2865
20871W        W37005  15.607  14.142  13.439 -0.0322 -0.2744 -0.0072
20872W        W37006  11.779  14.954  11.740  0.1937 -0.1027 -0.2659
20873W        W37007   5.630  12.435   3.378 -0.2492 -0.1853  0.0927
20874W        W37008  11.234   2.384   4.694  0.1292  0.1962  0.3651
20875W        W37009   1.723  17.091   0.555  0.1002 -0.0265 -0.1423
20876W        W37010  12.120  10.349   1.824 -0.3132 -0.0967 -0.0078
20877W        W37011   2.846   4.735   0.925 -0.1781  0.1484  0.0892
20878W        W37012   1.750  14.154   2.486  0.1022 -0.0209 -0.1161
20879W        W37013  10.752   5.740  11.588  0.0707 -0.2928 -0.4393
20880W        W37014  16.929  12.433  14.116  0.2944 -0.3181  0.0486
20881W        W37015   7.662  16.652   4.590 -0.0309  0.1391 -0.1541
20882W        W37016  17.910  11.222   3.624  0.1966 -0.1767 -0.0557
20883W        W37017  16.437  15.481  13.646  0.2399 -0.1136 -0.0948
20884W        W37018  18.524  14.518   0.700  0.1830  0.1223  0.2834
20885W        W37019  12.391  15.992  11.154 -0.3320  0.0015 -0.0176
20886W        W37020   4.419  11.756   0.204  0.5661 -0.0040  0.1996
20887W        W37021  13.162  13.420   1.394  0.1523  0.0665  0.0074
20888W        W37022   7.177  13.021  10.526  0.0373  0.1151  0.0798
20889W        W37023  17.692  19.288  11.867 -0.0794 -0.1694 -0.0303
20890W        W37024   4.789   2.253   9.734 -0.1339  0.2570 -0.0748
20891W        W37025   0.195   8.902   0.507  0.2249  0.1515  0.0198
20892W        W37026  14.167   1.524   4.423 -0.0319 -0.0316 -0.1934
20893W        W37027   2.188  11.917  14.032 -0.2429 -0.1165 -0.0750
20894W        W37028   0.670   6.910  10.268  0.0291  0.4275 -0.0997
20895W        W37029  10.725  10.015  11.681  0.0015 -0.0732 -0.0872
20896W        W37030  13.804   5.465   1.596 -0.0636  0.1558 -0.0422
20897W        W37031   0.282  14.928   3.792  0.0864 -0.1151  0.2972
20898W        W37032  16.864   6.659   0.020 -0.2733  0.0381 -0.1816
20899W        W37033   9.279   6.442  12.216  0.0417  0.1315  0.0988
20900W        W37034   0.668  16.380   1.360  0.0311  0.2841 -0.0079
20901W        W37035  17.786  14.332   0.298  0.5543 -0.1949 -0.1992
20902W        W37036   7.706   5.597   3.817  0.3194  0.2119  0.1069
20903W        W37037  13.745   4.354  13.684 -0.3500  0.3362 -0.4435
20904W        W37038   3.600  18.446   3.201  0.4985 -0.1143 -0.0076
20905W        W37039   3.172  13.371  12.262  0.0723 -0.1874  0.3093
20906W        W37040   3.672  18.212   4.963  0.1846  0.1338  0.4544
20907W        W37041  14.484  10.586  11.425 -0.0500  0.0840 -0.3508
20908W        W37042   7.628  11.296  10.622  0.0583  0.1012 -0.1619
20909W        W37043   7.008  11.332   3.205  0.1546 -0.3319  0.1525
20910W        W37044  17.289  14.923   3.060 -0.0150 -0.1177  0.0830
20911W        W37045  10.017  17.759   2.432  0.2549  0.0373 -0.0448
20912W        W37046  10.214  12.971  13.366  0.3131  0.0687  0.1447
20913W        W37047   3.844  12.802   9.530  0.1741  0.1694 -0.3001
20914W        W37048   7.140   5.921  10.359 -0.0215  0.1379  0.0271
20915W        W37049   1.253   1.033  10.669 -0.1662 -0.3888  0.0487
20916W        W37050  17.023  10.530  13.915  0.0541 -0.0111 -0.1752
20917W        W37051   7.201  14.422   2.120 -0.0776 -0.2176  0.0444
20918W        W37052  13.842   8.333   3.195  0.2172 -0.1179 -0.1160
20919W        W37053  11.364  18.569  11.178 -0.0287 -0.0722 -0.0704
20920W        W37054   2.678   2.618   1.540 -0.2050  0.1810 -0.0983
20921W        W37055   4.559  15.462   1.543  0.4095 -0.0474 -0.0943
20922W        W37056  12.983   9.498   3.330  0.1142 -0.2319  0.0282
20923W        W37057  17.954  11.098  13.884 -0.0631  0.4219 -0.0874
20924W        W37058   7.138  12.152  10.740 -0.2592  0.2133  0.0676
20925W        W37059  13.372  13.453  13.189 -0.0534  0.3068  0.0476
20926W        W37060  13.584  17.405  13.207  0.0997 -0.1981 -0.0806
20927W        W37061   6.675  17.721   1.846  0.0415 -0.0170 -0.0154
20928W        W37062   3.910   1.633  12.550 -0.0141 -0.3712 -0.2327
20929W        W37063  14.608  14.048  11.162  0.1884 -0.0099 -0.0414
20930W        W37064  11.332  11.996  11.009  0.0551 -0.3291 -0.2917
20931W        W37065   8.033  11.785  14.270  0.1292 -0.0562  0.1853
20932W        W37066   5.491   4.342   4.161 -0.4969  0.0616 -0.1201
20933W        W37067   3.956   6.714   4.130  0.1360 -0.2241 -0.2219
20934W        W37068  16.194   1.032  13.123  0.0425 -0.1485  0.2555
20935W        W37069   3.673   5.507  14.335 -0.0820  0.2315 -0.1772
20936W        W37070   7.993  12.189   0.213 -0.1030 -0.0981 -0.0014
20937W        W37071  12.652   8.524  13.599 -0.0747 -0.0463  0.4657
20938W        W37072  18.706  11.018  10.916 -0.2094 -0.3504  0.0997
20939W        W37073   9.025   9.445   0.242  0.1873  0.4024 -0.0804
20940W        W37074   8.119  14.126  14.149  0.1634  0.1818 -0.3437
20941W        W37075   2.586   8.144  13.775  0.2248 -0.1067 -0.1642
20942W        W37076   3.010  13.313  10.544 -0.2812 -0.0892  0.2514
20943W        W37077   6.050   5.619  11.727 -0.1370 -0.1268 -0.3418
20944W        W37078  12.874   7.754   4.989 -0.0167  0.1780 -0.0409
20945W        W37079   5.743  17.563   4.378 -0.0359  0.3475  0.0389
20946W        W37080  15.237   2.440  12.146 -0.2587 -0.0343 -0.2424
20947W        W37081   7.730   2.515   2.864 -0.0645 -0.0821 -0.1226
20948W        W37082  17.759   2.925   0.227  0.2301  0.1370  0.0395
20949W        W37083   4.195   2.196   4.403 -0.0760  0.1029  0.0958
20950W        W37084  17.752  13.242  10.269  0.3680  0.0785  0.0513
20951W        W37085   4.589  13.447  12.351  0.1370 -0.2359 -0.0858
20952W        W37086  10.288   9.052  13.173  0.2611  0.3709  0.0299
20953W        W37087  11.936   3.670   1.136  0.0577  0.0952  0.1099
20954W        W37088  18.104   8.883  12.162  0.1431 -0.1209 -0.3573
20955W        W37089   7.064   2.717   2.383  0.0888 -0.0866  0.1144
20956W        W37090   8.357   6.536   3.952  0.3114 -0.0867 -0.0124
20957W        W37091   6.602   8.401   2.662 -0.2651  0.0309  0.0413
20958W        W37092  10.312  14.326   1.360  0.0692 -0.0344  0.2744
20959W        W37093  11.468   6.442  11.568 -0.0736  0.1129 -0.0162
20960W        W37094   1.299   9.147  10.110  0.2479  0.0341 -0.0621
20961W        W37095  17.758  16.138   2.463  0.0074  0.2277  0.1446
20962W        W37096  16.471  12.927   2.513 -0.1905 -0.0842  0.0316
20963W        W37097   5.853   0.075  14.566 -0.3191  0.1348  0.0923
20964W        W37098   8.457   3.237  11.660  0.3020  0.1099  0.0054
20965W        W37099   0.479   4.248   2.340  0.0280 -0.3402 -0.2420
20966W        W37100  10.560  14.259  13.731 -0.0066  0.2679  0.0547
20967W        W37101  17.458  15.248  10.574  0.1981  0.0684  0.0134
20968W        W37102  18.185  17.478   4.866  0.1579 -0.0762 -0.0847
20969W        W37103   1.862  12.736  10.969  0.0041 -0.2051 -0.3535
20970W        W37104  17.310  13.784  10.346  0.0927 -0.0803  0.0759
20971W        W37105  15.379   6.165   1.203  0.0238 -0.0285  0.5083
20972W        W37106   8.218  12.649   0.042  0.2104  0.0170 -0.2014
20973W        W37107  10.200  15.215  11.089  0.0046 -0.2371 -0.0348
20974W        W37108   5.848  17.465  11.997  0.2531  0.0258  0.4707
20975W        W37109  10.515   2.809   5.313  0.0300 -0.1687 -0.3367
20976W        W37110  15.008  12.671  12.544  0.2152 -0.0786  0.2931
20977W        W37111  17.002   1.137   1.247 -0.0385  0.2338 -0.4729
20978W        W37112   7.858  15.443   4.588 -0.2327 -0.0404  0.1160
20979W        W37113   4.348   3.189  11.639 -0.0216  0.1668 -0.0370
20980W        W37114  15.198   5.419   5.224  0.1259  0.0071 -0.0014
20981W        W37115   7.975   8.238  11.281  0.3567 -0.1781  0.1815
20982W        W37116   9.985   6.024   4.299  0.0264 -0.0339  0.0987
20983W        W37117   5.743  14.214  10.868  0.0894 -0.1651 -0.3024
20984W        W37118   1.018   6.984   3.615  0.1699 -0.2477  0.1997
20985W        W37119   6.622   9.928  12.191  0.1923 -0.1455 -0.1187
20986W        W37120   5.564  12.803   2.557 -0.1253 -0.2316 -0.1334
20987W        W37121  16.112  13.104   1.878  0.0620  0.0521 -0.0688
20988W        W37122  16.612   2.112   0.126  0.3292  0.0321  0.0741
20989W        W37123   5.599  11.998  12.680 -0.0815  0.0240  0.3369
20990W        W37124   9.262   3.399  11.309  0.0524 -0.0561  0.1347
20991W        W37125   9.428   3.907   0.780  0.1882 -0.1957  0.1581
20992W        W37126  10.621  15.955   5.336 -0.1613  0.0796 -0.1227
20993W        W37127   7.611   1.410  11.602  0.0587  0.1965  0.2886
20994W        W37128  18.431  17.762  12.646 -0.0029 -0.0562 -0.1902
20995W        W37129   4.524  16.960  10.381 -0.2285  0.1433 -0.3428
20996W        W37130   3.444   3.515   9.314  0.1287  0.2223 -0.2139
20997W        W37131   7.751  13.117  12.264 -0.0317 -0.0967  0.0144
20998W        W37132   2.255  15.361   4.032  0.1826  0.2453  0.0486
20999W        W37133  12.882   6.180  12.310  0.0733 -0.3105  0.0139
21000W        W37134  19.112   9.468  12.941  0.0671  0.1389 -0.1623
21001W        W37135   7.647   6.553   1.611  0.4819  0.1334 -0.0560
21002W        W37136  14.918  14.807   2.552 -0.1053  0.0617  0.3232
21003W        W37137  10.833  12.544   2.738  0.2017 -0.0271  0.0749
21004W        W37138   2.956   2.265  14.833  0.1669  0.2668 -0.0296
21005W        W37139  18.404   0.209  13.869 -0.0668  0.3443  0.0279
21006W        W37140  15.291   6.855  10.821  0.0660  0.3073 -0.0509
21007W        W37141  16.427   5.676  11.125  0.3667  0.2328  0.0348
21008W        W37142   9.441   6.959  14.638  0.2354  0.1589  0.4954
21009W        W37143  15.018  17.317  14.016  0.0167 -0.1603 -0.0050
21010W        W37144   2.273   9.881   2.113 -0.2727 -0.1634 -0.1555
21011W        W37145   1.072  14.382  11.014 -0.0584  0.1049 -0.2974
21012W        W37146  19.032   4.266   1.611  0.1834 -0.1463  0.3728
21013W        W37147  10.659  13.604  11.691  0.1996  0.3134 -0.0754
21014W        W37148   8.843   6.856   4.081  0.1248 -0.1131 -0.0265
21015W        W37149  15.084  15.532  11.168  0.1052  0.3599 -0.3120
21016W        W37150   9.485  18.184   4.689  0.1263 -0.2143 -0.3046
21017W        W37151   9.319  14.582  12.615 -0.0364  0.0904  0.1728
21018W        W37152  13.140  18.884   3.937 -0.1006  0.2503  0.1849
21019W        W37153   3.866  16.694   5.795 -0.1676  0.1742 -0.0439
21020W        W37154   4.795   3.783   3.819 -0.2396  0.4943 -0.1629
21021W        W37155  18.280   2.235   1.394 -0.1786 -0.1392  0.2539
21022W        W37156  10.287  14.317   0.844 -0.1862  0.0843 -0.0938
21023W        W37157  15.236  16.156   2.288 -0.1039  0.4338 -0.0650
21024W        W37158  11.499  14.335  11.966 -0.2068 -0.2840 -0.0689
21025W        W37159  12.384   7.884   0.372 -0.2065  0.0518 -0.0550
21026W        W37160  19.303   1.670  10.211 -0.0549 -0.0991 -0.1536
21027W        W37161  15.795   1.275  11.838  0.3262 -0.0980 -0.0898
21028W        W37162  18.317   1.009  13.133 -0.2492  0.1795 -0.4363
21029W        W37163   2.187   3.795  12.491 -0.2509  0.0882 -0.0192
21030W        W37164  11.493  17.241  14.964  0.0432 -0.0914 -0.1072
21031W        W37165   1.589   7.530   3.422 -0.1287  0.0307  0.2099
21032W        W37166   4.345  15.919   2.240  0.0153 -0.1079 -0.3631
21033W        W37167   4.689  17.709  10.637  0.0014  0.1787 -0.0506
21034W        W37168  12.892   8.830  10.255 -0.2676  0.0321  0.0419
21035W        W37169  17.831   6.483   4.483  0.0693  0.2188  0.0572
21036W        W37170  16.113   9.821   4.140 -0.1404  0.1384 -0.1103
21037W        W37171   2.300  16.291   0.181  0.1436 -0.0184  0.1311
21038W        W37172   3.354  11.637  11.543  0.0333  0.0456 -0.0001
21039W        W37173  17.118  10.121  14.937 -0.1001  0.1544 -0.2653
21040W        W37174   4.796  15.665   4.925  0.0076 -0.1340 -0.1295
21041W        W37175   3.799   5.524   8.807  0.1603 -0.1918 -0.1185
21042W        W37176  12.407  19.003   5.619 -0.3566 -0.2215  0.2154
21043W        W37177   6.741  12.723   4.502  0.2958  0.0828  0.2014
21044W        W37178  15.104   2.845   0.828 -0.0784 -0.0398  0.1918
21045W        W37179   9.733  13.254   0.178  0.1173  0.1402  0.0440
21046W        W37180   0.909   3.400  10.197  0.1076  0.0684  0.1682
21047W        W37181   5.076  10.844   3.293  0.2472  0.1021 -0.1829
21048W        W37182   0.574  16.493   4.487 -0.1661 -0.1063  0.0851
21049W        W37183  12.741   8.660   3.845  0.1312  0.4345  0.2044
21050W        W37184  12.486   8.356  13.116 -0.0841  0.0582  0.3526
21051W        W37185  14.627  10.838  10.653  0.0266 -0.1326  0.0353
21052W        W37186  18.334  15.426   5.018  0.2476  0.2621  0.0969
21053W        W37187  13.691  18.592  10.940  0.2604 -0.0054  0.2948
21054W        W37188   8.917   6.731   1.929  0.2337  0.0271 -0.0055
21055W        W37189  17.155   1.603   2.745 -0.1620  0.0102 -0.0755
21056W        W37190   1.271   3.733   2.716 -0.2855 -0.0928 -0.1910
21057W        W37191   9.421  17.211   2.610  0.0786  0.1064  0.2702
21058W        W37192   0.733   0.771   1.998 -0.1040  0.5463 -0.3414
21059W        W37193   0.428   5.193   4.996  0.2576 -0.2989 -0.0390
21060W        W37194   3.160   2.156  12.348 -0.0585  0.0728 -0.2348
21061W        W37195  18.254   4.946  13.956 -0.2276 -0.2771  0.0469
21062W        W37196  16.866   9.749   1.869  0.1502  0.2579 -0.0317
21063W        W37197   4.672   7.389   8.607  0.0555 -0.2180  0.0744
21064W        W37198   4.830   9.758   5.327 -0.1018 -0.0439 -0.1193
21065W        W37199  16.644  13.197  12.979  0.3400  0.4513  0.1170
21066W        W37200  18.061  16.637   0.241 -0.3136  0.4172  0.0692
21067W        W37201  15.658   1.011  14.530  0.3513  0.1630 -0.1838
21068W        W37202   7.664   3.704   1.731 -0.1480 -0.4331 -0.1794
21069W        W37203  15.913  11.762  13.392  0.1509  0.0799  0.1119
21070W        W37204   9.525   9.561   1.556  0.1040  0.2084  0.0395
21071W        W37205   5.844  10.964   5.139  0.0543  0.2640 -0.1773
21072W        W37206   9.031   4.916   3.992  0.3433  0.1249  0.1932
21073W        W37207   5.974   2.370  13.169 -0.1634 -0.1779 -0.1016
21074W        W37208  15.013   0.762  11.363  0.0438  0.4128 -0.0062
21075W        W37209   9.672   4.758   0.266 -0.1644  0.4726 -0.1265
21076W        W37210   4.608  18.031   0.998  0.2294 -0.2802  0.1065
21077W        W37211  14.024  10.136   4.716 -0.0989  0.0980 -0.0709
21078W        W37212   9.583  14.228   3.445  0.0922 -0.3662  0.2188
21079W        W37213  12.245   2.962   4.136  0.5101  0.1102 -0.0327
21080W        W37214   4.087   8.538  12.163 -0.1881 -0.2354 -0.0015
21081W        W37215   9.880   0.804  13.230 -0.0525 -0.2721 -0.1497
21082W        W37216  10.328  16.863  13.019  0.4153 -0.2189  0.0022
21083W        W37217  18.995   8.532  12.413  0.1241  0.0996 -0.0634
21084W        W37218  17.365  18.425   2.781  0.0480  0.2257 -0.1268
21085W        W37219  10.190   7.932   0.902 -0.0096 -0.0939 -0.1422
21086W        W37220   7.568   2.563   2.389 -0.0813  0.0880  0.2782
21087W        W37221   8.897   6.373   2.320 -0.0142  0.3541 -0.3477
21088W        W37222   5.042  17.015   4.568  0.0265 -0.1140  0.1808
21089W        W37223  14.170  15.453   4.849 -0.2644  0.2089 -0.0070
21090W        W37224   7.653   0.754  13.679 -0.0125 -0.1315  0.3694
21091W        W37225  15.625  15.301   3.248 -0.1481  0.1407 -0.2711
21092W        W37226   9.245  15.007  12.256 -0.0163  0.3524  0.1180
21093W        W37227  11.514  15.819   4.614 -0.3170  0.1458 -0.2752
21094W        W37228  11.249  17.325  12.780 -0.0772  0.0720 -0.1527
21095W        W37229  14.512  12.168   3.890  0.1821  0.3056  0.1269
21096W        W37230  19.232  11.765   3.083 -0.0243 -0.1267  0.0450
21097W        W37231  11.699   2.711   2.887 -0.0094 -0.2444 -0.1217
21098W        W37232   3.397  15.998  12.213  0.1963  0.1520  0.1743
21099W        W37233  18.847   4.705   0.612  0.1929 -0.1575  0.1144
21100W        W37234  13.658  14.581  10.555 -0.2353  0.1717 -0.0528
21101W        W37235   9.013  15.097   1.066 -0.0355 -0.2097 -0.1181
21102W        W37236   5.393  17.094  12.916 -0.3028  0.3398 -0.1262
21103W        W37237  15.454  15.829   0.532 -0.5290  0.2019  0.2386
21104W        W37238   7.502   2.704   5.430 -0.3013 -0.0456 -0.1358
21105W        W37239   9.633  14.404   5.201  0.0810 -0.2659 -0.1682
21106W        W37240  17.508  11.082   1.751  0.0222 -0.1173  0.1729
21107W        W37241  17.501   9.230   4.231 -0.0431 -0.0665  0.1121
21108W        W37242   7.553   5.743   4.770 -0.1484  0.3136 -0.0889
21109W        W37243   5.088  18.282   5.252 -0.0411 -0.2335  0.1042
21110W        W37244   7.563   5.530  14.039 -0.1100 -0.0923  0.0036
21111W        W37245  18.792  18.201   5.686 -0.1059  0.0814 -0.0058
21112W        W37246  13.842  10.546   2.271  0.1496  0.0438 -0.0003
21113W        W37247   2.084   3.520   1.340  0.0396  0.0200 -0.1662
21114W        W37248  13.876   8.116  13.162 -0.1355 -0.2568  0.0134
21115W        W37249   9.504  11.232  13.461  0.1501 -0.0407  0.1245
21116W        W37250  13.963  15.189  12.138 -0.3067  0.2594 -0.1658
21117W        W37251  10.934  12.056   3.618 -0.0846 -0.2251  0.2545
21118W        W37252   0.741   5.636  14.157  0.3823 -0.0492  0.5321
21119W        W37253  17.536  16.632   4.537 -0.1938 -0.0731 -0.0699
21120W        W37254   0.462  17.361   5.132 -0.2056 -0.0707  0.1549
21121W        W37255  13.606   1.863   3.495 -0.1643  0.2170  0.1946
21122W        W37256   0.815  12.363  14.603 -0.1052 -0.0805 -0.2200
21123W        W37257  15.882   0.619   1.854 -0.0795 -0.0607 -0.1070
21124W        W37258  13.976   0.923   5.498  0.0101  0.2274  0.0844
21125W        W37259   3.170   3.245  13.881  0.2620  0.1425 -0.1682
21126W        W37260  10.747   6.514  14.043  0.1919  0.0567  0.0600
21127W        W37261  18.428  14.066   3.188 -0.0631 -0.0786  0.1134
21128W        W37262  17.419  18.845   0.991 -0.0814  0.2635  0.1804
21129W        W37263  17.057  14.118  11.163 -0.1303  0.1994 -0.2092
21130W        W37264  15.753  10.479  11.125  0.2583 -0.2388 -0.0280
21131W        W37265  13.084  18.598   4.695  0.0116 -0.3666 -0.2901
21132W        W37266  10.768   6.016  13.781  0.0412  0.0719 -0.0559
21133W        W37267   2.176   4.299  12.593 -0.0288 -0.1142  0.2246
21134W        W37268   7.034  16.514   3.374  0.1171  0.0654 -0.3380
21135W        W37269  18.372   5.362  13.034 -0.1965 -0.1332 -0.1913
21136W        W37270  12.378  11.518   1.860 -0.0036 -0.1032 -0.0545
21137W        W37271  15.118  11.123   2.322  0.1353  0.1994 -0.2724
21138W        W37272  16.842  17.206   5.075  0.2521 -0.3280  0.4935
21139W        W37273  14.430  18.031   4.819 -0.0003 -0.0325  0.0729
21140W        W37274  12.600  15.360  12.889  0.1585 -0.0863 -0.3817
21141W        W37275   6.132  13.472  14.385 -0.2408 -0.1266  0.0628
21142W        W37276  15.744  13.677   0.662  0.1775 -0.1350  0.1656
21143W        W37277   3.052   3.017   4.458  0.0011 -0.0942  0.0120
21144W        W37278  17.332   9.948  11.653 -0.0171 -0.0009 -0.0722
21145W        W37279  14.715  10.169  11.299  0.2103 -0.0593 -0.3112
21146W        W37280  12.690  10.714  11.044 -0.1383 -0.0177 -0.0603
21147W        W37281  18.688   1.634   4.699  0.0586 -0.0013 -0.0285
21148W        W37282  17.254   4.304  13.956 -0.0453 -0.0397 -0.1941
21149W        W37283  14.081  11.386   1.686  0.3026 -0.2397 -0.1705
21150W        W37284  19.291   0.678   4.772 -0.0342 -0.0844 -0.0741
21151W        W37285   1.883  11.159   9.640 -0.2061  0.4620  0.0354
21152W        W37286   2.931   1.220   4.668 -0.3087  0.0847  0.0792
21153W        W37287   1.796   7.493   3.909 -0.0770 -0.0846  0.0065
21154W        W37288  16.875   6.323  14.612 -0.3836 -0.0541 -0.0273
21155W        W37289  14.301  12.254   0.804 -0.2266  0.1951 -0.0540
21156W        W37290   5.082  17.673   2.645 -0.4075  0.1751 -0.1775
21157W        W37291   3.769   8.351   3.126  0.0293  0.0774  0.0424
21158W        W37292  13.784   6.687  13.370 -0.1697 -0.0598  0.0223
21159W        W37293  13.874   1.747  14.387  0.1808 -0.2507  0.1072
21160W        W37294   8.832   5.141   0.141  0.3586 -0.1837 -0.0572
21161W        W37295   5.818   5.760  12.830 -0.1450 -0.1233  0.3255
21162W        W37296  12.122   5.127   1.662 -0.3529 -0.2069  0.2656
21163W        W37297   4.610   2.362  12.785 -0.0550 -0.0381  0.0567
21164W        W37298  10.986   1.357   1.537  0.0538  0.1261 -0.2351
21165W        W37299   2.961   4.127  12.819  0.1447  0.0601 -0.2485
21166W        W37300  18.214  16.790   3.044 -0.2938  0.0313 -0.3465
21167W        W37301  17.949   0.347   0.701  0.2580 -0.1611 -0.2876
21168W        W37302   6.056   4.456  13.933  0.0896  0.0609 -0.0903
21169W        W37303  17.626  17.673  13.074 -0.1215 -0.0166  0.0880
21170W        W37304  10.316   0.265  12.012 -0.1897  0.0672  0.3335
21171W        W37305  13.809  18.539   0.927  0.0076 -0.0485 -0.1185
21172W        W37306   7.465  11.714  14.780 -0.0083  0.1239 -0.0123
21173W        W37307   0.467   0.974   3.839 -0.0715 -0.3938 -0.0373
21174W        W37308  17.605   6.149  13.843 -0.0063 -0.0308  0.2696
21175W        W37309  11.977  14.012  10.432  0.1614 -0.2418  0.1721
21176W        W37310  12.537   1.742   1.461 -0.1897  0.0862  0.5302
21177W        W37311   4.182   7.009  11.350 -0.0551 -0.2717 -0.0730
21178W        W37312   7.851  15.151  13.285 -0.1256 -0.3175  0.2015
21179W        W37313  12.686   2.644   1.485 -0.0293  0.0091 -0.2255
21180W        W37314   7.917   8.068  12.572 -0.0613  0.2329 -0.0585
21181W        W37315   7.180  19.158   4.274 -0.2213  0.1842  0.0885
21182W        W37316  13.124   2.436   1.179  0.0537  0.2166 -0.5353
21183W        W37317  15.940  17.054  13.338 -0.1526  0.0806  0.0574
21184W        W37318   6.445  10.774  11.597 -0.2084 -0.3355  0.1222
21185W        W37319  16.492  11.111   9.182 -0.0655 -0.1612  0.1017
21186W        W37320   9.642   2.056  10.651  0.2645 -0.0708 -0.1624
21187W        W37321  11.322   7.534  11.003 -0.2554  0.0326  0.3365
21188W        W37322   5.048   9.410   4.529  0.1283  0.3764 -0.1963
21189W        W37323   3.785   1.752  13.055 -0.1976  0.1405 -0.1058
21190W        W37324   3.078  13.259   2.736  0.1202 -0.1344 -0.0376
21191W        W37325  17.464   0.644  11.883  0.0526  0.0605  0.2203
21192W        W37326  17.233   3.640  10.111  0.0658  0.2056 -0.2263
21193W        W37327   0.145   4.674  12.846  0.0956 -0.0094 -0.1209
21194W        W37328   6.018   3.429   3.708 -0.0874 -0.3034  0.0890
21195W        W37329   1.311   0.733  11.067 -0.6212  0.0290 -0.2743
21196W        W37330  15.523  14.527  11.090  0.2168  0.0986 -0.2127
21197W        W37331   8.226   7.104   2.974  0.3487  0.1338  0.1749
21198W        W37332   8.222  14.606  13.898  0.3400  0.0064  0.1070
21199W        W37333  17.649  16.723  12.670 -0.0085 -0.2606  0.4212
21200W        W37334  17.665   0.013   0.075 -0.3263 -0.0661 -0.3397
21201W        W37335  18.722   1.489  14.306  0.0530 -0.0294  0.0613
21202W        W37336  11.530  13.763  12.007  0.2983  0.0801 -0.1333
21203W        W37337  14.433  11.743  13.586  0.1812  0.1187 -0.0233
21204W        W37338  10.339  14.193   4.660  0.1437  0.2784  0.0931
21205W        W37339   2.201  15.648   0.240  0.0734  0.3168 -0.4676
21206W        W37340  11.934  15.762   1.506 -0.0913 -0.0760  0.2499
21207W        W37341  11.778   0.965   4.373  0.4099 -0.0572 -0.2448
21208W        W37342   0.689   0.086   3.527 -0.1393  0.0572 -0.2704
21209W        W37343   7.268  15.439   1.148 -0.0335 -0.0588  0.0975
21210W        W37344  15.816  10.220  11.560  0.0910  0.1668 -0.0298
21211W        W37345  18.367  10.202  13.090 -0.0758 -0.1635 -0.0316
21212W        W37346   6.148   9.447  12.285  0.3185  0.1202  0.0170
21213W        W37347   9.747  17.297   1.726  0.0878  0.0960  0.0452
21214W        W37348   6.002  17.302  10.037 -0.2394 -0.0147  0.2036
21215W        W37349   4.781   3.458  12.272 -0.0062 -0.0658  0.1779
21216W        W37350  12.444  12.224  11.624 -0.0506 -0.1876 -0.1622
21217W        W37351   5.516  18.153   0.578 -0.1904 -0.2475 -0.1183
21218W        W37352   2.910  15.140   2.544  0.0683  0.1868  0.3878
21219W        W37353   8.185  17.158   3.699 -0.1463 -0.2256  0.3505
21220W        W37354   4.923   5.236  10.270  0.0552 -0.0767  0.1399
21221W        W37355  13.042  13.929  11.513  0.0643 -0.0558 -0.0464
21222W        W37356   7.940  18.516   3.017  0.1472  0.0380 -0.0282
21223W        W37357   7.712   3.611   4.551 -0.0987  0.1870 -0.2990
21224W        W37358   7.943   5.332   4.708 -0.0295  0.2386  0.2155
21225W        W37359  17.364   7.044   4.510 -0.2173 -0.0698  0.3610
21226W        W37360   8.155  12.823   1.965  0.0013 -0.1293 -0.1022
21227W        W37361  17.915   6.724   2.482 -0.1605  0.1841 -0.0544
21228W        W37362  12.765  19.067   4.693  0.0299 -0.2337  0.0656
21229W        W37363   8.037   7.260  13.339 -0.2082  0.0675 -0.0475
21230W        W37364   8.644  18.155   1.275 -0.2626  0.1198 -0.0961
21231W        W37365   3.282  10.360   2.782  0.0306 -0.0535  0.0538
21232W        W37366  10.570  13.564  11.190  0.3501  0.0208  0.2086
21233W        W37367   6.505  16.018  13.546  0.1301  0.1784 -0.1333
21234W        W37368   7.468  19.287  14.787 -0.1853  0.0394 -0.0144
21235W        W37369  11.120  17.094   2.797 -0.2469 -0.3975 -0.1255
21236W        W37370   0.560  14.539   3.658 -0.0495  0.1671  0.2573
21237W        W37371   0.557  13.672  11.487  0.1307 -0.1275 -0.0324
21238W        W37372   8.066   8.191   3.216  0.0378 -0.0733 -0.1811
21239W        W37373   7.854   1.979  13.988 -0.0514 -0.1031 -0.1732
21240W        W37374   5.609  12.705  14.236 -0.1184 -0.0690 -0.4724
21241W        W37375   4.969   5.375  14.075  0.1290 -0.2293 -0.0884
21242W        W37376   8.139  10.256   3.381 -0.3138  0.1693 -0.0762
21243W        W37377   7.131  13.823   3.940  0.3336 -0.0973 -0.1948
21244W        W37378   2.357  15.453  13.004  0.1612  0.1920 -0.0605
21245W        W37379   4.119  12.518  13.590 -0.1288  0.1117  0.0700
21246W        W37380   5.418  15.755   3.062 -0.3225 -0.4167  0.2473
21247W        W37381  16.743  12.582  12.130  0.0419 -0.0120  0.1039
21248W        W37382   2.220   7.031   3.792  0.4919  0.0053  0.3163
21249W        W37383  18.507  17.207   1.821 -0.3963  0.2153 -0.2683
21250W        W37384   8.826   3.015  12.761 -0.0210 -0.1933 -0.1696
21251W        W37385   3.397  10.848   1.958  0.1764  0.3412 -0.1203
21252W        W37386   3.039   6.099  11.331 -0.1150  0.1471  0.1395
21253W        W37387  16.876  15.820  10.733  0.1845  0.3318  0.2655
21254W        W37388   7.124   3.826  10.214  0.0574  0.1341  0.5087
21255W        W37389  18.833   5.069   2.098  0.0588  0.2185  0.2196
21256W        W37390  12.264   1.441   0.660  0.0190  0.2477 -0.1241
21257W        W37391   9.975   3.599   4.484 -0.1019 -0.2642 -0.2959
21258W        W37392  12.055   7.533  14.502  0.0184  0.0082  0.1570
21259W        W37393   0.477   1.037  12.292 -0.1563 -0.0874 -0.0207
21260W        W37394   9.900   2.880  14.173 -0.1188  0.1633 -0.0480
21261W        W37395   5.428  15.426   0.547  0.3076 -0.1082  0.1622
21262W        W37396   6.087   9.458  14.406  0.3579 -0.0462 -0.0673
21263W        W37397  11.050   6.197   2.778 -0.1639 -0.4110  0.2897
21264W        W37398   7.599   2.561   1.558  0.1635  0.1861 -0.0433
21265W        W37399  18.927  17.653   4.830 -0.1395 -0.2001 -0.3544
21266W        W37400   4.866  15.121   5.127  0.4084 -0.2948  0.1565
21267W        W37401   2.410   5.830  10.166 -0.0595 -0.2765  0.1256
21268W        W37402  19.049  13.550  10.496  0.1894  0.3300 -0.2503
21269W        W37403   3.665  18.519  11.225  0.1445 -0.3119  0.0433
21270W        W37404  18.101   4.648  13.299 -0.0283  0.1082 -0.1262
21271W        W37405  17.702   5.743   2.710 -0.2244  0.0582 -0.0768
21272W        W37406   3.563  12.897   1.202  0.0258  0.0122 -0.1253
21273W        W37407   4.335  11.875  11.928 -0.1180 -0.0125 -0.0359
21274W        W37408   1.399   2.396  11.005  0.1856  0.1821 -0.0658
21275W        W37409   6.354  12.268   2.309  0.1072  0.0811 -0.0140
21276W        W37410  12.838   8.914   1.912 -0.0357 -0.0176  0.1006
21277W        W37411  14.040  14.451   2.546 -0.1903  0.4373  0.0543
21278W        W37412  12.850   6.723  13.652 -0.3540  0.1119  0.1349
21279W        W37413   4.738  16.431   3.144  0.0509  0.0079  0.0924
21280W        W37414  12.374   6.847  11.719 -0.0184 -0.0826  0.2634
21281W        W37415  16.632  12.685   4.585 -0.1347 -0.3336 -0.0024
21282W        W37416  18.307  10.455  11.439  0.1562 -0.3648  0.2686
21283W        W37417   7.351  15.736   3.058  0.0194 -0.0386 -0.0676
21284W        W37418   2.657   3.102   2.926 -0.4820  0.1124 -0.1075
21285W        W37419   8.470  15.031  13.302 -0.3758 -0.2542 -0.3754
21286W        W37420   8.939   2.787   1.961  0.2871 -0.0317 -0.0424
21287W        W37421  18.860   0.640  13.864 -0.2376  0.0165  0.1844
21288W        W37422   4.782  19.073   4.100  0.2627 -0.1378  0.1404
21289W        W37423  15.174  13.379   2.906  0.1613  0.1263  0.0066
21290W        W37424   2.550   2.112  14.438  0.0733  0.0337  0.0317
21291W        W37425   9.878   7.598  14.030  0.1509 -0.1937 -0.3334
21292W        W37426   6.676  10.413   3.687 -0.1631  0.0685  0.0689
21293W        W37427   7.700  18.354  12.516  0.0046  0.0929  0.1308
21294W        W37428   4.406  12.274   0.360 -0.2166  0.0716  0.1427
21295W        W37429   3.633  15.484  10.568  0.2840 -0.0221  0.3163
21296W        W37430   0.143  18.768  14.596  0.1040 -0.1077 -0.5091
21297W        W37431   1.901  16.148   4.161  0.1128  0.1560 -0.0228
21298W        W37432  11.507   5.582  12.619  0.3854 -0.1111  0.1917
21299W        W37433   7.207   9.877   2.375  0.2460 -0.0808  0.2453
21300W        W37434  15.050  13.793   2.528  0.0483  0.0711 -0.1747
21301W        W37435   1.458  15.914  13.654 -0.1955  0.1823  0.0974
21302W        W37436  16.829   0.429  10.342  0.0658  0.1097 -0.3015
21303W        W37437   9.288  12.153  13.280 -0.2558 -0.2219 -0.0050
21304W        W37438   8.959   4.190  10.696  0.1209 -0.3961  0.0561
21305W        W37439  14.562   4.583   4.475 -0.0736  0.1105 -0.2984
21306W        W37440   5.811   8.799   1.601  0.1193  0.1416  0.0064
21307W        W37441   9.578   6.846   1.504 -0.1236 -0.2170 -0.2769
21308W        W37442   4.861  15.639   5.519 -0.0096  0.0373 -0.0394
21309W        W37443  14.306  11.733  10.343  0.3585 -0.1915 -0.2055
21310W        W37444  15.127   3.993   2.287  0.0111 -0.1979  0.1545
21311W        W37445   0.758   4.579  13.615  0.0887 -0.0137 -0.1480
21312W        W37446  16.521  11.074  13.183 -0.0812  0.1287  0.1310
21313W        W37447  14.479   3.599  14.720 -0.2010  0.1146  0.3448
21314W        W37448  13.478  13.038  10.628  0.1620  0.0109 -0.4876
21315W        W37449   7.417  15.187   3.244 -0.1141  0.1033  0.1301
21316W        W37450   7.577   3.808  11.139 -0.2680  0.2611 -0.1222
21317W        W37451   6.090  14.644  12.626  0.1516 -0.2967 -0.2623
21318W        W37452   0.084   8.677  11.261  0.0042  0.0337 -0.1905
21319W        W37453   9.947   6.486  14.528 -0.0020 -0.2392  0.0519
21320W        W37454  16.960  16.360  14.115  0.2689 -0.2106  0.2263
21321W        W37455   4.786   8.622   1.226 -0.2770 -0.0456  0.2317
21322W        W37456   2.939   8.497   8.710  0.1912  0.0953 -0.0399
21323W        W37457   8.524   7.340  10.278 -0.0425  0.0786 -0.3221
21324W        W37458   3.032  13.082  14.317  0.1073 -0.1097 -0.1797
21325W        W37459  17.082   2.451  11.185 -0.2670  0.2952  0.1949
21326W        W37460  19.299  12.815   9.797 -0.1676 -0.1122 -0.2655
21327W        W37461  16.717  17.193  11.295 -0.0299 -0.2141  0.2506
21328W        W37462   5.914  13.510  11.426  0.0349 -0.1315 -0.4817
21329W        W37463  12.650  19.271   1.705  0.1220 -0.1060  0.2076
21330W        W37464  11.246   4.378  14.646 -0.0998  0.0227 -0.0620
21331W        W37465   6.329  12.752   4.808 -0.1284 -0.3333 -0.1154
21332W        W37466   8.270  18.442   0.479  0.4678 -0.1064  0.2158
21333W        W37467   5.621  14.285   0.202  0.0271  0.1267  0.0256
21334W        W37468   6.812   9.310  12.906  0.1170  0.0337  0.1482
21335W        W37469  12.219  17.313  14.407 -0.1111  0.0319 -0.1937
21336W        W37470   1.108  17.631   2.233 -0.0910  0.0674  0.1177
21337W        W37471  14.350  10.982  12.984  0.0848 -0.1754 -0.0921
21338W        W37472  14.046   7.957   1.078 -0.0646 -0.0082  0.1319
21339W        W37473  18.000  18.934   1.758 -0.0347  0.2924 -0.0542
21340W        W37474  11.596   7.491   3.456 -0.1926 -0.2172 -0.1669
21341W        W37475   5.804   7.560   0.206 -0.3191  0.0476 -0.1116
21342W        W37476  10.280   6.424   1.919  0.1864 -0.2957 -0.2567
21343W        W37477  16.298  13.127   0.442  0.2661 -0.1919  0.0506
21344W        W37478   7.541   8.023  11.638 -0.0336 -0.0462 -0.1348
21345W        W37479  17.245   4.767  13.661 -0.2060  0.0281  0.1669
21346W        W37480  18.246  12.601   2.628 -0.3485  0.0788  0.0452
21347W        W37481  11.824   6.639   0.384 -0.2111  0.2228 -0.0975
21348W        W37482  18.733  12.825  10.299 -0.0638 -0.1721  0.0986
21349W        W37483  14.231   8.933  14.289 -0.1848  0.1762  0.1559
21350W        W37484   3.627   8.624  10.555 -0.1612 -0.1340  0.1100
21351W        W37485  16.509   3.742  11.773  0.1747 -0.4411  0.1463
21352W        W37486   0.496   9.808   4.364  0.0247 -0.3151  0.1054
21353W        W37487   8.852  17.084   3.207 -0.1496 -0.1054 -0.0033
21354W        W37488   0.157   7.429  13.072 -0.1538  0.0708 -0.2085
21355W        W37489  12.641  18.291   0.485  0.4252  0.0448  0.3311
21356W        W37490   9.079  19.241   0.251 -0.3060 -0.0757  0.0124
21357W        W37491   9.160   4.040  12.606 -0.4563  0.2683 -0.1694
21358W        W37492   7.526  14.750   4.752  0.1239  0.0783 -0.0030
21359W        W37493  18.604  13.057  13.131 -0.1682  0.2552 -0.2587
21360W        W37494   2.039   4.595   2.413 -0.1964  0.2208 -0.2236
21361W        W37495  10.632  18.003   0.677  0.0509  0.0255 -0.0220
21362W        W37496   6.616  14.634   4.147 -0.0492  0.1500 -0.4270
21363W        W37497   3.882  12.194   4.801  0.1887 -0.0400  0.1527
21364W        W37498   2.967   3.265   0.275  0.2900 -0.0516 -0.0854
21365W        W37499   4.733   5.434  12.755  0.0036  0.1567  0.3739
21366W        W37500  17.511   2.502  14.186 -0.1329  0.1879 -0.3153
21367W        W37501   6.808  15.736   2.853  0.2598 -0.1290 -0.0687
21368W        W37502   5.602   9.236  13.233 -0.1028 -0.1836 -0.4151
21369W        W37503   9.755   8.790  11.618 -0.0527 -0.2837 -0.2674
21370W        W37504   0.066  15.449   4.137 -0.1807  0.1279 -0.2020
21371W        W37505  15.927  11.230   5.367 -0.2414 -0.1434  0.4116
21372W        W37506  11.072  15.818   4.875  0.3723  0.1160  0.1247
21373W        W37507   0.063   9.319   0.201 -0.2819 -0.1711  0.0317
21374W        W37508   1.817   2.636   0.491  0.1318 -0.2225 -0.3247
21375W        W37509   4.680   0.624   0.988 -0.1426 -0.3033  0.1597
21376W        W37510   9.306   5.146  13.819 -0.0113 -0.0429 -0.1559
21377W        W37511   1.735  15.651  12.422 -0.0193 -0.4309  0.1617
21378W        W37512   6.486  15.364   2.948  0.1192 -0.2051 -0.0036
21379W        W37513  12.855  12.922   1.466 -0.0492  0.0228 -0.1989
21380W        W37514   7.715   4.086  12.250 -0.0650  0.1818 -0.2260
21381W        W37515   5.468   9.953   3.990 -0.1138  0.0248 -0.0087
21382W        W37516  17.829  10.318   3.523  0.0941  0.1603  0.2166
21383W        W37517   2.516   2.946  12.084  0.0816  0.4253 -0.1640
21384W        W37518  15.203   3.019   3.579  0.2753  0.0073 -0.0675
21385W        W37519   6.675  15.562   1.815 -0.0259  0.2503  0.3200
21386W        W37520   1.500   9.623   2.718 -0.0164 -0.2323  0.0487
21387W        W37521   4.459  11.408  10.492  0.2623 -0.0386 -0.1901
21388W        W37522  15.755   9.776   3.207 -0.0566 -0.1428  0.0051
21389W        W37523  16.874   9.217  13.846  0.1972 -0.0508  0.3716
21390W        W37524   0.529   3.745   3.834  0.1564 -0.0902 -0.1633
21391W        W37525  13.298   0.375  11.114 -0.3652  0.0589 -0.1548
21392W        W37526   8.280   3.055  13.002  0.2073  0.4066 -0.1785
21393W        W37527   0.453  17.705  13.088  0.2160 -0.0227  0.2688
21394W        W37528   1.381  14.590  14.951 -0.3920  0.0095  0.1145
21395W        W37529  15.709  16.197  11.611 -0.0308 -0.2622 -0.0498
21396W        W37530   8.272   9.398  14.426  0.2452  0.0086 -0.1569
21397W        W37531  10.068   1.921  12.448  0.1815  0.3478 -0.0391
21398W        W37532   3.698  11.688   4.119 -0.2633 -0.0212  0.1302
21399W        W37533  12.560   8.130  11.504  0.2437  0.1132  0.2359
21400W        W37534   1.792  19.137   3.363  0.0129 -0.0277  0.0316
21401W        W37535  12.766   3.184   4.212  0.0099 -0.0545  0.0120
21402W        W37536  18.068   2.562   2.178 -0.0271  0.4744 -0.0304
21403W        W37537   5.728  18.531   2.640 -0.6297  0.0445 -0.1464
21404W        W37538   8.636  11.654  11.331 -0.2519 -0.0631  0.3108
21405W        W37539  14.451   8.814  13.130  0.1419 -0.0839 -0.0416
21406W        W37540  13.775   0.434  14.395 -0.1800 -0.0141  0.0162
21407W        W37541   9.559   3.842   4.496  0.0217  0.2959 -0.0915
21408W        W37542  11.792   2.794  14.395 -0.1400  0.4459  0.0412
21409W        W37543  16.543   5.266  12.617 -0.1525 -0.0647 -0.2011
21410W        W37544   2.670   9.135   0.480  0.0315 -0.1524  0.2287
21411W        W37545   6.712   3.465  13.732 -0.1639 -0.1841 -0.0272
21412W        W37546  12.753  11.741  14.293 -0.1245 -0.1285 -0.3361
21413W        W37547   0.007  10.437   2.056  0.2200 -0.1339 -0.1337
21414W        W37548   4.058   4.534   4.230  0.1111 -0.1965  0.0309
21415W        W37549   0.986  17.077   4.427 -0.2569  0.0852 -0.0543
21416W        W37550   4.448  11.811  14.372 -0.2584 -0.1015 -0.1191
21417W        W37551  12.073  18.276   1.541 -0.0129 -0.0397  0.3867
21418W        W37552  15.005   7.619  13.435 -0.0189 -0.3386 -0.1458
21419W        W37553  14.870   4.760  13.414  0.0404 -0.0766  0.0703
21420W        W37554   5.277   6.080  12.325 -0.2676 -0.1513 -0.0885
21421W        W37555  10.817   3.258  13.269 -0.2920 -0.1156 -0.0713
21422W        W37556   2.128  15.806   3.812  0.1047  0.0390  0.0642
21423W        W37557  10.910   9.729   5.139 -0.1343  0.2899 -0.0545
21424W        W37558  12.000  10.544  13.330  0.0363  0.1696 -0.2556
21425W        W37559   5.724  11.402  14.709  0.4132 -0.0334 -0.2949
21426W        W37560   1.096   1.476   2.638  0.0875 -0.1815 -0.0883
21427W        W37561  17.835   2.300   4.017  0.2517 -0.1213  0.3511
21428W        W37562   1.787  15.397  13.917  0.0816  0.0371 -0.0659
21429W        W37563  18.676   7.104  12.066 -0.2360  0.1825 -0.1769
21430W        W37564   0.763   6.542  13.020 -0.0829 -0.2477 -0.3485
21431W        W37565  15.346  17.494   4.360  0.2937  0.1216  0.1215
21432W        W37566   3.430  13.321  14.786 -0.0851  0.3197  0.4316
21433W        W37567  12.609  11.896   3.652  0.0565 -0.0646  0.0460
21434W        W37568   0.043  10.063   4.645  0.4586  0.0591 -0.1336
21435W        W37569   3.550  13.530   5.215 -0.1780 -0.0903 -0.2676
21436W        W37570   5.939  17.210   4.762  0.0759  0.0388 -0.1536
21437W        W37571   9.436   5.751   3.266 -0.2822  0.0648 -0.1753
21438W        W37572  11.120  16.797  12.840 -0.0741 -0.1636 -0.2544
21439W        W37573   8.118  13.499   5.076 -0.1098 -0.0437 -0.3524
21440W        W37574   4.696   4.867  12.199 -0.4260 -0.1659  0.1870
21441W        W37575   5.735  18.695  13.990 -0.0680 -0.1158  0.0246
21442W        W37576  15.761   5.532   2.920 -0.0818 -0.0522 -0.0521
21443W        W37577   9.100  15.416  13.156  0.0099 -0.3316 -0.1118
21444W        W37578   6.022  14.390  13.908 -0.1584 -0.0545  0.1538
21445W        W37579   1.455  10.471   4.523 -0.0608 -0.0304  0.5151
21446W        W37580  16.452   8.724   4.223  0.0358 -0.0770  0.1485
21447W        W37581   0.904  12.956   2.948  0.3712  0.0100 -0.0992
21448W        W37582   3.131  18.689   1.877 -0.2532  0.2862 -0.2758
21449W        W37583  11.484   2.834  10.288  0.0386  0.0759  0.2740
21450W        W37584  12.273  11.612  12.082 -0.1320  0.1725 -0.1652
21451W        W37585  14.675  15.188  13.425  0.1333  0.1082 -0.1743
21452W        W37586   4.951   6.322   2.921 -0.2504  0.0417  0.0540
21453W        W37587   9.488   9.344   2.603  0.0741  0.0501 -0.0119
21454W        W37588  12.671   3.069  13.121 -0.0895  0.0248  0.1292
21455W        W37589   1.717  18.160  14.596 -0.2698  0.5559  0.0114
21456W        W37590   6.968  19.178  11.065  0.0765 -0.1978  0.3574
21457W        W37591  11.452  12.490  11.171 -0.1141 -0.0235  0.0616
21458W        W37592   1.738  16.875   2.333  0.0270  0.2380 -0.1198
21459W        W37593   9.010   0.479   1.547  0.1395  0.2175  0.0750
21460W        W37594   2.821   0.605   2.098 -0.0231 -0.0730 -0.3841
21461W        W37595   3.604   8.713  14.271 -0.1531 -0.0578 -0.0264
21462W        W37596   4.487  16.608   2.374  0.1738  0.0111  0.1758
21463W        W37597   2.919  15.257   1.022  0.0702  0.0951  0.0734
21464W        W37598  15.893  18.691   4.220 -0.3226 -0.0800  0.0728
21465W        W37599   4.429  16.153  10.489  0.0517 -0.2443 -0.2653
21466W        W37600   4.310   2.105   9.820  0.5802 -0.0721  0.2552
21467W        W37601   5.098  14.450   1.155  0.0085 -0.1080 -0.1651
21468W        W37602  12.147  11.114   4.618  0.2160 -0.0824 -0.1334
21469W        W37603   1.862  11.621  14.638 -0.2070  0.1530 -0.1476
21470W        W37604   8.872  10.355  13.298  0.0784 -0.1460 -0.0891
21471W        W37605   4.070   7.283  11.937 -0.0080 -0.2919 -0.1241
21472W        W37606   8.422   0.906   3.239 -0.0654  0.3518  0.1190
21473W        W37607  11.245   5.945   3.629  0.2359  0.0874 -0.0726
21474W        W37608  11.883   7.958   1.669 -0.1641 -0.1296 -0.1297
21475W        W37609   7.855   6.242  11.380 -0.1787 -0.0649  0.1515
21476W        W37610   7.058  15.595  13.290 -0.0603  0.1123  0.0507
21477W        W37611  17.868   8.579   9.778  0.0561 -0.0891 -0.4127
21478W        W37612  18.224   1.230  14.339  0.1493 -0.2244  0.1371
21479W        W37613  18.390   8.840  12.590  0.0910  0.1508  0.1762
21480W        W37614   3.635  17.718   3.565 -0.0052  0.0249 -0.2538
21481W        W37615   1.370  10.405  13.749 -0.2727  0.3632 -0.2642
21482W        W37616  18.154  17.870   1.004 -0.2943  0.0299  0.0116
21483W        W37617   2.681  14.796   0.133 -0.1616 -0.0730  0.2192
21484W        W37618  13.891   8.928   9.863 -0.0338  0.4227 -0.1699
21485W        W37619   8.157   1.630   3.141 -0.2009  0.0686 -0.1306
21486W        W37620   5.913   3.991  14.322 -0.0396  0.0505 -0.3558
21487W        W37621  10.187   4.934  13.142 -0.1780  0.0701  0.2194
21488W        W37622  11.864  17.291   5.138 -0.2330 -0.1050 -0.0729
21489W        W37623   4.777   1.617  13.158 -0.2081  0.1408 -0.0766
21490W        W37624  15.388   9.169   1.141  0.1060  0.4679 -0.2345
21491W        W37625  14.271  19.235   3.235  0.1159 -0.1764 -0.0285
21492W        W37626  13.776   4.893  14.168  0.2174  0.0810 -0.1720
21493W        W37627  11.740   5.128   3.451 -0.3393  0.1213  0.1429
21494W        W37628   5.662   9.218   0.405  0.1678  0.1692 -0.0669
21495W        W37629  13.448  16.367  14.227 -0.2658  0.2833  0.1771
21496W        W37630  18.833   7.299  11.498  0.1278  0.0635  0.2094
21497W        W37631  10.593   6.204   0.705 -0.0232  0.0891  0.3089
21498W        W37632  11.026   4.919  12.624 -0.0239  0.0406 -0.0754
21499W        W37633  12.982   6.078  14.363 -0.1798 -0.0144  0.0360
21500W        W37634   1.558   8.662  12.882  0.1545  0.2519 -0.1132
21501W        W37635  13.418  12.900   1.222 -0.1127 -0.0606 -0.2636
21502W        W37636  17.701   7.671   2.973 -0.2369 -0.1350  0.0817
21503W        W37637   8.767   9.396  13.125 -0.1443  0.3799  0.2406
21504W        W37638   4.795   3.146   3.861  0.0171 -0.0437 -0.3295
21505W        W37639  11.709  10.348   5.274  0.0123  0.1835  0.0181
21506W        W37640  15.043  10.839   2.815  0.0744 -0.0588  0.0153
21507W        W37641  15.013  18.376   5.336 -0.0579  0.0924 -0.4844
21508W        W37642  13.996   1.411   2.357 -0.1678 -0.0412  0.1088
21509W        W37643  11.613  14.052  14.003  0.5450  0.2910 -0.1421
21510W        W37644  16.090  14.736  10.606  0.3405  0.0127  0.1654
21511W        W37645   2.233   3.309   4.416  0.3197  0.2447  0.2704
21512W        W37646   7.842   6.311  14.892 -0.0928 -0.1063  0.0044
21513W        W37647   3.755   0.639   3.044 -0.0448  0.2344  0.0502
21514W        W37648   2.367  11.917   2.404  0.0079  0.3160 -0.2500
21515W        W37649  17.642   8.932   5.128  0.2650  0.1371  0.6108
21516W        W37650   4.528   5.465   2.886 -0.3112  0.0206  0.2063
21517W        W37651   9.486   3.820  10.507  0.2223 -0.1345 -0.2863
21518W        W37652   0.625   6.220   1.188  0.0180  0.2048 -0.4811
21519W        W37653   8.688   3.534   1.437 -0.0868 -0.2424  0.2911
21520W        W37654  17.474  15.224  12.686  0.2864 -0.1711  0.1102
21521W        W37655   6.021   8.256   5.219 -0.1181 -0.0044  0.2453
21522W        W37656  19.161   7.564   2.683  0.2450  0.1064  0.0656
21523W        W37657   0.931   5.757   4.042  0.0965  0.0314 -0.4099
21524W        W37658  18.051  17.041  12.948 -0.0918 -0.6022 -0.1013
21525W        W37659  16.663  16.426   3.521 -0.1575  0.1781  0.2620
21526W        W37660   8.378  17.552  12.517  0.2026 -0.0680  0.0165
21527W        W37661   4.396  15.706  14.397 -0.3046 -0.0713  0.2609
21528W        W37662   3.549  15.765  11.368 -0.5648 -0.0787  0.0589
21529W        W37663   5.093  17.215   3.531 -0.2473  0.1061  0.4762
21530W        W37664   9.577  18.756   3.794  0.0262  0.0998  0.1126
21531W        W37665  14.348  16.650   2.928 -0.2419 -0.1347 -0.1161
21532W        W37666   2.781  19.280  12.342  0.0759 -0.2668  0.2284
21533W        W37667  18.278   6.587   0.084  0.4386 -0.0362  0.0053
21534W        W37668  14.217   6.517  12.583  0.1912  0.0009  0.0613
21535W        W37669  11.104  18.192   9.934 -0.1858  0.1405  0.0835
21536W        W37670  12.720  16.864   4.715  0.2284  0.0407 -0.0481
21537W        W37671  13.305   2.835  10.960 -0.3679 -0.2257  0.1737
21538W        W37672   5.970   6.104   3.096 -0.1140 -0.1147  0.0019
21539W        W37673  17.343   0.184  13.093 -0.1995 -0.2030  0.0233
21540W        W37674   9.838   0.437  13.977  0.0874 -0.1771 -0.1161
21541W        W37675   8.541   3.297  10.305  0.0393  0.1428  0.0272
21542W        W37676   2.593   4.819   3.294 -0.0418 -0.1706  0.3328
21543W        W37677  16.681   1.088   2.121 -0.2191  0.1961 -0.2016
21544W        W37678   7.987  11.051   4.071  0.0644 -0.0791  0.2076
21545W        W37679   1.265  10.534   1.784 -0.0923 -0.0240 -0.1565
21546W        W37680   3.238   1.842  14.069 -0.0918  0.1809  0.0615
21547W        W37681  18.166   3.319   0.728 -0.0864 -0.1925 -0.4621
21548W        W37682   2.101   0.730  12.376  0.1112 -0.0944  0.1247
21549W        W37683   1.990   0.196  13.784 -0.0372 -0.1144  0.2194
21550W        W37684   6.506  12.182   1.006 -0.2308  0.1253 -0.0345
21551W        W37685   3.105   1.633  13.647 -0.0664 -0.2797 -0.1276
21552W        W37686   7.019   6.958   0.147  0.1076 -0.1769 -0.2410
21553W        W37687  13.959  16.636   2.489  0.0608  0.1016  0.0594
21554W        W37688   6.976  14.203   4.252  0.1807 -0.1730  0.0376
21555W        W37689  16.510   1.378   1.292  0.0990 -0.0868  0.1030
21556W        W37690   7.412  14.000  11.454 -0.1403  0.5066 -0.2031
21557W        W37691  15.153  17.045   4.468  0.0698  0.1233  0.1352
21558W        W37692   2.059  11.144  14.834 -0.3747 -0.3789 -0.0479
21559W        W37693  15.060  11.032   5.296  0.2184  0.1825  0.3144
21560W        W37694   6.466  12.450   4.163 -0.0319  0.0354 -0.1082
21561W        W37695   6.495   9.810  13.078  0.0731 -0.4546  0.1899
21562W        W37696   7.123   9.074   0.369 -0.1795 -0.5643  0.0208
21563W        W37697   6.334   7.178   4.512 -0.0466  0.0888  0.2452
21564W        W37698  14.751   7.544  13.870  0.0428 -0.1688 -0.2941
21565W        W37699  12.160  18.286   3.653  0.2224  0.0409 -0.6782
21566W        W37700  13.431   9.493   3.099  0.5126 -0.0931  0.1455
21567W        W37701  10.034   3.009   1.297 -0.2589 -0.0064  0.1845
21568W        W37702  14.733   8.218  14.625  0.1002 -0.0167 -0.0947
21569W        W37703   5.886  11.272  11.659 -0.0302  0.0493  0.1223
21570W        W37704   2.975   3.745  10.086  0.0637 -0.0132  0.3064
21571W        W37705   9.484   9.160  12.440 -0.1359 -0.2162  0.2592
21572W        W37706   2.414   8.276  11.451 -0.0165  0.1433  0.1135
21573W        W37707  12.159  11.040  13.477  0.0122  0.3352  0.0356
21574W        W37708   5.874   1.959   2.062  0.2510  0.1387 -0.1041
21575W        W37709   5.475   6.604   2.269 -0.0100 -0.1666 -0.0081
21576W        W37710  13.681   0.432  11.974 -0.0259 -0.0572 -0.0848
21577W        W37711   3.900  17.815   1.856 -0.0049  0.2516  0.1190
21578W        W37712   0.782   5.393  14.622  0.0665  0.5090  0.2010
21579W        W37713  10.573  16.475  13.839  0.0593 -0.0924  0.0659
21580W        W37714  17.208   7.364   0.187 -0.0669  0.1919 -0.0449
21581W        W37715   1.670  18.626   0.139 -0.1582  0.1622  0.2366
21582W        W37716  12.046   9.365   3.809 -0.1580 -0.0016 -0.1341
21583W        W37717  17.542  11.931  10.430  0.2612 -0.2483  0.1278
21584W        W37718   6.048  15.987   0.104  0.0609 -0.2144 -0.2011
21585W        W37719   7.255  19.045   0.889 -0.2926 -0.1101  0.1013
21586W        W37720   3.663  19.249   0.349  0.0332  0.2552 -0.1224
21587W        W37721  14.368  10.782  12.472  0.1819  0.1980 -0.3004
21588W        W37722  13.778   8.374   4.830 -0.4908  0.1723 -0.0221
21589W        W37723   0.149   9.686  10.815  0.0398 -0.0649 -0.1935
21590W        W37724   9.362  17.840  14.790 -0.1994  0.3672 -0.0325
21591W        W37725  16.279   9.745   0.479 -0.1279 -0.0531 -0.2281
21592W        W37726  18.311   4.513   4.308 -0.0482  0.0745  0.1144
21593W        W37727  17.671   4.936   4.850 -0.1417 -0.1827  0.0724
21594W        W37728   3.695  18.929   1.829  0.0405 -0.2458 -0.1506
21595W        W37729   5.508  14.268   3.041 -0.1439 -0.1627 -0.1944
21596W        W37730  14.330   5.626   1.766  0.0495  0.1978 -0.0287
21597W        W37731   2.711  17.607  13.763 -0.0596  0.0028  0.3118
21598W        W37732   0.449   3.055   9.708  0.1385  0.1098  0.1056
21599W        W37733  13.294   5.214   1.474  0.1038  0.2765  0.0815
21600W        W37734   2.245  14.727  12.114 -0.0219 -0.4144  0.2494
21601W        W37735  15.085  16.813   9.795 -0.0847  0.2340 -0.0690
21602W        W37736   4.461   5.612  13.418  0.0543 -0.1745 -0.2090
21603W        W37737   6.323  18.884   5.322  0.2558  0.1111  0.0755
21604W        W37738   2.697   9.294   2.937 -0.1568 -0.3444  0.0031
21605W        W37739   8.535  18.520  13.937 -0.0319  0.1965  0.0154
21606W        W37740   5.003   8.589  12.738  0.2336  0.0848  0.1406
21607W        W37741  16.654  16.227   2.057 -0.2301  0.0646 -0.2326
21608W        W37742   1.375  15.109  14.750 -0.2412  0.1323 -0.4737
21609W        W37743  15.445   5.032   0.884 -0.0480 -0.0288 -0.0667
21610W        W37744   6.429   1.603   3.568  0.0332  0.0717 -0.1801
21611W        W37745  14.660  14.623   5.274 -0.2119 -0.1173  0.2766
21612W        W37746  15.017  16.907  12.995 -0.0374  0.0637 -0.2447
21613W        W37747   9.748   5.414   3.084 -0.2059 -0.0116  0.1418
21614W        W37748  12.615   2.384   0.702  0.0242  0.0802  0.1342
21615W        W37749  13.365   6.239  12.517 -0.0002 -0.1871  0.1702
21616W        W37750  17.590  12.203  10.904 -0.1388  0.1461 -0.1218
21617W        W37751   0.936  18.943   3.738 -0.0045 -0.0545  0.0554
21618W        W37752   6.325   0.533   2.768  0.0412 -0.1245 -0.0422
21619W        W37753   0.805  14.112  14.315 -0.2247  0.1972 -0.0709
21620W        W37754  13.980   4.452  11.979  0.1221 -0.2765 -0.1029
21621W        W37755  17.774   1.873  14.601 -0.1984  0.2805 -0.0827
21622W        W37756   1.633  13.838   2.873  0.0964 -0.0678 -0.0216
21623W        W37757   4.984  16.394   9.759 -0.2709 -0.4396 -0.1923
21624W        W37758   5.733  12.233   0.917 -0.1642  0.0109  0.3301
21625W        W37759   0.062  12.235  11.827  0.0267  0.0581  0.2436
21626W        W37760  12.580   3.142   1.702 -0.1002 -0.1500 -0.1107
21627W        W37761  15.873   9.197   3.257  0.0352  0.0230  0.4477
21628W        W37762  19.018   3.233   2.237  0.2299 -0.1130 -0.1904
21629W        W37763   6.851  10.177   2.125  0.1748 -0.1625 -0.0704
21630W        W37764   9.709  11.229   4.859 -0.0340  0.0077 -0.2015
21631W        W37765   4.479   3.037   0.297 -0.1549 -0.2246  0.0784
21632W        W37766   5.265   8.197  14.419  0.0282 -0.0408 -0.2992
21633W        W37767   0.396  16.272  10.711 -0.0493 -0.1314 -0.0711
21634W        W37768  19.196   9.375   4.977  0.0524  0.1822 -0.0845
21635W        W37769   9.832  11.356   3.414 -0.3618  0.0567 -0.0866
21636W        W37770   1.858   9.530   2.219  0.1727  0.1272 -0.0128
21637W        W37771  13.184  18.628   2.211 -0.2330  0.0089  0.1845
21638W        W37772   5.333  16.507  11.125  0.0608  0.2274  0.1941
21639W        W37773  17.151   6.099   3.337 -0.0770  0.0353 -0.2086
21640W        W37774   7.501  15.395  14.484  0.0962 -0.0089 -0.1382
21641W        W37775   3.130   6.375  12.156 -0.1134 -0.0136  0.1494
21642W        W37776  18.526   1.907  11.839  0.2421  0.0245  0.0329
21643W        W37777  18.123  14.118   3.571  0.2913  0.3437  0.2797
21644W        W37778   7.608  15.384   0.356  0.1137 -0.0951 -0.1614
21645W        W37779  12.623   5.586   3.380  0.3326  0.0884 -0.3513
21646W        W37780   3.282  10.718  10.723 -0.0697 -0.1387 -0.0071
21647W        W37781  13.628  14.140   4.153 -0.3687  0.1454 -0.1968
21648W        W37782   9.667  12.525  10.812 -0.2569 -0.1707 -0.1195
21649W        W37783   1.579   1.890   0.571 -0.0585 -0.0082 -0.1753
21650W        W37784   6.813   7.477   0.844  0.3309 -0.0965 -0.0369
21651W        W37785  10.628   0.675  11.169 -0.1946  0.1416  0.1073
21652W        W37786   1.349   9.934   3.198 -0.0211  0.1914 -0.1609
21653W        W37787  17.966  17.415   4.205 -0.1655 -0.2332  0.1116
21654W        W37788   3.297   4.393   3.847 -0.0598  0.2009 -0.1941
21655W        W37789   6.957   3.863  12.822  0.2238 -0.0380  0.0075
21656W        W37790  17.243   1.676  14.088  0.1451 -0.1176 -0.1182
21657W        W37791  14.030  11.941  11.172  0.0265 -0.0934 -0.2521
21658W        W37792  14.616   6.154   1.118  0.0427  0.0882 -0.2844
21659W        W37793  16.243  15.668  13.187 -0.6334 -0.1250 -0.0489
21660W        W37794   9.044  16.988  11.376  0.0658  0.1698 -0.0134
21661W        W37795   0.938   3.572  14.431 -0.1234  0.0198 -0.1132
21662W        W37796  11.335   3.581   2.671  0.0200  0.2701  0.0232
21663W        W37797   6.881   1.911  11.467  0.2127 -0.2212  0.0801
21664W        W37798  14.944  10.486   2.341 -0.0353 -0.0548  0.1262
21665W        W37799  15.235   0.793   1.404 -0.1100 -0.2596 -0.1790
21666W        W37800   2.295   7.979   4.535  0.1507 -0.0214  0.0958
21667W        W37801  10.084  12.538   9.844  0.1381 -0.0659  0.2285
21668W        W37802  18.337   5.649   4.510  0.2191  0.3064  0.1444
21669W        W37803   9.604   6.813  13.250  0.2603 -0.2983 -0.0340
21670W        W37804  16.655   2.186   3.006 -0.4324  0.1301 -0.0780
21671W        W37805  15.852   6.563  11.333 -0.1599  0.1745  0.1813
21672W        W37806  16.975   6.128  13.034  0.5133 -0.1404  0.0887
21673W        W37807  13.994   1.716   3.140  0.0375 -0.0799 -0.0110
21674W        W37808   8.456  17.982  12.268 -0.1087  0.0110 -0.2759
21675W        W37809   0.230  13.922   0.986 -0.1976 -0.3124 -0.2657
21676W        W37810  12.611   9.323   4.541  0.0005  0.2387 -0.2763
21677W        W37811  16.811   9.170  12.036 -0.0187  0.0640 -0.0518
21678W        W37812  10.984  13.049   3.021 -0.0583 -0.1763  0.0274
21679W        W37813   0.639   3.598  14.068  0.1082  0.1942 -0.1921
21680W        W37814   6.550  17.161   4.390  0.1983 -0.2626 -0.0171
21681W        W37815  18.068   1.295  13.886  0.0094  0.5490  0.0011
21682W        W37816  18.780  11.097  13.051 -0.2393 -0.2765  0.1372
21683W        W37817  16.996   8.586  11.766 -0.4088  0.1046  0.0084
21684W        W37818   1.623   0.525   3.041  0.1271 -0.1343  0.1818
21685W        W37819  13.137  17.441  13.948 -0.1656  0.2208 -0.0161
21686W        W37820  12.594   4.637   3.666 -0.0378 -0.1730  0.4643
21687W        W37821  14.176   2.263  13.090  0.0397  0.0813 -0.1179
21688W        W37822  12.089  14.051   3.962  0.1123  0.1240 -0.1103
21689W        W37823   9.531   6.840   4.837  0.3596  0.2323 -0.2623
21690W        W37824  18.345  10.733   3.189  0.4777 -0.1036 -0.1451
21691W        W37825   4.439  17.847  14.755  0.0329 -0.0897 -0.2119
21692W        W37826   8.820   2.394   0.509  0.0705 -0.0514 -0.2313
21693W        W37827   8.762   7.939   0.385 -0.0723  0.0346 -0.0268
21694W        W37828  18.371  13.126   3.283 -0.0109  0.1843  0.3573
21695W        W37829   8.297  14.853   4.172 -0.1882 -0.0261  0.0503
21696W        W37830  18.565   3.488   0.392  0.1375 -0.0096 -0.2793
21697W        W37831  18.390  11.676  12.422 -0.1222 -0.0178 -0.1579
21698W        W37832  17.531   0.626   0.807  0.1558  0.0949 -0.0407
21699W        W37833   5.607  17.033   4.357  0.2940  0.1729  0.1329
21700W        W37834  13.347  13.494  14.147 -0.2397  0.0058 -0.0424
21701W        W37835   6.298  15.701  12.700 -0.5103 -0.1515  0.0257
21702W        W37836  14.379  16.973  11.072  0.0591 -0.1512 -0.1710
21703W        W37837   2.189  13.271   1.073 -0.1533  0.0365  0.2872
21704W        W37838   9.109   3.309   1.593 -0.1460 -0.1080 -0.3030
21705W        W37839  14.044  10.075   1.242 -0.0842  0.3552 -0.1127
21706W        W37840  16.436  12.173   3.993 -0.2944 -0.0426 -0.1488
21707W        W37841  16.315   4.995   1.150 -0.0001 -0.2677 -0.2218
21708W        W37842   6.591  15.237   5.972  0.2474 -0.0521  0.1237
21709W        W37843  15.629  17.690  10.787  0.0413 -0.1348  0.1139
21710W        W37844  19.281   6.461  13.433  0.0585 -0.1580  0.1980
21711W        W37845  17.084  10.128  13.422 -0.0559 -0.0887 -0.0032
21712W        W37846  16.659   1.918  12.947  0.1437  0.1680 -0.2810
21713W        W37847  11.088  15.193   2.674 -0.1737  0.0223  0.0959
21714W        W37848  18.511  15.177   1.425 -0.3567 -0.1646  0.0903
21715W        W37849  18.339   7.595  10.300 -0.2806 -0.2181 -0.2072
21716W        W37850   4.455   3.979  10.318  0.2696  0.1846 -0.2505
21717W        W37851   7.970  17.604   3.849 -0.1284  0.1889  0.0315
21718W        W37852  14.576   1.089   1.099 -0.2515 -0.0899 -0.0064
21719W        W37853   5.271   4.869   3.495 -0.1221  0.0368 -0.1374
21720W        W37854  14.124  13.445   0.072 -0.0540 -0.2156 -0.1837
21721W        W37855  10.673   8.921  11.549 -0.1871 -0.0537 -0.0742
21722W        W37856  15.731  17.395   3.613 -0.1300  0.0221 -0.1842
21723W        W37857   9.711   7.546  12.890  0.0854  0.3095 -0.1763
21724W        W37858   4.044  10.289   1.648 -0.2370 -0.1161 -0.0313
21725W        W37859  12.644   3.240   2.395 -0.0356  0.3126  0.1635
21726W        W37860  18.447  17.758   2.793  0.0708 -0.0787  0.0455
21727W        W37861  10.505   8.750  14.836 -0.0611 -0.2436 -0.1957
21728W        W37862   7.438   4.254   5.037  0.1415 -0.0354 -0.1241
21729W        W37863  15.310  19.315  13.786  0.0889 -0.1623  0.1771
21730W        W37864  19.314   2.935  10.530  0.0700  0.0666  0.0450
21731W        W37865   9.781  17.510  12.570  0.2220 -0.1178  0.1194
21732W        W37866   3.880   2.488  11.890 -0.1827  0.0562  0.0894
21733W        W37867   7.615  15.479   4.139  0.0852  0.2516 -0.1528
21734W        W37868   4.466  13.180   4.876  0.0815  0.2683 -0.2022
21735W        W37869  12.122   2.243  13.017 -0.0732  0.1151  0.2831
21736W        W37870   6.565  12.946   3.209  0.0266  0.0033 -0.0266
21737W        W37871   4.709   3.980   3.133  0.3544  0.1362 -0.0025
21738W        W37872  14.814   2.369   1.786 -0.0664  0.1125  0.1172
21739W        W37873  19.014  16.320   1.117 -0.1294  0.0191  0.1739
21740W        W37874   4.960  12.275  13.877  0.4635  0.1481 -0.3424
21741W        W37875   2.896  15.951  11.385 -0.0299  0.0456 -0.1374
21742W        W37876  18.840   7.839  13.825 -0.1330 -0.0488 -0.4113
21743W        W37877   2.734  17.551  11.326  0.2811 -0.1758 -0.0400
21744W        W37878   9.015  15.177   4.219 -0.4064  0.2526  0.2551
21745W        W37879  10.539   8.084   2.613 -0.0227  0.5729  0.0273
21746W        W37880  15.894  14.252  10.888  0.0990 -0.3544  0.3225
21747W        W37881   2.097   8.179   2.159  0.2335  0.2866  0.1816
21748W        W37882   1.374   4.594  14.817 -0.2374  0.0081 -0.2441
21749W        W37883  15.223   7.483   2.515 -0.1848 -0.0375  0.0909
21750W        W37884   4.791   3.216   0.722 -0.0536  0.1000 -0.1109
21751W        W37885   3.419  11.776   3.387  0.0482 -0.0137 -0.1405
21752W        W37886   0.127  17.272   0.858  0.0233  0.2023  0.3030
21753W        W37887   9.723   7.283   1.924 -0.2815 -0.2567 -0.0395
21754W        W37888  11.185  15.738  12.046 -0.0489  0.1916 -0.1180
21755W        W37889  17.308  14.833   9.203 -0.2103  0.0081  0.1188
21756W        W37890   8.149   1.551  14.190 -0.2649  0.0196 -0.1389
21757W        W37891  17.763  15.639   0.032  0.0707 -0.4197  0.0692
21758W        W37892   4.340   8.466  11.377  0.0115 -0.1562  0.1969
21759W        W37893   6.843  12.669  10.822 -0.1570  0.1722 -0.1415
21760W        W37894   8.002  15.890   3.024  0.0764 -0.0243 -0.2174
21761W        W37895   1.053   1.083  13.253  0.1591  0.1609 -0.2660
21762W        W37896   4.545  14.281   4.169 -0.0581 -0.1987  0.0139
21763W        W37897   7.170   2.892   1.593 -0.2056 -0.0522  0.0437
21764W        W37898   1.876   8.163  12.862  0.0094 -0.2044  0.1099
21765W        W37899  13.447  17.594   3.647 -0.1843  0.0729  0.1151
21766W        W37900   1.674   4.350  12.595  0.1656 -0.2607  0.1133
21767W        W37901  13.455   5.596   3.714  0.0257 -0.0083 -0.6308
21768W        W37902   0.986   5.281   1.620 -0.1714  0.1807  0.3007
21769W        W37903  15.369   2.117   0.509  0.0592 -0.0684 -0.3911
21770W        W37904  16.068   2.984  14.625 -0.2113  0.0059 -0.0940
21771W        W37905   4.039  14.851  12.202 -0.2034 -0.0760  0.0878
21772W        W37906   3.207  14.946   3.377 -0.2251 -0.1299 -0.0576
21773W        W37907  10.075  18.813  12.436  0.0003 -0.2129 -0.1018
21774W        W37908   7.965  13.216  10.088 -0.0564 -0.1486 -0.4106
21775W        W37909  10.044  16.617   2.250  0.3290 -0.1104  0.1211
21776W        W37910  13.011   8.864   2.517  0.0358  0.1597 -0.1861
21777W        W37911  10.537  11.841   3.828 -0.0240  0.0843  0.0349
21778W        W37912  17.083   0.707  13.071  0.1428  0.2757 -0.3631
21779W        W37913  10.748   0.670   3.765 -0.0049 -0.1253 -0.1482
21780W        W37914  16.237   4.482   0.122 -0.3102  0.1059  0.0619
21781W        W37915  18.268  17.462   1.317 -0.3297  0.1115 -0.1269
21782W        W37916   9.206   0.958   0.498 -0.1602  0.0133 -0.4759
21783W        W37917   9.712  10.407  14.917  0.2909 -0.1696  0.2021
21784W        W37918   3.923  11.563   4.706  0.0499  0.3461  0.3403
21785W        W37919  13.003  19.219  14.429 -0.0501  0.1892 -0.1517
21786W        W37920  18.116   0.382   4.964  0.0476  0.0653 -0.0148
21787W        W37921   1.545   6.664  11.493 -0.1321  0.2275  0.3050
21788W        W37922   7.712  17.042   0.739 -0.2886 -0.1313  0.2374
21789W        W37923  13.153  15.791   0.239 -0.0938 -0.0640  0.0209
21790W        W37924  14.209  17.843  13.947 -0.1496  0.5084 -0.0760
21791W        W37925  18.794  10.634  14.246  0.0387  0.2229 -0.3848
21792W        W37926   2.209   2.640  10.715  0.0137 -0.0528  0.3568
21793W        W37927  15.999   5.544   1.629 -0.1013  0.3885  0.4005
21794W        W37928   2.657   7.420   1.809 -0.1994  0.1136 -0.0650
21795W        W37929   1.032  16.771   0.464  0.0938  0.0251  0.2649
21796W        W37930   5.255  18.056   2.138 -0.0387 -0.0085 -0.0073
21797W        W37931   1.940  13.904   4.425  0.2748  0.0794  0.2477
21798W        W37932   9.167  13.714  13.574 -0.1806 -0.0122 -0.2392
21799W        W37933  11.415   1.586  11.574 -0.0368  0.0908  0.0616
21800W        W37934  17.173   6.490   3.046 -0.2246  0.0674 -0.2669
21801W        W37935  15.631  12.928  11.317 -0.1497  0.1173  0.2743
21802W        W37936  17.896  13.363  11.807  0.0250 -0.0739 -0.2043
21803W        W37937   5.495   4.719  14.616  0.3914  0.1870  0.0646
21804W        W37938   4.919   4.283   3.703  0.0011 -0.0717 -0.3046
21805W        W37939  18.981  17.077  14.174 -0.2944  0.0448  0.0545
21806W        W37940   1.302  10.661   0.963 -0.0322  0.1080 -0.0916
21807W        W37941  16.429  13.373   2.273 -0.2271  0.1280 -0.0566
21808W        W37942   7.213  15.368  11.369 -0.0824  0.1427 -0.1187
21809W        W37943   4.995   8.218  13.657  0.1149 -0.0292 -0.1674
21810W        W37944   4.527  12.852   3.303 -0.3745  0.0539  0.1770
21811W        W37945  13.760   6.121   0.710  0.2318 -0.2694 -0.1044
21812W        W37946   7.652  10.528   4.896 -0.0531  0.0181  0.1226
21813W        W37947  13.875   7.689   2.524 -0.0372 -0.0337 -0.4652
21814W        W37948  17.716   6.557  12.795 -0.0371 -0.2369 -0.1111
21815W        W37949   3.075  12.302   2.675  0.2170  0.1020 -0.0448
21816W        W37950   1.915  12.605   5.076  0.0798 -0.0151 -0.1215
21817W        W37951   8.223   8.349  14.168 -0.0265 -0.1179  0.1949
21818W        W37952   8.714  14.916   3.830  0.0976 -0.0341 -0.0674
21819W        W37953  19.234   8.619  12.900  0.1011  0.0604 -0.2473
21820W        W37954   9.910   1.061   0.752 -0.1084  0.0321  0.0857
21821W        W37955  15.129  13.059  12.780 -0.3194 -0.0868 -0.0187
21822W        W37956  11.310  10.971   2.569 -0.0229 -0.2013  0.1215
21823W        W37957  17.228  12.911  11.364 -0.2059  0.0443 -0.0593
21824W        W37958  11.420   0.285  14.874  0.0265 -0.1308  0.1333
21825W        W37959   5.127   7.962   4.741  0.2197 -0.0039  0.2673
21826W        W37960   9.347  13.296  13.857 -0.3320 -0.0778  0.2387
21827W        W37961   7.986  18.150   2.024 -0.0660  0.0536  0.0650
21828W        W37962  11.421  19.009  14.759  0.1207  0.4029 -0.0397
21829W        W37963   7.349   4.429  14.151  0.0258  0.1152  0.0901
21830W        W37964  15.052  11.814   2.607  0.0668  0.0435  0.2298
21831W        W37965  18.124   2.970  11.407 -0.0601  0.1142 -0.2684
21832W        W37966  19.220  10.987   3.702 -0.0421  0.1340  0.0637
21833W        W37967   1.871   2.737   3.049  0.2296 -0.0412 -0.2571
21834W        W37968   8.238   1.362   2.660 -0.0928 -0.0765  0.1660
21835W        W37969   8.195  18.982  11.771 -0.0386  0.0282  0.0645
21836W        W37970   5.798  10.450  12.138  0.1285 -0.0372 -0.1237
21837W        W37971  13.509   7.894   2.835  0.0811  0.2776 -0.2567
21838W        W37972  15.292  17.295   3.205 -0.4450  0.1235  0.2625
21839W        W37973   7.620  14.644  14.852  0.2060 -0.1453 -0.1065
21840W        W37974   6.142   0.272  10.847 -0.1844 -0.0137  0.1708
21841W        W37975  17.257   5.149  10.772  0.0045  0.0808 -0.3045
21842W        W37976   4.482   1.750  13.819 -0.2328 -0.0767 -0.0562
21843W        W37977   0.560   1.262  13.117  0.0976 -0.0539  0.0052
21844W        W37978   2.946  10.297  11.231  0.1431 -0.0362  0.2749
21845W        W37979   5.796   4.812   2.797  0.1130  0.0723  0.0544
21846W        W37980   5.144   7.422   3.791  0.1812 -0.0245 -0.0938
21847W        W37981   0.575  16.821   1.062 -0.0147  0.0256 -0.1830
21848W        W37982  11.792   3.077   4.045 -0.0583  0.0872 -0.1264
21849W        W37983  13.464   5.200  11.329 -0.2649  0.1587 -0.6494
21850W        W37984  12.855   5.518  13.476  0.0074 -0.1227  0.0826
21851W        W37985   0.098   3.421  11.439 -0.0284  0.2430 -0.1767
21852W        W37986   3.019   4.083   4.781 -0.0690 -0.1676  0.1757
21853W        W37987  10.654   0.730   0.966  0.1720 -0.1599  0.0829
21854W        W37988  10.212  16.320  14.851 -0.2090  0.0007 -0.0398
21855W        W37989   6.475  15.016  13.470  0.0515  0.1421 -0.2852
21856W        W37990   6.892   6.695   5.117 -0.5787  0.4331 -0.1368
21857W        W37991  10.361   1.254   1.531 -0.0545  0.0738 -0.1207
21858W        W37992  15.659  13.322  14.269  0.0552 -0.0037  0.1803
21859W        W37993   1.242   8.053   2.567  0.2609 -0.1119  0.3601
21860W        W37994   1.642   6.391   0.291 -0.1101  0.2803 -0.1062
21861W        W37995  16.395   8.650  10.497  0.1578 -0.2159 -0.1148
21862W        W37996  15.874  14.873   3.018 -0.2898 -0.0659  0.0866
21863W        W37997  10.367   9.226  12.718 -0.0098  0.1818  0.0226
21864W        W37998  10.574   3.810  12.665  0.0114  0.2642 -0.0487
21865W        W37999  13.117   7.251   2.378  0.1496 -0.0101 -0.0946
21866W        W38000  18.720   3.252   1.827  0.0797  0.3228 -0.0564
21867W        W38001   3.662   0.874   4.451 -0.3414  0.2274 -0.3264
21868W        W38002   4.964  11.707  14.516 -0.2069  0.2570  0.3589
21869W        W38003  15.908   3.301   0.407 -0.1771 -0.5012 -0.0001
21870W        W38004   9.417  17.287  12.891  0.2830  0.0136  0.0012
21871W        W38005  17.804   2.911   1.987 -0.2245 -0.1438  0.0022
21872W        W38006  10.956   5.857   1.853 -0.0097  0.0213  0.0663
21873W        W38007  12.123  17.854   0.183  0.1317  0.2199  0.2154
21874W        W38008  18.454   3.135   1.089 -0.0219 -0.0548  0.1128
21875W        W38009  14.418  14.050   3.360  0.0288  0.1072 -0.1394
21876W        W38010   7.786   6.254   4.930  0.1672 -0.0870 -0.1620
21877W        W38011  11.929   5.334   3.028  0.0232 -0.3326 -0.0051
21878W        W38012  14.562   1.418  11.252  0.2576 -0.2607 -0.1206
21879W        W38013   6.377   4.379   0.588 -0.2040  0.0011  0.2471
21880W        W38014   8.888   6.271  10.469  0.1150  0.0814  0.0912
21881W        W38015  12.807  18.339  12.522  0.0864 -0.2498  0.2559
21882W        W38016   2.308   4.512  14.129  0.2690  0.2584  0.3216
21883W        W38017   3.402   8.136   3.409 -0.1461 -0.1964 -0.0085
21884W        W38018  10.712   6.610   9.729 -0.1235  0.0194 -0.3479
21885W        W38019  11.547  10.455   3.483 -0.0657  0.0809  0.1149
21886W        W38020  12.735   3.338   4.682 -0.1305  0.1027 -0.2703
21887W        W38021   4.027   7.770  11.949 -0.0962  0.6214  0.0832
21888W        W38022  13.743   8.495   2.243  0.0921 -0.0473 -0.0158
21889W        W38023   3.789   1.109   3.084  0.1118  0.0109 -0.0085
21890W        W38024   7.426  12.808   1.685 -0.1397  0.0795  0.5116
21891W        W38025   8.965   3.013  10.346  0.2839  0.0846 -0.0245
21892W        W38026   4.143   9.310  13.442 -0.1480 -0.3693  0.0164
21893W        W38027   1.628   3.595  14.479  0.1554 -0.2853 -0.0153
21894W        W38028  16.621   5.850   2.041  0.1508 -0.0257  0.3762
21895W        W38029  17.018   5.687  11.850  0.2744  0.0047 -0.0274
21896W        W38030   0.089   3.837   9.958 -0.0196  0.0217 -0.1426
21897W        W38031   5.091  11.643  11.620 -0.1598  0.0670 -0.2508
21898W        W38032  10.054   2.668   3.740  0.2251  0.3195 -0.0616
21899W        W38033   8.511   3.111   4.749  0.0431  0.1374  0.0087
21900W        W38034  15.557   5.959   2.319  0.0994  0.1073 -0.1884
21901W        W38035   3.812  10.044   4.644  0.3334 -0.2263 -0.0069
21902W        W38036   3.161   5.342  13.117 -0.2210 -0.0450 -0.1663
21903W        W38037  14.104  17.064   3.331  0.3841 -0.1934  0.1921
21904W        W38038  11.149   9.286  11.537  0.1015  0.2802 -0.2176
21905W        W38039  17.073   4.999   9.337  0.1152  0.1530 -0.2179
21906W        W38040   3.221   9.390  12.479 -0.0703  0.1273 -0.2407
21907W        W38041   3.305  16.886   2.571 -0.0115  0.2981 -0.1248
21908W        W38042  17.283   8.344   9.045  0.0401  0.1075  0.0455
21909W        W38043   4.074   3.286   9.850  0.1049 -0.4362  0.0813
21910W        W38044  10.711   9.222   0.799 -0.1560  0.1843 -0.0374
21911W        W38045   3.194  16.972  10.831 -0.1483  0.2376 -0.0820
21912W        W38046   4.432  15.966  13.949  0.0308  0.1679 -0.0256
21913W        W38047  10.112   2.282  12.074  0.3172  0.0424 -0.0719
21914W        W38048   4.449   7.677   4.349 -0.0514 -0.2555 -0.0101
21915W        W38049  16.549  11.296   3.570 -0.1812 -0.1305  0.1980
21916W        W38050  14.991  18.386  11.306 -0.4092  0.5450 -0.2159
21917W        W38051   8.921   3.148   3.757 -0.1091  0.1025  0.3680
21918W        W38052  11.602   3.005  12.675 -0.3053 -0.3580 -0.2652
21919W        W38053  10.822   8.507   3.382  0.2237 -0.3178 -0.3851
21920W        W38054  13.699   3.296  12.192  0.1416  0.0208  0.2945
21921W        W38055  10.857   7.092  12.941 -0.4132 -0.4960  0.3592
21922W        W38056   3.677  19.258  12.373  0.0702 -0.0221 -0.0080
21923W        W38057   0.280  18.993  10.651 -0.2539 -0.2944  0.1581
21924W        W38058   4.244  17.749  10.927  0.2608  0.2301  0.0058
21925W        W38059   0.738  12.347   5.271 -0.1390  0.2965 -0.2081
21926W        W38060   7.925  17.461   5.347  0.1591 -0.0216  0.1210
21927W        W38061   1.153   0.745   3.197  0.1886  0.1561 -0.0968
21928W        W38062   5.984  13.309   3.902 -0.1640 -0.0272 -0.0566
21929W        W38063  14.136   4.310  11.429  0.3846 -0.1922  0.0812
21930W        W38064   9.243  17.123  11.836 -0.0035 -0.0021 -0.1269
21931W        W38065  17.252  18.297   0.922 -0.0303  0.0426 -0.1205
21932W        W38066  15.859  18.473  13.082 -0.0211  0.1860 -0.1483
21933W        W38067   3.028  17.868   2.906 -0.0520 -0.1888  0.0679
21934W        W38068  14.695  15.621   1.603  0.0824 -0.0984  0.4850
21935W        W38069   5.241   6.952  13.433  0.1223  0.2643 -0.0564
21936W        W38070  14.134   7.935   0.420  0.0069 -0.1284 -0.1647
21937W        W38071   8.322   2.212   3.172 -0.0431 -0.0154  0.3170
21938W        W38072  14.964   9.642   9.699  0.0571  0.1432 -0.1446
21939W        W38073   8.326   0.214  10.047 -0.1196  0.0834  0.1077
21940W        W38074   8.065  18.957  13.452 -0.1801 -0.0681  0.1482
21941W        W38075   2.293   0.604   4.527  0.2145  0.0623 -0.1740
21942W        W38076   1.655   9.347   1.397  0.0056 -0.0695 -0.1879
21943W        W38077   8.327   1.693   4.419 -0.2830 -0.0257 -0.0581
21944W        W38078   2.316  18.211   3.349  0.0267  0.1245 -0.0379
21945W        W38079  11.982  12.616   2.702 -0.3429  0.0776  0.2412
21946W        W38080  13.563  14.298   5.300  0.0659 -0.3060 -0.0938
21947W        W38081   1.919  11.642   3.666  0.2161 -0.1132 -0.1328
21948W        W38082  16.384  16.497  10.522 -0.1319  0.2111  0.2095
21949W        W38083  14.523  16.404  11.270  0.2087 -0.5461 -0.1810
21950W        W38084  18.177   7.952  11.831 -0.0140 -0.0740 -0.0174
21951W        W38085  10.888   1.302   2.637 -0.3263 -0.3424  0.0811
21952W        W38086  11.123   1.282  13.836  0.0609 -0.0277 -0.2653
21953W        W38087  15.426   9.755   9.427 -0.0178  0.0861  0.4948
21954W        W38088   1.672  10.268  14.496 -0.3094 -0.0210 -0.1588
21955W        W38089  15.682   8.730   3.105 -0.0540 -0.2411  0.0177
21956W        W38090  15.378   6.654   0.010  0.1311 -0.1664  0.1102
21957W        W38091  10.238  11.141  13.007 -0.0476  0.0017  0.2470
21958W        W38092   4.294   5.321  11.257  0.1364 -0.3972  0.0226
21959W        W38093  16.347   7.055   3.862 -0.1189 -0.1506 -0.2348
21960W        W38094   7.950  13.611   4.137 -0.1006 -0.1309  0.0761
21961W        W38095   0.297   5.345  14.367 -0.0434 -0.0585  0.1175
21962W        W38096   3.397  18.173  11.504 -0.1853  0.0331 -0.1902
21963W        W38097   6.116  14.878  12.214 -0.2308  0.3738  0.0438
21964W        W38098   5.031  16.261   3.986 -0.1968  0.0048  0.3124
21965W        W38099   9.736  18.715   4.293 -0.1557  0.0919  0.0109
21966W        W38100   8.976   1.526  14.091 -0.0964 -0.0765 -0.0341
21967W        W38101  18.604   8.601   9.776  0.0632 -0.0159  0.3390
21968W        W38102   0.813   6.955  14.880  0.2429  0.0641  0.0090
21969W        W38103  13.088   5.848  12.661  0.0579  0.0726 -0.2568
21970W        W38104  10.997   6.303  11.343  0.0802 -0.0347  0.1197
21971W        W38105  11.582  15.720   0.616  0.0463 -0.1460  0.0534
21972W        W38106  16.107  16.398  11.445 -0.2274  0.3093 -0.0161
21973W        W38107  12.329  10.776  12.878  0.0368 -0.1958 -0.0129
21974W        W38108  17.143  14.906   0.186 -0.1752 -0.0418  0.0574
21975W        W38109   1.782   9.911  10.956  0.0299  0.0694 -0.0665
21976W        W38110   8.068  12.176   1.652 -0.0070 -0.0104 -0.0815
21977W        W38111  19.041  13.933   1.066 -0.0239 -0.0219 -0.1270
21978W        W38112  16.118   8.811   3.407  0.2848 -0.2117 -0.2220
21979W        W38113  15.576  16.667   0.534  0.1348  0.1077  0.0251
21980W        W38114  15.796   8.560  10.043  0.0278  0.1278  0.1696
21981W        W38115   7.074  15.272   2.079  0.1161 -0.1521 -0.0946
21982W        W38116  14.343   7.327  13.885  0.0216  0.1669  0.0809
21983W        W38117  13.404  11.952   2.493 -0.2176 -0.2427  0.0806
21984W        W38118   3.923   1.646   3.741 -0.5357  0.2806  0.1562
21985W        W38119  14.011   2.620  12.762 -0.0961 -0.0183 -0.1280
21986W        W38120   6.157   6.293   4.139 -0.1895 -0.2876  0.4774
21987W        W38121   1.914   0.765   1.981  0.2139 -0.0129  0.2781
21988W        W38122   3.526  19.252  14.814 -0.4345  0.3827  0.1048
21989W        W38123  11.671   8.603  12.948  0.3524  0.2161  0.0337
21990W        W38124   1.797  12.149  13.789  0.2154 -0.0660  0.1550
21991W        W38125   3.544   1.587  14.387  0.2765  0.1576 -0.2249
21992W        W38126  18.463  16.263  11.511 -0.4477 -0.2302  0.0558
21993W        W38127  15.536  19.117   3.990 -0.2251  0.0593  0.0125
21994W        W38128   3.860   8.503   0.047 -0.1013 -0.0998 -0.3585
21995W        W38129  15.970   5.202  10.518  0.1142 -0.1967 -0.3572
21996W        W38130  19.026  12.801   2.625 -0.1037  0.2088  0.2882
21997W        W38131  10.712   4.643   0.505  0.2923 -0.1297  0.0202
21998W        W38132  12.397   0.775   2.805  0.2071 -0.2165  0.0799
21999W        W38133  14.499  18.209  14.089  0.0617 -0.1757  0.4788
22000W        W38134   0.307  13.404   9.089  0.1024 -0.0108  0.0677
22001W        W38135   0.120  11.845   0.582  0.0585 -0.3856  0.0579
22002W        W38136  12.907  18.139   4.917  0.3486 -0.1133 -0.0569
22003W        W38137   0.232   6.137   4.693  0.1295 -0.4278  0.0126
22004W        W38138   5.041   7.603  10.357  0.1388 -0.0027 -0.3056
22005W        W38139   1.581   3.892  12.529  0.0669  0.2860 -0.0586
22006W        W38140   9.927   7.487  14.721  0.1120 -0.0870  0.0428
22007W        W38141   3.010  14.391   1.395  0.2652 -0.0469 -0.2479
22008W        W38142   9.889  16.212   0.511  0.0980 -0.0568  0.0368
22009W        W38143   5.430  17.185   3.942 -0.4160  0.1124  0.5485
22010W        W38144   6.593   4.786   1.049  0.1927  0.1950  0.0308
22011W        W38145  15.513   5.168  10.747  0.2984 -0.2880 -0.0294
22012W        W38146  13.967   5.355  12.454  0.1894 -0.2096  0.0272
22013W        W38147   3.537  10.716  11.742 -0.0566  0.4547 -0.0115
22014W        W38148  14.348  10.765   4.894  0.0967 -0.0025  0.0848
22015W        W38149   3.996  17.938   3.876 -0.0498 -0.3266  0.1438
22016W        W38150   3.375   9.797  11.888 -0.2015  0.0712 -0.3199
22017W        W38151  12.278  14.567   0.145  0.0337 -0.0115  0.3671
22018W        W38152   4.094  19.107   2.021 -0.0628 -0.1059  0.3142
22019W        W38153   2.931  19.035  11.663 -0.0971 -0.1193 -0.1841
22020W        W38154   4.638  15.796  13.255 -0.0235 -0.0480 -0.1202
22021W        W38155  12.332   2.278   4.878 -0.1306 -0.1011 -0.1834
22022W        W38156  14.797   9.155  14.780  0.0758 -0.0805 -0.0903
22023W        W38157  15.488  13.877  11.741  0.0033  0.3266 -0.2977
22024W        W38158   3.327  15.101   1.809 -0.2482 -0.0046 -0.0299
22025W        W38159   8.066   5.926  12.043 -0.1017  0.1770  0.2075
22026W        W38160  18.979   9.147   5.402  0.0329 -0.1395 -0.1569
22027W        W38161  14.472  15.165  12.837 -0.1166 -0.2068  0.5142
22028W        W38162   0.090  13.529  12.283  0.1461 -0.3274 -0.0339
22029W        W38163   5.244   7.695  14.323 -0.0457 -0.2214  0.0800
22030W        W38164  14.602  16.875   3.788  0.3402  0.0548 -0.1838
22031W        W38165  17.080  14.476   2.905  0.1688 -0.1336 -0.0312
22032W        W38166  10.349  17.431  12.919  0.3732 -0.0797  0.1594
22033W        W38167   4.044  18.633   2.038  0.1523  0.4632 -0.1942
22034W        W38168  16.915   9.517  12.421  0.1833  0.2447 -0.3108
22035W        W38169   8.136   2.504   0.425 -0.1186 -0.2763  0.0015
22036W        W38170   1.039  16.106   4.831 -0.0313  0.1342 -0.0938
22037W        W38171  11.735   6.741   1.138 -0.1195 -0.0621 -0.0898
22038W        W38172   1.653   3.117  10.498  0.2095 -0.1424 -0.1484
22039W        W38173  18.903  10.290   1.130  0.2010 -0.0554  0.0343
22040W        W38174  17.236  12.345  13.190 -0.3938 -0.3862  0.3209
22041W        W38175   7.646  18.175   1.077  0.0335  0.0543 -0.3138
22042W        W38176   4.637   9.455   4.288  0.1171 -0.0784  0.1598
22043W        W38177  15.108  10.899  13.585  0.0479  0.1466  0.0803
22044W        W38178   5.003   7.047  11.843 -0.1134  0.1058 -0.3315
22045W        W38179  18.936   9.089   2.152 -0.0748  0.0632  0.0237
22046W        W38180   0.698   0.560  11.474  0.1312 -0.0750 -0.2490
22047W        W38181  10.121  12.693   4.170 -0.1327  0.2682  0.5709
22048W        W38182  12.339   5.221   9.854 -0.0975  0.2826  0.1744
22049W        W38183   0.108   5.887  11.822 -0.2507 -0.0838  0.1309
22050W        W38184   3.005   0.336   5.099  0.0693  0.0186 -0.0389
22051W        W38185   3.099   6.140   3.933 -0.1113  0.3903 -0.2070
22052W        W38186  16.076  13.226   1.374 -0.0151  0.0584  0.3189
22053W        W38187  16.112   5.491   4.808  0.1103 -0.0104 -0.1871
22054W        W38188  11.218   8.399  10.898  0.0353  0.1288  0.3176
22055W        W38189   6.522  11.078  13.920 -0.1166  0.0734  0.0374
22056W        W38190  18.557  14.253  13.863 -0.2083 -0.3543 -0.3354
22057W        W38191   8.216  15.593  11.608 -0.3790  0.2877 -0.0817
22058W        W38192  12.203   6.720   0.978  0.3026  0.0247 -0.1800
22059W        W38193  16.090   5.778  10.683 -0.0964 -0.2930 -0.1474
22060W        W38194   0.867   8.762   2.769  0.2273 -0.1932 -0.2117
22061W        W38195   5.878  17.084  12.546  0.1477 -0.1097 -0.3030
22062W        W38196  10.018   0.844   4.861  0.4295 -0.3579  0.0001
22063W        W38197   0.068  18.136  12.535 -0.0125 -0.1683  0.1311
22064W        W38198   5.367  11.644   2.948 -0.1288 -0.0135 -0.3913
22065W        W38199  13.529  12.968  11.749  0.2415 -0.0005  0.1245
22066W        W38200   4.701   8.921  11.554 -0.1176  0.1735 -0.1297
22067W        W38201   5.576  10.989  13.106 -0.1536 -0.1250 -0.1634
22068W        W38202   3.392  12.486  12.153 -0.2048  0.0100  0.1941
22069W        W38203  15.674   3.800  11.223 -0.1245  0.0648  0.2529
22070W        W38204  12.707   0.483   2.569 -0.0807  0.0558 -0.1763
22071W        W38205  10.652   9.686   4.663  0.0409  0.1537 -0.0827
22072W        W38206   6.782  14.592   1.429  0.0715  0.0040  0.1796
22073W        W38207   1.336   5.638   1.170  0.0688 -0.1900  0.1095
22074W        W38208  12.620  10.608   0.015  0.1657  0.1106  0.3723
22075W        W38209  17.641  15.057   3.607  0.1566 -0.0076 -0.0254
22076W        W38210  14.183   8.623  11.742 -0.0383  0.3099  0.0225
22077W        W38211  16.934  13.250   2.446  0.0162 -0.0552  0.3685
22078W        W38212  18.119  13.636  12.662  0.1628  0.1345  0.0387
22079W        W38213   7.873   0.792   0.121 -0.3465 -0.1071 -0.5108
22080W        W38214  17.302   3.589   1.719  0.0230 -0.0959 -0.0131
22081W        W38215  13.290  16.085  11.416 -0.4067 -0.0011  0.1557
22082W        W38216   0.082   0.740   5.229  0.1824  0.4549 -0.0038
22083W        W38217   6.315   0.925  10.686 -0.3481 -0.2245  0.0037
22084W        W38218   6.955   8.928  13.260  0.0563  0.1774  0.2808
22085W        W38219  18.612   9.399   2.840 -0.2013 -0.0774  0.2963
22086W        W38220  11.757   4.337   1.973 -0.0702  0.0653  0.0432
22087W        W38221  17.821  11.235   0.208 -0.0253 -0.1064 -0.1684
22088W        W38222  16.397   1.806   4.274  0.1965  0.0177  0.0899
22089W        W38223  17.649  11.949   3.136  0.1377  0.1670 -0.0304
22090W        W38224   6.368  18.212   3.211 -0.1641 -0.0418  0.0138
22091W        W38225  17.002  19.240   2.941  0.0300  0.1117 -0.1682
22092W        W38226  14.923   5.567  12.267  0.1246 -0.0534  0.2233
22093W        W38227  10.640   4.240   4.114  0.0239 -0.2423  0.2579
22094W        W38228   2.727  17.163  10.504  0.4365  0.4399  0.0503
22095W        W38229   2.090  10.018   0.964 -0.2275  0.0131  0.1170
22096W        W38230  10.776   9.521   3.050  0.2148 -0.5110  0.3392
22097W        W38231  18.442   9.566   1.362  0.2197  0.4367 -0.0451
22098W        W38232  19.201  11.804  11.797  0.2959  0.2173 -0.4248
22099W        W38233  12.316   8.103  10.693  0.2749 -0.0039  0.5431
22100W        W38234   9.069  11.349   2.549  0.3156  0.0215  0.1193
22101W        W38235  18.281  18.410   0.873 -0.1606 -0.1211  0.0766
22102W        W38236  10.646  15.155   0.380  0.0556  0.1985  0.0657
22103W        W38237  12.760  13.771   4.641 -0.0612  0.2346  0.1048
22104W        W38238  16.200  11.218  12.154 -0.0460 -0.3516 -0.1284
22105W        W38239   8.078  14.176  13.001  0.2570  0.0153 -0.0959
22106W        W38240  16.072   3.435   3.089 -0.0819 -0.0915  0.0761
22107W        W38241   9.505   7.285   2.798 -0.0967 -0.0743  0.1888
22108W        W38242   6.117   0.231  11.789  0.0097  0.0115 -0.2345
22109W        W38243   9.494   8.912   3.489 -0.0570  0.0803 -0.0418
22110W        W38244   5.202   9.514  13.409 -0.0786 -0.3936  0.0250
22111W        W38245   4.615   3.796  14.974  0.1288  0.1397 -0.3072
22112W        W38246  17.000  14.455   5.410 -0.3146  0.4969  0.0506
22113W        W38247  18.018   7.439  14.086 -0.1060 -0.1020 -0.3911
22114W        W38248  12.045   0.165   4.874 -0.0428 -0.0475  0.1130
22115W        W38249   1.172  15.620   2.277  0.1113 -0.0609  0.0523
22116W        W38250   9.663   0.064   1.058  0.1315  0.0205  0.0746
22117W        W38251  11.774  17.983  14.703  0.0467  0.1242 -0.1507
22118W        W38252  15.507  11.954  14.426  0.1493 -0.2022 -0.0505
22119W        W38253  18.714  15.773   2.585  0.2554 -0.3573 -0.1831
22120W        W38254   3.177   4.008   2.802 -0.0015  0.2480  0.1159
22121W        W38255  18.394  15.060  12.066 -0.0765  0.1868  0.0874
22122W        W38256   9.867   3.715  11.988  0.0665  0.0170 -0.0206
22123W        W38257   3.505   8.710   3.355  0.1058 -0.2398  0.0071
22124W        W38258  16.493   1.337   4.881  0.1097  0.0132 -0.1434
22125W        W38259  18.524   0.549  10.806 -0.2682 -0.1158 -0.2881
22126W        W38260   2.740  13.571   4.659 -0.0572  0.0007  0.0688
22127W        W38261  15.963   4.339  11.124  0.0868  0.2902  0.3412
22128W        W38262  15.973  13.398   3.817  0.1424 -0.0946  0.0397
22129W        W38263  16.035  10.859  12.569  0.0136  0.0337 -0.3712
22130W        W38264  14.626   1.365   4.763  0.0099 -0.0499  0.0765
22131W        W38265  15.854  11.043  14.125  0.4879  0.1098  0.0272
22132W        W38266  18.422  17.188  11.205 -0.2221 -0.1801 -0.1781
22133W        W38267   9.768  17.090  14.270 -0.1601  0.1886 -0.1333
22134W        W38268  13.913  18.847  14.662 -0.0822 -0.3173 -0.1123
22135W        W38269   2.106   9.010  12.361  0.2355  0.0421  0.2156
22136W        W38270  18.551  19.005   1.527  0.1564  0.0422 -0.3233
22137W        W38271  12.340   2.631   1.172 -0.0712 -0.2346  0.0061
22138W        W38272   5.762  14.512   3.713 -0.1782 -0.1446 -0.0836
22139W        W38273  11.433  10.838   3.046 -0.3390 -0.1113  0.0809
22140W        W38274  16.288  18.189   2.036  0.1605 -0.1499 -0.0449
22141W        W38275  15.899  11.828  14.730  0.3475  0.1344 -0.2067
22142W        W38276   3.880  14.088   0.395 -0.1612 -0.0487 -0.2424
22143W        W38277   0.138   1.544   2.986  0.2989 -0.0152 -0.4105
22144W        W38278  16.961  10.414   1.903 -0.0201  0.2271  0.3967
22145W        W38279  15.246  16.570  14.511  0.0627 -0.0070  0.2458
22146W        W38280   7.610   3.586   0.411 -0.0528 -0.4807 -0.0325
22147W        W38281   4.093   2.751  11.519  0.1367 -0.0311  0.0660
22148W        W38282  16.199  10.664  14.244 -0.1903 -0.3257 -0.0100
22149W        W38283  16.492   6.374  12.206  0.0401 -0.2942 -0.1319
22150W        W38284  17.795   8.178  11.632 -0.0652  0.3072 -0.0471
22151W        W38285  11.711   1.180   0.967 -0.0589 -0.3922  0.0984
22152W        W38286  15.780   7.772  11.572  0.2056  0.1196 -0.2417
22153W        W38287   0.195   0.991   0.653  0.0180 -0.1141 -0.0112
22154W        W38288   3.254   6.718   2.483 -0.1893  0.0682 -0.2670
22155W        W38289  17.834  18.803   0.164 -0.0510  0.1565  0.2964
22156W        W38290  18.527   0.995   3.580 -0.1809 -0.4124  0.2152
22157W        W38291  17.233   1.874   2.025 -0.4026  0.1414  0.1283
22158W        W38292  18.007  19.220  10.534 -0.1314 -0.1127  0.2065
22159W        W38293  13.496  11.703   5.019  0.1044 -0.1180  0.0550
22160W        W38294   5.892   9.738  10.864  0.1095 -0.1927  0.1751
22161W        W38295   7.330   2.809   2.996  0.0672 -0.1370  0.1199
22162W        W38296  13.758  12.165   0.703 -0.4347  0.3883 -0.2272
22163W        W38297  18.202  11.298   2.560  0.0403  0.0009 -0.0488
22164W        W38298  18.739  14.497  12.731  0.2250  0.0729 -0.3884
22165W        W38299  17.800   1.687  13.684  0.4456  0.2153  0.4453
22166W        W38300  13.219   2.893  13.106 -0.0791  0.0973 -0.0532
22167W        W38301   8.819  13.055  14.750  0.4299  0.0501  0.0573
22168W        W38302   2.574   4.947  10.018 -0.0093 -0.2470  0.0179
22169W        W38303  10.266   0.908   5.323 -0.0299  0.0732 -0.0364
22170W        W38304  16.443  12.454  12.951 -0.1122 -0.3823 -0.1879
22171W        W38305   8.202  17.029   5.303  0.2837  0.1342  0.1018
22172W        W38306   2.861  19.038   2.429  0.0151 -0.2277 -0.0145
22173W        W38307  12.750  13.630  14.185  0.2098 -0.1238 -0.3427
22174W        W38308   8.171  12.030   4.040  0.1044 -0.2221  0.0129
22175W        W38309   5.279   8.088  10.725 -0.0051 -0.2681  0.2920
22176W        W38310  16.158  11.171  10.513  0.2451 -0.2140 -0.1078
22177W        W38311  11.308  15.394   0.935  0.2152  0.2006  0.0939
22178W        W38312   5.221  18.271  13.082  0.0329  0.0165 -0.1390
22179W        W38313  19.086  14.187  13.891  0.1112  0.2814 -0.1551
22180W        W38314  14.172  14.173   4.223 -0.0064 -0.1230  0.1613
22181W        W38315  13.655  18.099  11.966 -0.0549 -0.0585  0.0105
22182W        W38316   7.983   8.723   1.534 -0.2726  0.3507 -0.3130
22183W        W38317  17.588  12.678   2.017  0.1324 -0.3282 -0.1197
22184W        W38318  12.506  18.250   1.817  0.0060 -0.3073 -0.2096
22185W        W38319  16.270  15.356  14.706 -0.3423  0.4452  0.1662
22186W        W38320  14.128   7.108  11.336 -0.0758  0.3142 -0.1441
22187W        W38321   7.671  13.296  11.814  0.1060 -0.2009  0.2877
22188W        W38322   2.008   9.631   2.671 -0.0428  0.1650  0.2433
22189W        W38323  11.054  10.068   0.642  0.2419  0.2173 -0.1255
22190W        W38324  15.039  19.125   0.047 -0.1430 -0.0875 -0.1728
22191W        W38325   7.271   7.797   1.503  0.1108  0.1179 -0.3240
22192W        W38326  10.873  17.510   0.356  0.2491 -0.1552  0.1212
22193W        W38327  17.507   3.274  13.401 -0.0805 -0.2523 -0.0663
22194W        W38328  10.534  14.449  14.356  0.1360  0.1017  0.1594
22195W        W38329   2.978  11.889   9.884 -0.0546 -0.1871 -0.0488
22196W        W38330  15.794   7.953  12.154  0.0636  0.3108 -0.0594
22197W        W38331  18.842   5.398  10.807  0.0298  0.0324  0.2971
22198W        W38332   4.345   0.716  10.476  0.3635 -0.1196 -0.0333
22199W        W38333  18.677   6.842  14.891  0.0849  0.0454  0.0966
22200W        W38334   7.222   0.611   4.747 -0.0850 -0.0354  0.1516
22201W        W38335   1.450  11.993  12.713 -0.0171  0.2295 -0.0524
22202W        W38336   8.387   9.776  12.116  0.3100 -0.0961  0.0838
22203W        W38337   4.335  11.771   2.462 -0.1463  0.0187  0.3054
22204W        W38338  13.949  13.378   3.712  0.2032 -0.2042  0.0702
22205W        W38339   4.271   3.922  14.599 -0.1099  0.3129  0.0052
22206W        W38340  17.171   8.018  11.843 -0.2714  0.1812  0.3691
22207W        W38341  17.621   9.906  13.605 -0.3271  0.0790 -0.3862
22208W        W38342   4.787  10.119  11.925 -0.2559  0.1102  0.0497
22209W        W38343  16.569   2.348  13.607 -0.0527 -0.1054 -0.2430
22210W        W38344   0.314  13.297   0.798  0.1265  0.1286  0.1956
22211W        W38345  10.096   2.428  11.181 -0.3570 -0.2607 -0.0870
22212W        W38346  17.268  12.011  11.773  0.3045 -0.0469  0.0226
22213W        W38347   2.133   8.000  14.104  0.0739  0.4902 -0.0242
22214W        W38348  11.025  11.367  12.252 -0.1917  0.0166 -0.1447
22215W        W38349   3.226  11.667  14.001 -0.3482  0.0900 -0.2050
22216W        W38350  15.917   8.876  12.059  0.0279  0.0095  0.0700
22217W        W38351   7.172   2.760  13.107 -0.0326 -0.2210 -0.1313
22218W        W38352   7.517   3.955   2.716  0.0410  0.2099 -0.2044
22219W        W38353  16.883   7.147   4.468  0.2988  0.0844 -0.3670
22220W        W38354   0.510   4.091  14.590 -0.3100  0.2254 -0.2586
22221W        W38355   6.238   9.229   9.329  0.3189  0.1120 -0.1045
22222W        W38356  17.329  10.479  11.579  0.0240  0.1853  0.1528
22223W        W38357   1.616   5.819  13.850  0.4718  0.4723 -0.1416
22224W        W38358   3.004  14.981  11.629 -0.1881 -0.2787  0.0305
22225W        W38359   7.555  18.173  10.496 -0.2715  0.1935  0.0759
22226W        W38360   4.627  16.896  14.579 -0.0203 -0.0103  0.0410
22227W        W38361  11.185   7.899  11.355 -0.2113 -0.1753  0.0708
22228W        W38362   3.928  17.030  13.825  0.0114 -0.0226 -0.2603
22229W        W38363  10.812   0.346  11.788  0.2417 -0.0936 -0.2629
22230W        W38364  10.863   6.454   1.228 -0.0526  0.1122 -0.0242
22231W        W38365   9.028   0.210  13.557 -0.2307  0.4258 -0.1811
22232W        W38366   8.019   8.066   2.338 -0.0450 -0.0637 -0.0957
22233W        W38367   0.372   1.311   2.025  0.0755  0.0122 -0.1357
22234W        W38368   7.445  15.895   3.901 -0.0027 -0.1020 -0.0623
22235W        W38369  18.841   1.011  11.332  0.2988 -0.2408 -0.3097
22236W        W38370  12.074   4.951  14.133 -0.1713  0.0974  0.0023
22237W        W38371   3.045  10.660  11.554 -0.1888 -0.0137 -0.1678
22238W        W38372   0.960   6.087  14.329 -0.0815 -0.2596  0.1379
22239W        W38373   4.529   7.142   3.312  0.3245 -0.1013  0.2541
22240W        W38374  11.674   7.534   0.668 -0.5935 -0.1061 -0.0828
22241W        W38375  11.732   8.737  14.787  0.1404 -0.0326 -0.0082
22242W        W38376  16.694   5.748   5.435  0.3504  0.2848  0.2196
22243W        W38377   1.268   0.892  13.802 -0.2033  0.1093 -0.3160
22244W        W38378  16.305   9.563   3.753 -0.3046  0.0028 -0.1582
22245W        W38379  10.089   1.538   3.440 -0.1277 -0.2484 -0.0942
22246W        W38380   5.262  10.559   3.804 -0.1539 -0.0486 -0.1557
22247W        W38381   8.615   9.785   3.762 -0.0252  0.0700  0.0177
22248W        W38382   6.461   8.626   0.029  0.0428  0.1047  0.0708
22249W        W38383   4.902  14.470   4.526 -0.2717  0.2111 -0.2801
22250W        W38384   6.749   5.552  13.402  0.2249 -0.0119  0.3220
22251W        W38385  10.394  13.412  13.699  0.0396  0.0499  0.0006
22252W        W38386   1.462   8.694   3.203  0.0623 -0.0364  0.0947
22253W        W38387  16.471  10.057  13.255 -0.2294  0.0038 -0.2451
22254W        W38388  14.213  12.816  11.495  0.0916  0.2610 -0.0397
22255W        W38389  10.337   8.542  14.308 -0.1907  0.0172 -0.1143
22256W        W38390  13.684   3.995  11.732  0.1447 -0.0084 -0.0707
22257W        W38391  13.068   0.779   2.248  0.0687 -0.3133  0.1250
22258W        W38392  11.013   9.541   2.007  0.1151  0.5453 -0.1106
22259W        W38393   3.550   3.815   2.109  0.0116 -0.0754  0.2719
22260W        W38394   9.908   1.201  11.715  0.1727  0.1475 -0.1338
22261W        W38395   4.008   8.982  14.789 -0.0894 -0.0203  0.2260
22262W        W38396  14.088  15.529   5.377  0.1567 -0.0765 -0.1162
22263W        W38397  16.725  11.721   4.167  0.1907 -0.1480  0.0783
22264W        W38398  17.499  17.068  13.889 -0.0168  0.0684  0.0403
22265W        W38399   4.554  14.480   3.160 -0.4589 -0.0838 -0.2701
22266W        W38400   0.490  16.865  12.682  0.0366 -0.0006  0.1938
22267W        W38401   4.367  17.798   2.891  0.1041  0.0651  0.1849
22268W        W38402  14.347  16.222   0.652  0.0837  0.1670 -0.1680
22269W        W38403   7.594  17.789   2.066 -0.1954  0.1494  0.0052
22270W        W38404   6.351   3.708   3.949 -0.1665  0.0706 -0.0679
22271W        W38405   6.029  14.815   4.069 -0.1060 -0.0153  0.0102
22272W        W38406   3.389   5.874   1.530  0.1083 -0.1940  0.1426
22273W        W38407   8.513   7.693  10.628 -0.2247 -0.1824 -0.2103
22274W        W38408   8.670  10.970   9.172  0.2477 -0.0623  0.3027
22275W        W38409  10.691  16.287  14.642  0.2236 -0.0143  0.0227
22276W        W38410   0.886   1.957   2.857  0.0770 -0.0584 -0.2173
22277W        W38411  16.551  18.302   3.666  0.0038  0.1005  0.1422
22278W        W38412   8.184  10.032   2.503  0.1413  0.3403 -0.0828
22279W        W38413  15.855   0.432  14.355  0.0809 -0.2994 -0.0926
22280W        W38414   5.243   4.731  12.197 -0.2651  0.2570 -0.0726
22281W        W38415   0.950   9.929  11.896  0.2501 -0.4949  0.3345
22282W        W38416  14.717   5.160   1.565  0.2735  0.0017 -0.0014
22283W        W38417   9.922  19.272  13.703 -0.1606 -0.2278 -0.1760
22284W        W38418   8.426   5.325  12.568 -0.1517  0.1555  0.1728
22285W        W38419  15.761   1.808  12.391  0.2017  0.2798  0.1565
22286W        W38420   7.907  19.194  13.020 -0.2651  0.2224  0.1271
22287W        W38421  19.135  18.218  10.369  0.1717 -0.0819  0.0387
22288W        W38422   2.566  17.806   3.394 -0.1004 -0.0075  0.2614
22289W        W38423  14.045   7.208  14.714 -0.1590  0.1743 -0.2951
22290W        W38424  11.906  16.214   1.000 -0.2552  0.1807 -0.4548
22291W        W38425  15.673  18.115  13.508 -0.0302 -0.0673  0.0530
22292W        W38426   9.550  17.293   0.144 -0.1678 -0.3098 -0.2098
22293W        W38427  17.397  15.189   1.199  0.1956 -0.1860 -0.1528
22294W        W38428   8.689   3.502  12.677  0.0108  0.0461  0.1300
22295W        W38429  11.658  18.225   1.951 -0.0135 -0.1235  0.0050
22296W        W38430   0.746   4.208  12.251 -0.4634 -0.0567 -0.2523
22297W        W38431   2.515   3.777   1.595  0.0454  0.1065 -0.0536
22298W        W38432   3.457  11.947   0.328 -0.1172  0.2418  0.1310
22299W        W38433   2.681  14.811  12.564 -0.1433 -0.0776  0.0135
22300W        W38434  11.899  11.472   4.904 -0.4229  0.0972 -0.0127
22301W        W38435   1.252  17.774  12.337 -0.0442  0.0825 -0.0807
22302W        W38436   3.570  16.758   4.935 -0.2872 -0.2414  0.0788
22303W        W38437   0.062  13.333  11.475  0.0739 -0.3257  0.0150
22304W        W38438   6.816  15.443   4.956  0.0249  0.0820 -0.0995
22305W        W38439   1.698   5.008  14.615 -0.0310  0.2732 -0.0064
22306W        W38440  12.346   0.630   3.999  0.0124  0.2260  0.0145
22307W        W38441  11.996  13.974   1.112  0.4474 -0.2758 -0.3585
22308W        W38442   8.057  15.403  14.572  0.0365 -0.1698 -0.0299
22309W        W38443   0.611   4.731  13.162  0.3364 -0.0525  0.1350
22310W        W38444   0.816  15.880   1.103  0.0261  0.2636  0.0682
22311W        W38445  18.569   8.682   2.225  0.2106 -0.1159 -0.4488
22312W        W38446   2.853   3.777   0.249  0.0529  0.4822 -0.0991
22313W        W38447  15.100  11.909   5.311 -0.0915 -0.3335  0.1802
22314W        W38448   7.937   5.576   2.422 -0.2780 -0.0695  0.1962
22315W        W38449   2.159   3.215  14.716 -0.2540  0.2234 -0.0152
22316W        W38450   7.367   6.856   4.091  0.3117  0.2966 -0.0507
22317W        W38451   6.205   9.414   4.859 -0.1285 -0.1021  0.1746
22318W        W38452  10.376   1.335   2.057  0.2161 -0.1842  0.2586
22319W        W38453   3.469  16.355  12.510  0.1691 -0.1832  0.2223
22320W        W38454   7.678  18.606  13.538 -0.3590  0.0022  0.0403
22321W        W38455  15.909   5.443  11.064 -0.2061  0.2291 -0.0773
22322W        W38456  17.254  12.609   9.101  0.6796 -0.1408  0.1667
22323W        W38457  13.576  14.196   0.111 -0.0999 -0.0300  0.2183
22324W        W38458  16.341   3.202   5.302  0.2569 -0.2143  0.3990
22325W        W38459  16.698  15.565   2.096 -0.2225 -0.0498  0.0641
22326W        W38460   1.758  16.908   4.526  0.1535  0.2390 -0.2519
22327W        W38461  16.454   9.986   2.149  0.0551 -0.3421  0.1734
22328W        W38462   4.185  12.106   1.666 -0.0581  0.2953 -0.3329
22329W        W38463  16.576   2.416   5.029 -0.2334 -0.0575  0.0059
22330W        W38464   6.177   5.668   2.808 -0.0531  0.0007 -0.2419
22331W        W38465  15.667  10.177   4.813  0.0690 -0.0783 -0.0747
22332W        W38466  16.151   5.690  11.809  0.0470  0.2125 -0.2339
22333W        W38467   3.634  11.248   3.812 -0.3499  0.1179 -0.1658
22334W        W38468  16.458   3.767  14.571  0.1640 -0.0995 -0.3734
22335W        W38469   6.419  16.664   2.634  0.3135 -0.2866 -0.0178
22336W        W38470   1.778   3.148   0.643 -0.1476 -0.0125  0.0914
22337W        W38471  11.484   0.998   0.318  0.1009  0.0722 -0.5010
22338W        W38472   4.292  12.397   4.646  0.2352 -0.0734  0.3193
22339W        W38473  16.475  15.519   0.314  0.0712  0.3922 -0.1673
22340W        W38474   7.663   0.167   3.665 -0.1573 -0.0650 -0.2958
22341W        W38475  12.086   2.327   0.747 -0.1164 -0.0688  0.1978
22342W        W38476  17.598  16.108   4.534 -0.0560 -0.1451  0.1676
22343W        W38477   5.919   9.182   0.838  0.1482  0.3616  0.3504
22344W        W38478   8.866  14.027  10.001  0.2066  0.0559  0.3362
22345W        W38479  11.257   4.903  12.155  0.0445  0.0326 -0.2976
22346W        W38480  18.659   9.873   2.586  0.1123 -0.1677 -0.0019
22347W        W38481   9.958   3.191   0.857  0.1749 -0.0047 -0.0554
22348W        W38482   4.728   2.209  11.102  0.2410 -0.3282  0.1624
22349W        W38483   4.242  10.696  12.297  0.0125 -0.0321  0.1613
22350W        W38484  11.441  12.782   1.022  0.2260  0.0649 -0.0207
22351W        W38485   1.893   4.095   3.412 -0.0389 -0.4113  0.0644
22352W        W38486  14.105   1.729  13.805  0.2543 -0.0550 -0.4555
22353W        W38487   9.651   8.719   3.905  0.0041  0.0548 -0.1768
22354W        W38488   1.236   2.856  14.309 -0.0044 -0.2486  0.1709
22355W        W38489   4.476   2.719   2.995  0.0897  0.2581 -0.2347
22356W        W38490  12.767  13.237  13.845  0.2064  0.3062  0.1186
22357W        W38491  15.661  17.947   1.315  0.0378 -0.1168  0.0500
22358W        W38492   1.661  15.716   2.346  0.2096  0.2329 -0.0604
22359W        W38493  17.596   2.659   0.678 -0.1268 -0.0982  0.0141
22360W        W38494  14.658   5.101   3.007 -0.1394  0.3703 -0.0173
22361W        W38495   1.640  16.051   3.665  0.1680 -0.1267  0.0692
22362W        W38496  10.317  10.385   4.214 -0.0202  0.1419 -0.3894
22363W        W38497  18.185   4.137  10.422  0.0380  0.0102  0.0238
22364W        W38498  18.803   2.286   1.579 -0.1100  0.0389 -0.1234
22365W        W38499  12.456   4.127  14.572 -0.0289 -0.3994 -0.0129
22366W        W38500  13.827   4.684  11.114 -0.2108 -0.1233  0.0976
22367W        W38501  14.516  12.851  11.061  0.2674 -0.0839  0.2140
22368W        W38502   7.860  13.021   4.086  0.4040 -0.0828 -0.1952
22369W        W38503   8.169  18.937   2.341  0.0248 -0.1674  0.0107
22370W        W38504   2.421   1.592  10.690  0.0283 -0.0271  0.2510
22371W        W38505   6.204   3.725  10.158 -0.3195  0.2082  0.4201
22372W        W38506  14.094  15.711   3.204  0.0784  0.0702  0.1797
22373W        W38507  16.479   6.224  10.919  0.0134 -0.0483  0.1243
22374W        W38508   7.198   7.702  11.927  0.0134 -0.3774 -0.0690
22375W        W38509   1.336  15.654  13.056  0.1784 -0.2423  0.2596
22376W        W38510   9.828  10.447   4.596  0.1942  0.1938  0.0005
22377W        W38511   9.478  17.642  10.785  0.1041  0.1089  0.3059
22378W        W38512   9.816  14.049   1.615 -0.0523  0.0061  0.1164
22379W        W38513  19.122   0.691   2.138  0.0342  0.0229  0.1041
22380W        W38514  10.545   1.847   5.287  0.0429  0.1519 -0.1986
22381W        W38515   1.487   2.928   3.753  0.2866  0.3127 -0.4993
22382W        W38516  13.283   7.080   3.465 -0.1306  0.1207  0.1697
22383W        W38517  11.799   2.892   2.329  0.0575  0.1085  0.0594
22384W        W38518  11.417   8.016   0.558  0.1020  0.1051  0.0197
22385W        W38519  14.753  19.098   1.490 -0.3365 -0.3268  0.0494
22386W        W38520  15.207   2.210   4.384 -0.1307 -0.0673  0.2387
22387W        W38521   2.430   9.168  14.738 -0.1784  0.0047  0.0462
22388W        W38522   6.362   2.955   2.827  0.1383  0.1529  0.0813
22389W        W38523  19.210   8.985  13.768 -0.0011  0.2136 -0.2410
22390W        W38524  18.307  12.458   2.098 -0.0921  0.1798  0.0848
22391W        W38525   0.659   9.319  10.194 -0.2103 -0.0994 -0.0550
22392W        W38526   8.803   9.637  13.861 -0.0259 -0.1581  0.0403
22393W        W38527   2.938  16.605   2.438 -0.1307  0.1369 -0.0653
22394W        W38528  12.000  15.451  11.032 -0.1639 -0.0198 -0.1473
22395W        W38529   8.957  17.563  13.942 -0.2494  0.0666 -0.2152
22396W        W38530   3.343   0.820  12.595 -0.1843 -0.5087 -0.1733
22397W        W38531   0.316   7.821   0.417 -0.0110 -0.1556 -0.1341
22398W        W38532   1.650  18.582   4.480  0.2152  0.1982 -0.0529
22399W        W38533   5.348  11.606   5.116  0.3584  0.0870 -0.2888
22400W        W38534   4.311  14.761   2.324  0.1878 -0.2109 -0.0776
22401W        W38535  14.437  17.671   1.926  0.1023 -0.0022  0.0664
22402W        W38536   1.786   4.863   2.048 -0.3113 -0.0228  0.1221
22403W        W38537   6.435  12.556  14.327  0.0418  0.1678  0.1489
22404W        W38538   1.782   4.111   9.791  0.0469 -0.3459  0.0310
22405W        W38539   3.898   1.050  13.914  0.1663  0.0186  0.1073
22406W        W38540  17.916  17.890   4.443  0.1608 -0.0263 -0.0661
22407W        W38541   1.953  10.625   0.760  0.2183 -0.2715 -0.1082
22408W        W38542  11.378   0.062  10.926 -0.0480  0.1087 -0.0761
22409W        W38543   8.007   6.017   2.265 -0.0396 -0.1345 -0.2325
22410W        W38544   3.249   8.371  11.599 -0.2522 -0.1270 -0.1056
22411W        W38545  12.218   2.084  14.076 -0.1752  0.0181 -0.2857
22412W        W38546  10.342  10.823   0.417  0.3164  0.3150 -0.1775
22413W        W38547  12.784  13.508  12.410  0.0805  0.2145  0.3451
22414W        W38548  11.250   3.346  13.065  0.0947  0.3394  0.2633
22415W        W38549  11.296   6.527  13.756 -0.2112  0.3185 -0.2796
22416W        W38550  14.037  19.342   1.489 -0.2225 -0.1011  0.0509
22417W        W38551  18.213  16.468   4.292 -0.2239 -0.2681 -0.0695
22418W        W38552   2.317  13.790  12.941  0.3169 -0.0496 -0.0376
22419W        W38553   1.054   6.518  10.112 -0.0352  0.1311  0.1498
22420W        W38554   4.820   4.930   1.396  0.3317  0.3081  0.0816
22421W        W38555  18.984  14.397   0.949  0.1253  0.4269  0.0912
22422W        W38556   8.133   2.240   2.706 -0.2411 -0.4060  0.0398
22423W        W38557   6.056   8.913  11.404 -0.0341  0.2553  0.1526
22424W        W38558  14.659  11.319   0.427  0.3223  0.2119  0.1726
22425W        W38559  15.517  17.373  13.374 -0.0158  0.1402  0.0934
22426W        W38560  14.463  12.721   3.085 -0.2376  0.0016 -0.0235
22427W        W38561   0.106  11.900  14.316  0.2602 -0.1090 -0.1196
22428W        W38562  17.774  13.074  10.749 -0.3861  0.1245  0.0236
22429W        W38563  11.822  17.437  14.143  0.0183 -0.0847 -0.0981
22430W        W38564   2.380  13.903   1.924  0.1131 -0.3001 -0.2575
22431W        W38565   6.629   5.861   3.512 -0.0973  0.2533 -0.0983
22432W        W38566   2.292   8.587   1.198 -0.1551 -0.1631 -0.0018
22433W        W38567   5.698  16.390   2.151 -0.0499 -0.1836 -0.2930
22434W        W38568  16.081   6.508   2.910 -0.1638 -0.2562 -0.0590
22435W        W38569  14.243  11.394   2.709  0.1246  0.2066 -0.0952
22436W        W38570  16.582   0.302  12.257  0.1270 -0.1149  0.0166
22437W        W38571  16.859  13.817  13.299 -0.0560 -0.1779 -0.0528
22438W        W38572  17.684   2.105   2.311 -0.0403 -0.0596  0.2491
22439W        W38573  15.941  13.298   2.961 -0.0787 -0.0964 -0.3799
22440W        W38574  15.026   4.185  13.202 -0.2093 -0.1001  0.0162
22441W        W38575   7.149   8.534   3.489  0.1325 -0.3616 -0.0354
22442W        W38576  12.570   8.309   1.280 -0.0890 -0.3059 -0.0126
22443W        W38577  17.699   6.017  14.325 -0.3668  0.0061 -0.1651
22444W        W38578   5.659   2.411  12.027 -0.0612 -0.0581 -0.0146
22445W        W38579   0.597  17.203  13.106 -0.2244 -0.2153  0.2798
22446W        W38580   5.140  18.777  10.260  0.1648  0.1770  0.1307
22447W        W38581  11.673  11.345  11.280 -0.0416 -0.2988  0.1123
22448W        W38582   4.493   8.497  10.405  0.2565 -0.1662  0.3234
22449W        W38583  18.362   2.228   5.353 -0.0810  0.2903  0.1378
22450W        W38584   5.063  19.263  10.273 -0.3172 -0.2629  0.4676
22451W        W38585  17.037  15.123  12.181  0.2645 -0.0654  0.1116
22452W        W38586  13.231  18.180  12.662  0.0186  0.1240 -0.0425
22453W        W38587  18.910  12.007   3.407  0.2923 -0.0196 -0.0185
22454W        W38588   2.071  18.615  12.004  0.0396  0.0176  0.1905
22455W        W38589  10.340   1.707  14.528  0.1437  0.0214 -0.2383
22456W        W38590  10.169   0.032   4.697 -0.1079  0.0913 -0.1888
22457W        W38591   5.762   0.368   2.620  0.1271  0.1169  0.1330
22458W        W38592  14.968   9.588   5.751  0.2955 -0.0498  0.0633
22459W        W38593  15.656  13.241   1.935  0.0967  0.2703 -0.0037
22460W        W38594   1.720   7.292   4.900 -0.5811 -0.0859 -0.0967
22461W        W38595   8.840   1.485  14.895  0.2448 -0.0011 -0.2016
22462W        W38596  16.087  12.827   5.352 -0.1946 -0.2074 -0.2854
22463W        W38597   0.896   3.437  13.603 -0.0865  0.2937 -0.3700
22464W        W38598  17.070  12.044  11.027 -0.0657  0.1265  0.0531
22465W        W38599   2.761   6.577  14.354 -0.1328 -0.1969  0.0421
22466W        W38600  14.458   4.712  12.014  0.1027  0.0168  0.2253
22467W        W38601  17.077   4.584   2.705  0.0918  0.1462 -0.0923
22468W        W38602  18.411  17.615   4.352  0.2003 -0.0566 -0.3829
22469W        W38603   0.208  12.864   0.540  0.0591 -0.1756 -0.1787
22470W        W38604   9.576   9.023  14.527  0.2110  0.1699 -0.0714
22471W        W38605   0.680   7.866   9.819  0.0012  0.0409  0.2739
22472W        W38606  18.787   6.566   4.699  0.0031  0.0340  0.0070
22473W        W38607  17.636   2.714   1.476  0.1125 -0.1512 -0.0749
22474W        W38608  10.943   2.211   5.210 -0.2348 -0.0013  0.3436
22475W        W38609   2.462   5.231   3.577  0.3129 -0.1027 -0.1240
22476W        W38610   9.570  17.572   2.146 -0.1929 -0.0466  0.0068
22477W        W38611   7.371   5.342   0.616 -0.1236  0.3678 -0.0143
22478W        W38612  14.596  14.509   4.215 -0.1412  0.1116 -0.0745
22479W        W38613  13.505   0.647   4.768 -0.1157  0.1956 -0.2598
22480W        W38614   9.061   4.474   1.603 -0.1798  0.0062 -0.1894
22481W        W38615   8.988  17.430   4.993  0.0668 -0.0242  0.1481
22482W        W38616  14.781  17.363   4.535  0.3546 -0.0978  0.2397
22483W        W38617  11.012   8.198  13.146  0.1607 -0.1860 -0.1828
22484W        W38618  13.541  15.797   4.351 -0.1100  0.2613  0.0413
22485W        W38619  10.230  18.124   3.355 -0.0071 -0.1201 -0.0194
22486W        W38620   1.488  18.126   3.328 -0.1950  0.0860 -0.0673
22487W        W38621  11.077   2.768  13.756 -0.1901 -0.0222 -0.0589
22488W        W38622   4.875  15.360  11.549 -0.1979  0.0433  0.3515
22489W        W38623   1.853   2.464  12.561  0.2438 -0.1761 -0.1278
22490W        W38624   3.242   1.244  12.030 -0.2281  0.0025 -0.0050
22491W        W38625   9.902  16.319  11.838 -0.1614 -0.0734 -0.0631
22492W        W38626   1.112   3.840   1.585 -0.1652  0.1665 -0.1211
22493W        W38627  11.508   1.095   1.402 -0.0474  0.1777 -0.1078
22494W        W38628   4.759  13.428   3.927  0.0747  0.1212  0.0133
22495W        W38629  17.662  17.976   1.169  0.1243 -0.0326  0.1654
22496W        W38630   1.385   6.136  10.229 -0.1541 -0.2784 -0.0513
22497W        W38631   1.040  18.505   3.351  0.0696  0.1609 -0.1816
22498W        W38632  10.892   4.849   4.059  0.0692  0.3504  0.0185
22499W        W38633   9.402  10.797   0.068 -0.0939  0.5560  0.0227
22500W        W38634   1.389   2.452   4.011  0.3999  0.2654  0.0050
22501W        W38635  17.714  16.403   4.118  0.0667  0.0431  0.0546
22502W        W38636  18.987  12.543   1.475  0.0384  0.0708 -0.2118
22503W        W38637   3.527   0.903   3.559  0.1798  0.2537 -0.1571
22504W        W38638   4.514  18.740   2.699 -0.2905  0.2206 -0.2246
22505W        W38639  18.941   1.258  13.887 -0.0468  0.0526  0.1476
22506W        W38640   8.654  15.540  12.866  0.1504  0.0456  0.3288
22507W        W38641  13.124  15.079   1.575 -0.0913 -0.0855  0.2724
22508W        W38642  16.813  17.368   4.591 -0.0267  0.0145  0.5097
22509W        W38643   8.414  11.533  13.397  0.3282  0.4687  0.1887
22510W        W38644  13.651   8.242   0.368  0.0809  0.0337 -0.2034
22511W        W38645  19.105   1.893   0.885 -0.3194  0.0070  0.1731
22512W        W38646  14.400   7.760   2.354  0.1786  0.2414  0.2844
22513W        W38647  17.154  18.511  14.016  0.1288  0.0936 -0.2725
22514W        W38648  12.195  10.936  10.850 -0.1162  0.0431 -0.0934
22515W        W38649   0.828  12.506  13.347  0.1854 -0.2203  0.1083
22516W        W38650   5.542   2.013   3.487  0.1656 -0.0704  0.1501
22517W        W38651   5.055  16.029  14.932  0.1538 -0.0588  0.3204
22518W        W38652  12.494   6.491   2.592 -0.2430 -0.2358  0.0512
22519W        W38653  16.468   0.138   1.515 -0.2769  0.1909  0.1303
22520W        W38654  15.193   8.393  14.936  0.0077  0.3760 -0.0058
22521W        W38655  10.113   4.091  11.815  0.0586  0.1035  0.0145
22522W        W38656   3.921   5.714   4.353  0.3174  0.2141  0.3080
22523W        W38657   0.603   5.889   3.370  0.2932 -0.1457 -0.0222
22524W        W38658   9.604   2.847   1.039  0.1578  0.1053  0.0162
22525W        W38659  10.061  10.145   3.489  0.0490  0.0363 -0.1038
22526W        W38660  15.440  12.268   1.634  0.1092 -0.0143  0.0242
22527W        W38661   9.473  16.866  11.149 -0.1442  0.0239 -0.1383
22528W        W38662   9.735  14.759   4.083 -0.0117  0.0180 -0.3285
22529W        W38663   0.911  17.556  10.393 -0.0441 -0.3732 -0.0028
22530W        W38664   1.618   2.629  10.599  0.1429 -0.0181 -0.3029
22531W        W38665   5.318  16.181  11.722 -0.2366 -0.0844 -0.2453
22532W        W38666   1.101   9.271  11.073  0.0158  0.0118  0.0255
22533W        W38667  11.466  15.408  13.059 -0.1827 -0.2236  0.0435
22534W        W38668  12.887   0.324  14.313  0.1037  0.2307 -0.4422
22535W        W38669  18.756   5.660   2.074 -0.3318  0.0312 -0.1702
22536W        W38670   4.991  10.230   2.609 -0.0894  0.5434 -0.0880
22537W        W38671   1.999  12.667  11.916  0.2031  0.3549 -0.1842
22538W        W38672  11.345  15.887   2.581 -0.2613  0.1650  0.1544
22539W        W38673  14.247  11.843   2.989 -0.4918 -0.1244  0.1408
22540W        W38674  18.294   3.036   2.128 -0.1763 -0.0082 -0.2444
22541W        W38675   4.430   0.940   1.368  0.0060  0.0970  0.0966
22542W        W38676  16.101  14.783  11.773  0.1957 -0.0177  0.2947
22543W        W38677   1.279  13.507   1.205 -0.2570  0.0335 -0.1215
22544W        W38678   6.258   1.572  13.826  0.0884 -0.3463 -0.0536
22545W        W38679  11.773  16.680   3.157  0.2040  0.0238 -0.0408
22546W        W38680   3.081   1.089   2.357 -0.0087 -0.0271  0.3385
22547W        W38681  10.149  12.645  14.268 -0.0028 -0.0072  0.0521
22548W        W38682   1.387   8.411   3.653  0.3028 -0.0484  0.0432
22549W        W38683   3.630  16.291  13.011 -0.0830 -0.0435  0.0108
22550W        W38684   1.638  16.297   1.602 -0.2519  0.1800 -0.0014
22551W        W38685   4.802  15.958   1.280  0.2419  0.1905 -0.0061
22552W        W38686  15.533  17.335  13.879 -0.1353  0.0016  0.1825
22553W        W38687   4.881  16.439   1.352  0.0138 -0.1392  0.2553
22554W        W38688  15.969  11.289   4.337  0.4027 -0.1853 -0.0583
22555W        W38689   6.988   6.150  12.657  0.0036 -0.1601  0.1104
22556W        W38690  15.377   4.647  12.332  0.1361  0.3558  0.0970
22557W        W38691   0.568   5.709   0.007 -0.1883 -0.0647  0.2065
22558W        W38692   7.004   0.682  11.470  0.2598  0.1739  0.0768
22559W        W38693   7.914   6.904   5.684  0.1075  0.1856  0.0979
22560W        W38694   9.830  15.630   3.866  0.2979  0.1628 -0.0676
22561W        W38695  16.399   2.782   5.910  0.2092  0.0148 -0.0952
22562W        W38696  13.234   1.648   2.656 -0.0518 -0.0864  0.1240
22563W        W38697  16.884  13.763  10.023 -0.2177  0.0844 -0.0104
22564W        W38698  13.502  12.862  13.238  0.1333  0.1158 -0.1274
22565W        W38699   9.362   6.008  13.938 -0.3336 -0.2444 -0.2528
22566W        W38700   1.307   8.360   1.398 -0.0353  0.0250  0.3304
22567W        W38701   7.639   4.172  13.228  0.0691 -0.4376  0.1055
22568W        W38702  17.029   0.707  14.661  0.3506 -0.0309 -0.0024
22569W        W38703  12.819   0.207  14.844 -0.0914  0.2629  0.0071
22570W        W38704   2.680   3.070   3.735 -0.2929  0.3516 -0.0305
22571W        W38705   9.317   1.462   0.037  0.1630  0.2068  0.0921
22572W        W38706   2.392   4.512  13.199  0.3542 -0.1139  0.0477
22573W        W38707   2.823   4.051   3.108  0.0638  0.4486 -0.0941
22574W        W38708   6.765   0.173   4.685 -0.2001 -0.0564 -0.0409
22575W        W38709  12.887   3.769   0.725  0.0062  0.1894 -0.2138
22576W        W38710   4.160  16.991   5.032 -0.3190 -0.0798 -0.0054
22577W        W38711  16.967   2.218   0.623  0.0361  0.0605 -0.0756
22578W        W38712   9.312   5.632  12.370  0.0410 -0.1503  0.0900
22579W        W38713   3.972  17.826  11.762  0.3013  0.0166  0.0113
22580W        W38714  11.544  19.026   4.438  0.1087 -0.1628 -0.2627
22581W        W38715  16.721   1.790  14.416 -0.0738 -0.0320 -0.0503
22582W        W38716  17.942   3.825  14.144 -0.1474  0.0284 -0.3666
22583W        W38717  16.654  15.316   5.207 -0.1094  0.2644 -0.3228
22584W        W38718   6.039   8.717  12.366  0.0452 -0.1182  0.0801
22585W        W38719   0.208  17.085   1.343  0.0435  0.1206 -0.0332
22586W        W38720   4.714   4.560   4.954  0.2215  0.4662 -0.1190
22587W        W38721   1.976  18.870  12.470  0.0813  0.0415  0.0052
22588W        W38722   3.101   3.779  11.897 -0.0301  0.0770 -0.1845
22589W        W38723  10.982   7.334  13.464  0.0821 -0.4050 -0.1111
22590W        W38724  18.552  14.111  10.161  0.0848  0.0221 -0.1465
22591W        W38725  13.968  14.083  12.341  0.1808 -0.0112  0.2573
22592W        W38726  16.841   4.158  13.278 -0.2620 -0.1420 -0.0185
22593W        W38727   1.564  17.950   0.691 -0.1346  0.1540  0.1262
22594W        W38728  12.729   0.083   0.359  0.2068 -0.1864  0.2815
22595W        W38729  12.991   2.016   0.062  0.0711 -0.2084 -0.0828
22596W        W38730  10.452   4.366   4.652  0.3897  0.1012 -0.1668
22597W        W38731   5.082  15.743  11.925  0.1564 -0.3321 -0.0496
22598W        W38732  15.319  18.639   4.116  0.0127 -0.0377  0.1649
22599W        W38733   5.541   5.042   3.954  0.2242 -0.0715 -0.3404
22600W        W38734   7.389  12.327   9.968  0.0065  0.0640  0.4300
22601W        W38735   7.226  16.452   1.927  0.0566 -0.0130  0.1060
22602W        W38736   3.257   3.043  11.311  0.0117  0.0100 -0.0937
22603W        W38737   8.923  12.182  11.251 -0.1728 -0.4207  0.2247
22604W        W38738   2.794  13.759   0.844 -0.1547 -0.0915 -0.0027
22605W        W38739   8.727  19.308   3.238  0.1051 -0.0038  0.0654
22606W        W38740  13.922  15.415   1.891  0.3057  0.2443  0.1018
22607W        W38741   1.586  10.991   0.651  0.1639  0.0447 -0.0404
22608W        W38742   1.164   4.370  12.675 -0.2094 -0.1432  0.1325
22609W        W38743  11.833   0.562  12.855 -0.1032 -0.1371  0.1948
22610W        W38744   4.825   1.436  13.723 -0.1411 -0.0543  0.1390
22611W        W38745  10.710  16.553  13.335  0.1066 -0.2663  0.0903
22612W        W38746   0.822   2.151   1.861 -0.2788 -0.0566  0.0558
22613W        W38747   5.681   6.071   2.264 -0.4624  0.3025 -0.0117
22614W        W38748   0.592  12.192  11.716  0.0894  0.2581 -0.1694
22615W        W38749   0.539  16.646  13.355  0.1946  0.0474  0.3844
22616W        W38750   3.563  12.126   3.756  0.0149 -0.0724 -0.1812
22617W        W38751  17.651   6.365   0.795  0.4380  0.0197  0.3380
22618W        W38752  15.114   8.179   1.414 -0.0610 -0.0117 -0.0240
22619W        W38753   9.412   9.386  13.769 -0.1916 -0.1142 -0.1903
22620W        W38754   4.154   6.440   0.397 -0.2732  0.0375 -0.2446
22621W        W38755  12.561   7.084   2.719  0.1468  0.2597  0.0707
22622W        W38756  15.635   8.436  11.959  0.1062 -0.3313  0.2010
22623W        W38757  18.406  14.965  10.976  0.2900 -0.1515  0.1595
22624W        W38758   5.616  19.146   4.244 -0.1507 -0.3019  0.1707
22625W        W38759   8.287  11.073   5.034  0.2343 -0.1324  0.2514
22626W        W38760  16.553  18.842  13.357 -0.1108 -0.3827  0.0990
22627W        W38761   1.381   9.658  10.705  0.0252 -0.0140  0.0701
22628W        W38762  16.781   5.445   1.713  0.0291  0.3960 -0.0742
22629W        W38763  15.779   4.724   2.201  0.0663 -0.0296 -0.6501
22630W        W38764   6.387   8.692   2.334 -0.1865 -0.2308 -0.0146
22631W        W38765  15.083  12.279  12.989  0.1128 -0.3486 -0.1602
22632W        W38766  14.139  15.071   1.532  0.2701 -0.1066 -0.0283
22633W        W38767   0.161  14.657  11.744 -0.2387  0.1055 -0.0409
22634W        W38768  14.520   1.922   1.750 -0.0835 -0.2662  0.3004
22635W        W38769  11.785  13.733  14.361 -0.2143  0.0156 -0.1003
22636W        W38770   3.239   3.744  13.277  0.2894  0.1347 -0.0689
22637W        W38771   7.099  16.118   2.874  0.0508  0.1756 -0.1224
22638W        W38772   2.109  16.052   3.186 -0.0751  0.1327  0.0808
22639W        W38773   9.972   2.828   1.785  0.1073  0.0438 -0.1557
22640W        W38774  13.063  17.417  12.156  0.0075 -0.0985  0.0880
22641W        W38775  10.283  13.163   0.091  0.0324  0.1861  0.2459
22642W        W38776   0.265   8.900   3.715 -0.0476 -0.0493  0.2203
22643W        W38777  16.367   0.089   3.810  0.1701  0.2800 -0.0666
22644W        W38778   6.984  13.027   1.519  0.3155  0.1140  0.1048
22645W        W38779   1.339  10.017  12.237  0.1098 -0.2891  0.0113
22646W        W38780   9.742   8.893   2.468  0.1152  0.1183 -0.0320
22647W        W38781  16.665  17.515   2.009  0.0130  0.2526  0.3465
22648W        W38782   9.199  17.560   1.795 -0.2140  0.0619  0.0246
22649W        W38783   5.306   9.755   9.575 -0.2248 -0.0282 -0.1264
22650W        W38784   3.373   7.816   1.924  0.0028  0.0772  0.1703
22651W        W38785  12.217  13.265   4.889 -0.0743 -0.0654 -0.2001
22652W        W38786   9.061  13.079  11.301  0.2202  0.2757 -0.2726
22653W        W38787   6.099   7.393   0.798  0.3429  0.1822 -0.1221
22654W        W38788  16.810  18.229  10.223 -0.0581  0.0665  0.1317
22655W        W38789   8.070   7.593  13.847  0.2487 -0.0450  0.0339
22656W        W38790   0.195   6.371  11.695  0.0818 -0.0775 -0.1245
22657W        W38791   0.333  12.874   2.106 -0.0110 -0.1157  0.0599
22658W        W38792   4.492  19.234   4.996 -0.3091 -0.3421 -0.0683
22659W        W38793  13.951  16.362  12.340  0.3833  0.2001  0.1593
22660W        W38794   6.228  15.851   0.945 -0.4206 -0.0448 -0.0457
22661W        W38795   7.194  18.764  14.836 -0.0521  0.3099 -0.0077
22662W        W38796   4.480   5.049  10.211  0.1794  0.1285 -0.3642
22663W        W38797  10.529   3.041  11.063 -0.2030  0.1678  0.0384
22664W        W38798   6.759  12.119   2.614  0.0896 -0.1605 -0.0263
22665W        W38799  17.440   5.730   4.010  0.3095  0.0641 -0.0033
22666W        W38800  17.556   7.248   2.898  0.0300  0.1150  0.0830
22667W        W38801   8.884   3.349  14.050 -0.0823  0.0255  0.4481
22668W        W38802  15.992   4.901  10.986 -0.0175 -0.1654 -0.1199
22669W        W38803   0.384  10.686  11.717  0.0124 -0.1761  0.1342
22670W        W38804  12.687  10.560   2.359  0.4652 -0.0869  0.0318
22671W        W38805  12.120  18.432   4.264 -0.2076  0.3722  0.1667
22672W        W38806  19.120  15.028   2.047 -0.3392  0.0467  0.1019
22673W        W38807  16.552   2.171  14.632 -0.0619 -0.3199 -0.0471
22674W        W38808  14.920   5.197  12.772 -0.1552 -0.1098 -0.2120
22675W        W38809  16.859  12.923   4.164 -0.0199  0.0114  0.0144
22676W        W38810  16.516  19.154   2.946  0.1447  0.1809 -0.2154
22677W        W38811   6.242  11.321   2.239 -0.1037 -0.0356  0.0030
22678W        W38812   8.775   9.637  11.374 -0.1586 -0.3372 -0.3263
22679W        W38813   2.272  15.153   0.327  0.2171 -0.0847 -0.0487
22680W        W38814   5.170  18.569  11.562  0.1376 -0.1151  0.0529
22681W        W38815  15.097  12.278   4.963  0.1622  0.0698 -0.1278
22682W        W38816  17.314  15.006   2.540 -0.0159 -0.1029 -0.2118
22683W        W38817   7.587  11.967  10.888  0.1611  0.2225  0.5867
22684W        W38818   1.301   1.416  10.257  0.3666 -0.3746 -0.1044
22685W        W38819   1.107   7.876   3.823 -0.0882 -0.1530 -0.1136
22686W        W38820   1.182   4.399   1.590  0.0738 -0.2805  0.1148
22687W        W38821   4.160  11.918   0.724 -0.0522  0.1436  0.1603
22688W        W38822  10.220  15.871   4.522  0.3281 -0.1156 -0.0560
22689W        W38823  11.633  10.563   2.675 -0.2981  0.3005  0.0105
22690W        W38824  16.889  15.137  12.695  0.2348 -0.0645 -0.1188
22691W        W38825  12.853   6.646   4.025 -0.1763 -0.0348 -0.1455
22692W        W38826  14.825   5.981  12.620 -0.2784 -0.1456 -0.0815
22693W        W38827  15.603  17.074  12.911  0.1194  0.0211 -0.0321
22694W        W38828   0.430   1.487  12.532 -0.1797  0.0992 -0.2101
22695W        W38829   9.123  10.187   3.639 -0.5783  0.1438 -0.3846
22696W        W38830   0.986   9.595   3.136  0.1992 -0.1226  0.1550
22697W        W38831   1.218  17.664   1.376 -0.0226 -0.1346  0.0533
22698W        W38832  18.631  12.102   0.648  0.1264  0.2430  0.1722
22699W        W38833   0.330   1.915  13.970  0.2291  0.2184 -0.1214
22700W        W38834   2.921   8.793   9.612 -0.3281 -0.1788  0.2853
22701W        W38835   4.087   5.487   1.614  0.0046  0.2469 -0.0992
22702W        W38836   2.833  14.516  11.500  0.1008  0.1295 -0.0471
22703W        W38837   7.577   3.912   0.915 -0.0874  0.2290  0.0093
22704W        W38838   5.518  15.597   1.020  0.2133  0.1534  0.2050
22705W        W38839   1.714  12.959   4.081 -0.1833  0.1009  0.0189
22706W        W38840   4.216   8.846  14.298  0.0014 -0.0134 -0.0722
22707W        W38841   5.446   4.066  10.582  0.2220 -0.1870 -0.1387
22708W        W38842  12.829   0.140  11.673 -0.1193 -0.0237  0.0160
22709W        W38843   4.875  11.933   1.191  0.0634 -0.4800  0.1380
22710W        W38844   3.011  11.686  11.131 -0.3596 -0.2490 -0.1273
22711W        W38845   6.263  12.903   3.679  0.1183  0.0900 -0.2388
22712W        W38846  19.340  14.272   0.663  0.1048  0.2068 -0.2749
22713W        W38847  10.303  15.788   1.126 -0.1809  0.3433 -0.2312
22714W        W38848   5.419   7.581  14.784  0.0177  0.3241 -0.2132
22715W        W38849  17.728  16.466  10.775 -0.0666 -0.0973  0.1182
22716W        W38850  16.363  13.106  13.914 -0.1147 -0.0752  0.1752
22717W        W38851  15.861   1.427  14.306  0.1515  0.2097  0.2969
22718W        W38852  18.640   2.621  12.370  0.1229 -0.3497  0.2182
22719W        W38853  11.235  14.338   4.289  0.1272  0.0071 -0.1384
22720W        W38854   2.897   1.281   4.169 -0.0268  0.0705 -0.1214
22721W        W38855   0.623  13.441  10.436  0.1597  0.0575 -0.2389
22722W        W38856   5.459   3.658  14.891  0.1446  0.1784  0.1643
22723W        W38857  15.024   3.480  14.935 -0.0647  0.0340  0.2009
22724W        W38858   8.160   1.100  14.466  0.0778 -0.2112  0.1235
22725W        W38859  10.409  16.639   5.710 -0.3949 -0.2189  0.0279
22726W        W38860  14.939  11.706   3.120  0.2037 -0.1539 -0.1402
22727W        W38861   5.740   8.309   0.261  0.0334  0.0288  0.0281
22728W        W38862  16.989  15.971   9.346  0.1060  0.0481  0.1554
22729W        W38863   9.721   6.801  12.293 -0.3669  0.0081  0.2351
22730W        W38864   9.845   3.086  10.605  0.3709 -0.1299  0.0767
22731W        W38865  17.891   1.390   1.522 -0.1932  0.1167  0.1618
22732W        W38866   5.130  18.675   4.096  0.1664  0.1373  0.1544
22733W        W38867  16.815   2.603   0.145  0.3768 -0.0706 -0.1025
22734W        W38868   3.523   6.510  11.769 -0.1055 -0.1407  0.2339
22735W        W38869  13.292   7.567  11.063 -0.0754  0.0013  0.1390
22736W        W38870   9.304   5.384   5.381  0.1715 -0.1137  0.0587
22737W        W38871  13.308   5.559   2.496  0.0642 -0.0797 -0.0563
22738W        W38872   5.312   8.940  12.590  0.1535  0.1938 -0.0193
22739W        W38873  17.348   9.690  13.257  0.1818  0.2555  0.3487
22740W        W38874  13.856   7.157  12.569 -0.2196  0.2291  0.1197
22741W        W38875  10.470  19.050  12.253 -0.0441 -0.1663  0.2179
22742W        W38876  14.693  16.578   0.698  0.2314 -0.0170 -0.2495
22743W        W38877  13.225  12.792  13.590 -0.2454 -0.0648 -0.0504
22744W        W38878   6.834  14.112  14.722  0.1496  0.0389  0.1437
22745W        W38879   5.421  15.054  14.116  0.1698  0.3740 -0.0216
22746W        W38880   1.336   9.013   2.021  0.1710  0.0322 -0.1645
22747W        W38881  13.710   5.275   1.143 -0.1325  0.1322 -0.0536
22748W        W38882  16.708  16.607  14.699  0.0963  0.0856  0.4071
22749W        W38883  13.619   4.788   2.129 -0.0658 -0.1458  0.1337
22750W        W38884   8.775  10.218  12.620  0.0280 -0.6436  0.1951
22751W        W38885   0.007   1.319  12.144 -0.0477 -0.1987 -0.1850
22752W        W38886  14.790  15.231  14.303  0.2881  0.2781 -0.0019
22753W        W38887   6.052  14.567   0.149 -0.2061 -0.0318  0.0445
22754W        W38888  16.796   9.016  12.525  0.2134  0.0659 -0.0941
22755W        W38889   2.138   7.618   5.036  0.1274  0.0777 -0.0365
22756W        W38890  10.134  12.150  14.013  0.2539  0.2217 -0.3381
22757W        W38891   8.101   0.041   0.541  0.0106 -0.0362 -0.0569
22758W        W38892  14.743   3.466  11.908 -0.2047  0.4513  0.3548
22759W        W38893   1.268   4.666   0.579  0.2328  0.0370 -0.1028
22760W        W38894   9.440   3.088  13.882  0.0249  0.2351 -0.0766
22761W        W38895   7.248  13.412  10.965  0.1843  0.1332 -0.0558
22762W        W38896   3.725  12.747   4.471 -0.0010  0.0664  0.0735
22763W        W38897   7.560  11.443  11.105 -0.0254 -0.1335 -0.2045
22764W        W38898  14.667   2.606   2.771  0.1871  0.2690  0.1498
22765W        W38899   3.759   3.096  10.239  0.0974  0.0530 -0.2407
22766W        W38900   0.838  13.768   2.596  0.3414  0.0633 -0.0392
22767W        W38901  11.929  17.053  11.905  0.0356  0.0527 -0.0570
22768W        W38902  16.238   3.740   2.324  0.1916 -0.2242  0.3941
22769W        W38903   6.322  13.972   0.705  0.4153 -0.1264 -0.1000
22770W        W38904  19.073   9.593   3.088  0.1064  0.1381  0.1421
22771W        W38905  17.434   3.935  14.252  0.1284 -0.2173 -0.1305
22772W        W38906  15.802   0.261  13.917  0.1847  0.1796 -0.0356
22773W        W38907  16.043  17.383   2.592 -0.1918  0.0707 -0.3707
22774W        W38908  14.156   6.870  12.228 -0.2401 -0.1071 -0.0617
22775W        W38909  16.126   8.503   2.370  0.1123  0.2580  0.0288
22776W        W38910  19.341   9.518   1.711 -0.3344 -0.0115 -0.1171
22777W        W38911  10.827   2.411  14.477 -0.0380 -0.3328 -0.0575
22778W        W38912   5.507   1.813  12.017 -0.3746  0.1754 -0.2036
22779W        W38913   1.900   4.136   2.927  0.2688 -0.1626 -0.0500
22780W        W38914   8.250  13.619   4.570 -0.0354 -0.1116 -0.2675
22781W        W38915   0.540  10.502  10.695  0.0996  0.2359  0.0110
22782W        W38916  10.544  16.619   0.094  0.1357 -0.1594  0.0930
22783W        W38917   3.960  17.489  10.611  0.1873 -0.1622  0.1712
22784W        W38918   8.128  10.647   4.947  0.1670  0.1273  0.3078
22785W        W38919  13.939  13.285  14.203 -0.0810 -0.2936  0.3053
22786W        W38920   8.729   8.569   3.610 -0.0856  0.1322 -0.0650
22787W        W38921  18.449   5.113  10.585  0.0428  0.1305 -0.3107
22788W        W38922  17.568   9.859   0.153  0.4899 -0.2323  0.0592
22789W        W38923   5.153  16.777   3.269  0.0045  0.3216 -0.1695
22790W        W38924   3.016   5.070  14.503  0.1939 -0.1519  0.0136
22791W        W38925  14.433  14.818   3.835  0.0849 -0.1563  0.3440
22792W        W38926  13.670   3.782   4.078 -0.3000 -0.2098 -0.0285
22793W        W38927   6.933   1.746  14.430 -0.1176  0.2447  0.2686
22794W        W38928   3.858   9.073   2.545  0.0221 -0.0450  0.0225
22795W        W38929   4.194  11.880  13.659 -0.2690  0.3109  0.1383
22796W        W38930   6.383  15.642   0.192 -0.2792 -0.0390  0.2064
22797W        W38931  17.382  14.492   3.306  0.4053  0.1420  0.1897
22798W        W38932   5.940  13.289   2.434  0.3166 -0.1959  0.1108
22799W        W38933   7.055  14.594   9.849 -0.1353 -0.0362  0.0112
22800W        W38934   1.276  15.679   3.680 -0.0335 -0.0971 -0.0093
22801W        W38935   4.550  12.802  14.618  0.0573  0.0117  0.1925
22802W        W38936   7.310   4.955   8.990 -0.2095 -0.2876  0.1860
22803W        W38937   2.796  10.015   9.811 -0.0260  0.4301  0.3807
22804W        W38938  12.372   3.464   4.305  0.0285  0.3265  0.0562
22805W        W38939   0.287   7.458   2.896 -0.0055 -0.2216 -0.4067
22806W        W38940  15.044  14.212   0.500 -0.1173 -0.1171 -0.1486
22807W        W38941   2.532   3.368   0.574 -0.0047 -0.0190 -0.0956
22808W        W38942   8.891   9.310   2.251 -0.2772 -0.1441 -0.1421
22809W        W38943  10.614  13.910  12.424 -0.1194  0.3031  0.0882
22810W        W38944  13.796   0.880  11.834  0.0547  0.2130 -0.0767
22811W        W38945  15.498  11.987   4.627 -0.0140 -0.0721 -0.3111
22812W        W38946   6.141  18.404  10.319 -0.1395  0.1464 -0.0386
22813W        W38947   3.332   5.414  14.667  0.1679  0.0683 -0.1096
22814W        W38948   8.568  10.859  10.820  0.3712  0.2055  0.0917
22815W        W38949   8.150   9.031   5.606  0.1084  0.0923  0.2415
22816W        W38950   1.012  16.931  14.941 -0.0297  0.1624 -0.0494
22817W        W38951  18.656   0.489   4.430 -0.0006 -0.0506 -0.1442
22818W        W38952  18.239   0.891  10.312  0.1024  0.0649  0.1533
22819W        W38953  12.057  13.926  13.767  0.1079  0.0500  0.1204
22820W        W38954  18.031  19.261   3.849  0.4939  0.0936  0.2604
22821W        W38955  15.998   2.752  14.138  0.3507 -0.1393 -0.0160
22822W        W38956  14.732   5.873   4.509 -0.1592 -0.2233 -0.0099
22823W        W38957   3.989   5.307   3.048  0.0263 -0.2058 -0.3634
22824W        W38958  12.180  12.386   0.968 -0.0580 -0.0233  0.2035
22825W        W38959   7.390  10.969   3.246  0.2527 -0.0167 -0.1195
22826W        W38960  13.081  11.335  11.990  0.1121  0.0734  0.1592
22827W        W38961   2.809   4.120   1.842  0.0295  0.0116 -0.0396
22828W        W38962  13.607  12.553  10.844  0.0225  0.1740 -0.0228
22829W        W38963   4.334   9.212   2.323 -0.2682  0.1184  0.1061
22830W        W38964  17.178  17.585   2.022  0.0115 -0.0677  0.2154
22831W        W38965   8.426  18.371   2.291  0.2111 -0.4170 -0.1146
22832W        W38966   6.862  17.886  12.814  0.1476 -0.2940 -0.3563
22833W        W38967  15.448  14.904   4.030  0.0807  0.3254 -0.0855
22834W        W38968   2.185  12.698   1.689  0.3899 -0.1160 -0.1604
22835W        W38969  19.111   6.206   1.123 -0.0874 -0.2665 -0.2361
22836W        W38970  12.398  16.268   0.236  0.1247 -0.2454 -0.1526
22837W        W38971  15.351   4.557  13.384  0.1681 -0.1604 -0.2144
22838W        W38972   9.265   1.625  12.095 -0.4138 -0.2613  0.0001
22839W        W38973   2.612   8.417   2.352 -0.0331  0.0490  0.1438
22840W        W38974   7.177   0.100   3.865 -0.0133 -0.1685 -0.0020
22841W        W38975  14.757   7.023  14.115 -0.2804  0.3251 -0.0373
22842W        W38976  17.163   3.505   0.355  0.1664 -0.4275 -0.0226
22843W        W38977   8.410  16.394  12.779  0.1269 -0.1405 -0.1220
22844W        W38978   1.085  15.248   1.930  0.0535 -0.0964 -0.0138
22845W        W38979  13.136  18.614  11.587  0.3528  0.0100 -0.1333
22846W        W38980  17.615   0.792   4.506  0.2048 -0.2868 -0.0257
22847W        W38981   0.602   6.140   0.665 -0.1552 -0.1337 -0.3686
22848W        W38982   8.546  18.605   4.446  0.4654  0.0661  0.0695
22849W        W38983  13.605   9.497  12.412  0.2824  0.2221 -0.1211
22850W        W38984   0.128   6.603  10.092 -0.1640 -0.1937 -0.0497
22851W        W38985  15.124  11.551   0.445 -0.0841  0.0652 -0.2229
22852W        W38986  10.274  18.014   2.018  0.0645  0.2778  0.1523
22853W        W38987  12.989   0.549   4.818  0.1524 -0.1391 -0.3076
22854W        W38988   7.681  17.620   4.272  0.2593 -0.0960 -0.0184
22855W        W38989  16.339   0.702   4.705  0.0647  0.0217 -0.0811
22856W        W38990   5.186   5.846  10.168  0.0535 -0.0198  0.1982
22857W        W38991   3.914   0.710  11.812  0.0829 -0.1459  0.1676
22858W        W38992  12.398   6.575  12.605  0.0959 -0.2328  0.1365
22859W        W38993  12.935   7.931  11.137  0.3393 -0.0768  0.3735
22860W        W38994   4.948   0.779   3.336  0.0796 -0.2686 -0.1980
22861W        W38995   3.594   2.945  12.261 -0.3796 -0.0975  0.1716
22862W        W38996  15.165   8.601   3.415  0.2726  0.1871 -0.0957
22863W        W38997   6.622   4.978   4.127 -0.0607 -0.2144  0.2855
22864W        W38998  11.511  15.318   4.670 -0.3820  0.0321 -0.1893
22865W        W38999   2.095   9.524   9.466  0.2057 -0.0380 -0.0637
22866W        W39000  10.164   0.229  14.621 -0.0335 -0.0809  0.0943
22867W        W39001  14.502   0.020   1.170 -0.1726  0.0387  0.0079
22868W        W39002  10.434   6.148  11.488 -0.0263 -0.1174  0.2624
22869W        W39003  18.526   6.114   2.288 -0.1981 -0.4651  0.1048
22870W        W39004   3.872   7.403  11.466  0.0450  0.3092  0.1033
22871W        W39005   0.238  14.085  12.213  0.2956 -0.0563  0.3838
22872W        W39006  14.699  11.622  11.813  0.1206 -0.0924 -0.4436
22873W        W39007   6.349   9.478   4.005 -0.1849 -0.1937 -0.0461
22874W        W39008   9.124  14.967   3.342  0.1711  0.2729  0.0919
22875W        W39009   3.981  13.680   0.584  0.0908  0.0393  0.1558
22876W        W39010  15.059   9.453   4.353  0.0873 -0.0239 -0.2124
22877W        W39011  14.363  17.494   3.144 -0.0885 -0.3467  0.1514
22878W        W39012  10.724  17.712   4.412  0.0060  0.4108  0.4511
22879W        W39013  15.285  19.185   3.090  0.0413  0.3845 -0.4226
22880W        W39014   0.418  12.260  13.609  0.1390 -0.3859 -0.0880
22881W        W39015   9.262  10.709  14.082 -0.1640 -0.0096 -0.1258
22882W        W39016  15.410   5.092  12.695  0.3624 -0.0217 -0.2167
22883W        W39017  10.698   5.349   1.738 -0.1190  0.0366  0.2764
22884W        W39018  19.241   8.814   1.834  0.4294  0.0201  0.0992
22885W        W39019   8.381  18.192   4.560  0.0812  0.0678 -0.3879
22886W        W39020  14.480   9.939  10.428  0.1638  0.5577 -0.0231
22887W        W39021   3.158  17.844  11.134 -0.2004 -0.3090  0.0013
22888W        W39022   1.796   0.611  11.934  0.1211 -0.0574  0.3075
22889W        W39023  19.115   2.303   0.641  0.0649  0.3991  0.2289
22890W        W39024   4.865   2.549  10.580 -0.2402 -0.1717 -0.0343
22891W        W39025  14.066  15.212   3.868 -0.2696  0.0746 -0.3998
22892W        W39026  14.563  18.778   2.516  0.0151  0.1161  0.1116
22893W        W39027   8.657  14.937   4.513  0.3434  0.1425 -0.0169
22894W        W39028   1.386  17.317  13.959 -0.0491 -0.0025  0.3218
22895W        W39029   2.432   4.265   1.480 -0.0391 -0.0779  0.1807
22896W        W39030   2.895   1.063  12.334  0.1122 -0.0083  0.0725
22897W        W39031   2.982  17.820   4.102 -0.0529 -0.1263  0.0705
22898W        W39032  16.400  16.270   1.375  0.3827 -0.2399  0.1859
22899W        W39033   3.453  13.383  14.258 -0.2012  0.0696 -0.1950
22900W        W39034  16.339   2.900  11.612 -0.0503  0.0473 -0.2381
22901W        W39035   9.967   6.512   0.123  0.0196 -0.0914  0.0870
22902W        W39036   3.973   0.973   0.759  0.1504 -0.0555 -0.0184
22903W        W39037  17.312   8.764  10.951  0.2152  0.2050 -0.1425
22904W        W39038   6.030  14.914   5.910  0.0431 -0.1375  0.3833
22905W        W39039  15.947  18.392   5.233 -0.2225  0.0679  0.0084
22906W        W39040  17.914   8.662  11.751 -0.0290 -0.0629  0.2982
22907W        W39041  15.140   5.291  14.268  0.1848  0.3162 -0.1949
22908W        W39042  19.126   6.927   9.985 -0.2918 -0.2325  0.1484
22909W        W39043   4.934  13.958  11.791 -0.2989  0.2579 -0.0708
22910W        W39044  16.197  15.398   1.694  0.1104  0.0745 -0.1395
22911W        W39045  18.586  16.394  14.629  0.0579 -0.0601  0.2481
22912W        W39046  17.747   1.803   1.963 -0.1489 -0.0558  0.1404
22913W        W39047  12.266   9.616  12.596 -0.1348  0.0944 -0.2129
22914W        W39048   3.206  18.833   1.041 -0.0135  0.0307 -0.0572
22915W        W39049   4.186  12.395   0.951 -0.0104 -0.2760  0.0418
22916W        W39050  18.488   7.869  12.690 -0.2157  0.0180  0.3829
22917W        W39051  10.409   5.906   0.260  0.0010  0.1401  0.2456
22918W        W39052  16.714   4.130  14.160 -0.0386 -0.0922  0.1946
22919W        W39053   7.924  18.563   1.219 -0.2336  0.0351 -0.0650
22920W        W39054  17.864  18.152   0.636  0.1263  0.1097  0.1155
22921W        W39055  10.219   7.010  10.374  0.0108  0.0236 -0.1010
22922W        W39056  17.097   0.685  11.569  0.2390  0.0676  0.2592
22923W        W39057   0.103   8.205  10.666  0.2331  0.0005  0.1630
22924W        W39058   0.033  16.708  14.087 -0.1105  0.1311  0.2327
22925W        W39059   5.060  19.298   0.820  0.4852 -0.1795  0.1509
22926W        W39060   7.640   4.502  12.755 -0.3995 -0.1689  0.0073
22927W        W39061  19.128   4.669  12.462 -0.0740 -0.2164  0.1421
22928W        W39062  18.725  18.237  11.114 -0.0595 -0.2699  0.1771
22929W        W39063  17.942   3.688   0.030  0.1186 -0.1612  0.0496
22930W        W39064  12.875  12.520  13.285  0.2920 -0.0604 -0.0272
22931W        W39065  15.499   9.523  11.124  0.0800 -0.3669  0.2658
22932W        W39066   9.792  11.575  11.144 -0.2157 -0.1684  0.1406
22933W        W39067   6.943  16.282   0.462 -0.1078  0.1053  0.0879
22934W        W39068   5.878   7.413   4.404 -0.1002  0.0016  0.1318
22935W        W39069   9.977   1.745  13.157  0.0732 -0.4776  0.1481
22936W        W39070   7.620  13.661   2.888 -0.2703 -0.0076  0.1132
22937W        W39071  19.119   2.532   4.733  0.2368  0.0878 -0.2678
22938W        W39072  15.680   1.049   5.857 -0.0701 -0.1582  0.1215
22939W        W39073  12.450  11.438   2.347 -0.3635  0.2103 -0.1816
22940W        W39074  18.264   1.623   1.893 -0.0820  0.1435  0.2699
22941W        W39075   3.866  18.879  11.549 -0.1624 -0.3389 -0.0280
22942W        W39076   8.912  13.138   4.699  0.0587  0.3975 -0.1285
22943W        W39077   8.652   9.299   4.710  0.3484 -0.0306 -0.2187
22944W        W39078   0.571  18.305   2.460  0.5245  0.1525  0.0480
22945W        W39079  16.995  14.682   1.903 -0.1131 -0.1951  0.0747
22946W        W39080  12.798   6.732   5.236  0.0131  0.1985  0.0890
22947W        W39081  13.998  10.760  14.601  0.2401  0.0086 -0.1337
22948W        W39082  19.319  16.466   0.413 -0.3649 -0.0340  0.1651
22949W        W39083   9.827   8.554  11.125  0.1085  0.3590  0.0826
22950W        W39084   7.323  11.478  12.616 -0.1273  0.0159 -0.2180
22951W        W39085   9.163  17.128  14.872  0.1983  0.1567 -0.0683
22952W        W39086   4.862   1.251   5.238  0.0106  0.1039 -0.2551
22953W        W39087  12.179  16.931   2.835  0.4818 -0.3890  0.0789
22954W        W39088   2.228  17.104   0.690 -0.0406  0.0554  0.1499
22955W        W39089  16.328  12.590   4.229  0.2984  0.2605 -0.0679
22956W        W39090  17.137  10.069  14.425  0.1947 -0.1415 -0.1449
22957W        W39091   8.965  11.054   0.691 -0.2359 -0.2567  0.2081
22958W        W39092  17.777  18.594  10.322 -0.0581 -0.0567  0.0846
22959W        W39093  13.598  15.381   2.571  0.0603 -0.2106 -0.1158
22960W        W39094   5.716  14.694  11.368  0.0118 -0.0515 -0.1587
22961W        W39095   7.905  12.506   0.989  0.0849 -0.1895 -0.0008
22962W        W39096  17.403  12.081   9.331 -0.1822 -0.1847  0.1283
22963W        W39097   5.319  15.189   3.114 -0.1142  0.1315  0.0240
22964W        W39098   8.816   8.357  10.123 -0.0491 -0.1007 -0.3051
22965W        W39099  14.346   3.335   4.301  0.1462 -0.0373 -0.1119
22966W        W39100  10.276   7.888   2.213  0.0482 -0.2540  0.0252
22967W        W39101   3.696   9.554  10.266  0.1577  0.0732 -0.1375
22968W        W39102   3.121  16.505   4.410  0.0219 -0.1880  0.0650
22969W        W39103  10.056   2.419  13.425 -0.2186 -0.0364 -0.0999
22970W        W39104   1.004  17.015   2.902  0.0301  0.1953  0.0387
22971W        W39105   0.209   5.681  12.287  0.3398  0.0364 -0.1103
22972W        W39106   6.839  12.077   1.504  0.0520  0.2735 -0.0143
22973W        W39107  15.471  12.881  12.385 -0.4368  0.0591  0.0962
22974W        W39108   4.408  10.169   3.068  0.2680  0.1180  0.0472
22975W        W39109  18.639   6.265   4.293  0.2536  0.2190  0.1580
22976W        W39110   6.388  15.910   2.010 -0.2817 -0.0318 -0.0136
22977W        W39111   9.281  14.815   3.920  0.2596 -0.0077  0.3121
22978W        W39112   4.651  13.193   0.803  0.5141 -0.0499  0.1393
22979W        W39113  18.732   7.259  10.926  0.0937 -0.0634 -0.0784
22980W        W39114  12.902  11.816   4.813 -0.0429  0.0257  0.4460
22981W        W39115   5.507  13.527   0.580  0.0762 -0.1389  0.3798
22982W        W39116  19.337  16.302   4.404 -0.2525  0.2831  0.0189
22983W        W39117   4.528  18.134  10.914 -0.1864  0.1970  0.1418
22984W        W39118   0.315  14.172   3.804  0.0570  0.1795 -0.1037
22985W        W39119   6.353   1.597  10.725 -0.4865 -0.3018 -0.1875
22986W        W39120  17.595  18.484   5.090  0.3079 -0.3324 -0.2092
22987W        W39121  16.859  16.221   3.023 -0.1241  0.3094 -0.1781
22988W        W39122  17.165  15.182  14.091 -0.2621  0.3436  0.0268
22989W        W39123  16.621  13.536   1.131  0.1868  0.2589 -0.4174
22990W        W39124   4.943   9.648   0.377 -0.0880 -0.1377  0.1278
22991W        W39125   8.641   0.931  13.542 -0.3071 -0.1584 -0.2232
22992W        W39126  16.044  14.553   1.716 -0.0860 -0.4380 -0.1233
22993W        W39127  16.941   5.124   3.169  0.2687  0.1023  0.1326
22994W        W39128  18.187  19.240  12.730  0.3995 -0.1339 -0.0466
22995W        W39129  15.663   3.218  14.874  0.2560 -0.2625  0.1141
22996W        W39130  10.165  12.512  10.890 -0.0865 -0.0808  0.3105
22997W        W39131   3.706  15.566  12.914 -0.2949  0.0792  0.0130
22998W        W39132  15.339  19.296   0.726 -0.0996 -0.2478  0.1077
22999W        W39133  19.192  17.945   1.078  0.2482  0.0864  0.1783
23000W        W39134  10.008   3.076  13.003  0.0720  0.1115  0.2525
23001W        W39135  15.106   9.609  11.980 -0.1231  0.2525  0.3165
23002W        W39136  14.087   3.142   0.668 -0.1330 -0.2932  0.2667
23003W        W39137   5.898   8.290  13.642 -0.2497 -0.0675  0.2420
23004W        W39138  18.768  16.623  10.345  0.1812  0.0900  0.0266
23005W        W39139  17.915  13.550   3.551 -0.0702 -0.1021 -0.0843
23006W        W39140  18.220  12.418   1.212 -0.0823  0.0017  0.0353
23007W        W39141   8.778  14.741  12.536  0.2548 -0.0353 -0.0313
23008W        W39142   3.756  16.831   3.446 -0.2463 -0.0170  0.0941
23009W        W39143  16.454   5.924  13.283  0.2977  0.1563  0.1951
23010W        W39144   6.910   6.940   0.717 -0.3071 -0.1434  0.2034
23011W        W39145   5.122  18.862  11.018 -0.0350 -0.0381  0.0391
23012W        W39146   5.140   5.014   4.394  0.0635  0.0019 -0.3199
23013W        W39147   7.727  10.230   4.534 -0.2176 -0.1082 -0.1967
23014W        W39148  18.618  15.485   0.078  0.0513 -0.2619 -0.0118
23015W        W39149   7.494   2.945   2.031  0.1926  0.2605 -0.0356
23016W        W39150   8.282  16.252  11.150 -0.0217 -0.2057 -0.1964
23017W        W39151   4.173  18.801   5.120 -0.3312  0.2004  0.1665
23018W        W39152  17.246  18.059   5.304  0.0464  0.1260 -0.0290
23019W        W39153  13.668  18.877  12.915 -0.1517  0.2717 -0.1171
23020W        W39154   6.309   8.334   0.934 -0.1966 -0.1011  0.0742
23021W        W39155   4.935  17.119   3.978  0.1983 -0.1296  0.2307
23022W        W39156  17.326   3.542  14.886  0.0103 -0.0754 -0.1603
23023W        W39157  12.088  15.444   3.064  0.1398 -0.3148 -0.1540
23024W        W39158   9.273   6.334  11.560 -0.1806  0.1431  0.1070
23025W        W39159   3.912   9.798   1.543  0.2897 -0.1242  0.2261
23026W        W39160   6.909   6.203   2.302  0.0182  0.2469  0.0729
23027W        W39161   9.066   4.186   2.822 -0.1724 -0.0027 -0.1740
23028W        W39162  17.001  17.362  12.287 -0.0978  0.1070 -0.0888
23029W        W39163   1.875  15.565   1.038  0.2452 -0.3684 -0.0969
23030W        W39164   9.177  15.365   2.569 -0.1212 -0.0569 -0.2677
23031W        W39165  10.896   8.727   0.829 -0.1494 -0.2567 -0.1105
23032W        W39166  12.797   1.207  12.341  0.2153 -0.2013  0.0858
23033W        W39167  14.641   9.344  11.921 -0.1789  0.3222 -0.4116
23034W        W39168   1.535  11.394   4.500  0.2276 -0.3141 -0.1995
23035W        W39169  10.997   9.039   1.906 -0.1859  0.1479 -0.3211
23036W        W39170   1.841   5.821   1.066 -0.3365  0.0360  0.2981
23037W        W39171   7.303  16.764   4.870 -0.1068 -0.0964  0.1252
23038W        W39172   0.086   5.847  10.296 -0.0534  0.0150 -0.1838
23039W        W39173   7.884  11.806   3.688  0.2530 -0.1602 -0.2957
23040W        W39174  10.374   3.942   2.789  0.0318  0.1956  0.1978
23041W        W39175  12.943  14.423  11.702  0.5667  0.0414  0.1288
23042W        W39176   1.959   5.990   0.035  0.0330 -0.3769 -0.0424
23043W        W39177  18.483  11.514  14.505  0.1510  0.0073 -0.2111
23044W        W39178  14.789   1.123  12.913  0.0142 -0.4930  0.4764
23045W        W39179   3.386  15.915  12.749 -0.0173 -0.0440 -0.3106
23046W        W39180   7.086   3.571   4.161  0.2279 -0.2319  0.2604
23047W        W39181  12.960   7.334   3.834  0.2271 -0.2098 -0.0537
23048W        W39182   6.172   8.122   4.192  0.4215 -0.2886 -0.0244
23049W        W39183  16.229   8.370  14.747  0.1208 -0.2723 -0.1992
23050W        W39184  13.779  17.219  10.965  0.0482  0.0612  0.1383
23051W        W39185  10.315   6.515   1.446 -0.1553 -0.0702 -0.1102
23052W        W39186  18.472  15.887  13.465  0.0531  0.1849 -0.0076
23053W        W39187  13.947   9.123   5.167 -0.1395  0.0762  0.2329
23054W        W39188   7.384  19.350  10.737  0.4438  0.1854 -0.0595
23055W        W39189   2.171  11.864  10.155 -0.0461  0.2415 -0.2382
23056W        W39190   6.953   2.331  11.803 -0.0129  0.1522 -0.0915
23057W        W39191  14.056   0.495   4.851  0.1757  0.0701 -0.0394
23058W        W39192   2.537   3.690  10.310  0.0698 -0.0268 -0.0326
23059W        W39193   7.754   5.161   2.212 -0.2294  0.0897  0.2264
23060W        W39194   7.227   5.251   4.833  0.0285  0.1341 -0.3241
23061W        W39195   6.583   9.739   1.356  0.0079 -0.2530  0.1683
23062W        W39196  16.109   4.537   0.970 -0.1525  0.1650 -0.1701
23063W        W39197   2.330  13.788   5.288  0.2823 -0.2833  0.3691
23064W        W39198   7.911  13.294  13.261 -0.1406 -0.1319 -0.1374
23065W        W39199  10.271  13.407   2.435  0.2404 -0.0622  0.1360
23066W        W39200   6.107  13.495   1.523  0.1200 -0.1372 -0.0273
23067W        W39201   9.230  17.038   5.123 -0.1711  0.1817 -0.0048
23068W        W39202  13.517  14.455  11.564 -0.0450 -0.1760  0.1097
23069W        W39203   1.970   9.981  10.352 -0.1741  0.1242 -0.4548
23070W        W39204   3.860   3.143   3.521  0.3745  0.1501  0.0913
23071W        W39205   6.716   2.986  12.228  0.3809 -0.0735  0.1630
23072W        W39206  16.503  13.393   2.826 -0.0764 -0.1917  0.0094
23073W        W39207   8.547  18.851  14.695  0.2284  0.3243 -0.1176
23074W        W39208  16.323   6.966   2.894 -0.1017  0.1200  0.1414
23075W        W39209   8.929  16.307   0.134 -0.1699 -0.0001 -0.0341
23076W        W39210   0.912   9.616   1.704 -0.0477 -0.0666  0.1705
23077W        W39211  14.368  18.897   0.840  0.0108  0.0938 -0.1267
23078W        W39212   1.107   6.963   9.381 -0.0458 -0.0557 -0.1094
23079W        W39213  16.995   3.931  13.760 -0.0911 -0.1309  0.1228
23080W        W39214   3.341   6.120  12.998 -0.2074 -0.0182  0.0834
23081W        W39215  12.300   2.631  14.009  0.0382  0.0929  0.2447
23082W        W39216  12.943   2.263   4.085 -0.0387 -0.0656  0.1313
23083W        W39217  14.593   6.461   0.658 -0.1497  0.1178 -0.0371
23084W        W39218   1.006   4.635  11.347 -0.1663 -0.2975  0.2111
23085W        W39219  11.207   4.892  11.058  0.4034  0.4315 -0.1845
23086W        W39220   6.327   9.844  11.723 -0.1776 -0.4651 -0.1178
23087W        W39221   7.550  18.445   5.203 -0.0197  0.4094 -0.2336
23088W        W39222   5.856   6.677  12.746  0.1322 -0.0412  0.0823
23089W        W39223   6.349   1.638   9.825  0.1951 -0.1267  0.0012
23090W        W39224  11.236   4.901   1.959  0.2610  0.0772 -0.3370
23091W        W39225   8.250   5.039  13.092 -0.2131  0.1048 -0.0981
23092W        W39226   3.350   0.274  12.667 -0.1399  0.1791 -0.0805
23093W        W39227   5.203  14.577  14.375  0.1202 -0.2033  0.1017
23094W        W39228  15.150   5.054   4.520  0.1578 -0.0996 -0.0677
23095W        W39229  11.041  18.758   2.001  0.0841 -0.1329 -0.0643
23096W        W39230  10.933   4.117  11.342  0.3328 -0.0444  0.3766
23097W        W39231   2.608  15.534  14.948  0.1930  0.0095  0.3153
23098W        W39232   6.777  15.158   5.413  0.1610  0.1002 -0.0030
23099W        W39233  18.110   7.066  11.448  0.4147 -0.0276  0.0780
23100W        W39234   5.011   9.545  14.301  0.0496 -0.1321  0.0079
23101W        W39235   8.464   7.978  12.563 -0.0795  0.2355  0.0454
23102W        W39236  13.193  16.110   4.629  0.0434  0.1533  0.1425
23103W        W39237   0.710  14.274  10.746 -0.1688  0.3032  0.1338
23104W        W39238  15.491   3.904   4.757  0.3824  0.0588 -0.0036
23105W        W39239   7.936   2.784   1.879 -0.4481 -0.0230 -0.0971
23106W        W39240   8.746  14.139   1.893  0.0871  0.1072  0.2273
23107W        W39241  12.926   9.544   1.107  0.1560  0.0833 -0.1319
23108W        W39242  14.961  13.493   4.056 -0.3829  0.2596 -0.0840
23109W        W39243   8.531   0.375   0.740  0.1171  0.1363 -0.4053
23110W        W39244   6.786   9.877   4.140 -0.2431  0.2190 -0.0231
23111W        W39245   4.467   7.909   4.804  0.1499  0.1856 -0.2510
23112W        W39246  11.278  16.596   2.989 -0.0430 -0.0766  0.0174
23113W        W39247  16.235   2.576  11.197  0.2800 -0.0598 -0.0997
23114W        W39248  18.012   6.818  11.931 -0.1056 -0.0551 -0.2353
23115W        W39249  14.493   9.294  13.473 -0.4287  0.0101  0.1588
23116W        W39250   4.285  10.715  14.002  0.1243  0.0681  0.1891
23117W        W39251  14.123   4.312   0.911  0.2879 -0.4004  0.0709
23118W        W39252   8.484   2.451  11.561 -0.0952 -0.0147  0.0642
23119W        W39253   6.342   6.103  11.203 -0.1367  0.1128  0.0914
23120W        W39254  10.394  17.905   0.222 -0.2734 -0.2464  0.0027
23121W        W39255  18.732   7.188   9.883 -0.2437  0.1510  0.0385
23122W        W39256   7.297   7.444   4.670 -0.0043 -0.1267 -0.1812
23123W        W39257   7.040  14.790   4.878  0.1233  0.2031  0.1102
23124W        W39258  13.477   8.617   1.227  0.1752 -0.2985  0.3500
23125W        W39259  17.753  18.449   3.581  0.2415 -0.0930  0.1158
23126W        W39260   1.295   6.608  13.065  0.0239  0.1095 -0.1527
23127W        W39261   0.670   7.300  14.254  0.2484  0.0487  0.0684
23128W        W39262   2.319  10.686  13.527 -0.0439 -0.4014 -0.4491
23129W        W39263   8.224  10.575   1.089  0.0631  0.3639  0.4314
23130W        W39264   7.329   6.288  14.540  0.5413 -0.1199 -0.2036
23131W        W39265  12.856  17.261  11.042 -0.4206  0.0638  0.1021
23132W        W39266   5.334   2.184  10.665 -0.3171 -0.1637 -0.0214
23133W        W39267  12.028   3.109  10.873  0.0619  0.2969 -0.0054
23134W        W39268  11.145   9.055   3.142 -0.0358  0.0292 -0.0242
23135W        W39269   7.294  18.859  10.969  0.2016 -0.0827  0.0375
23136W        W39270  13.735   0.817  12.334  0.5135  0.2372 -0.1268
23137W        W39271  18.601   8.492   2.735 -0.0608 -0.1589  0.2986
23138W        W39272  18.174   2.503   3.076  0.4087 -0.3521 -0.0320
23139W        W39273  17.181   6.645  12.930 -0.1127 -0.1181 -0.1463
23140W        W39274  11.819  12.668   0.713  0.1623  0.2109  0.3478
23141W        W39275   0.615   6.653   0.804 -0.1840  0.1691 -0.3466
23142W        W39276  18.815  11.743   3.890 -0.0642  0.0158 -0.1409
23143W        W39277   3.644  12.016  10.584  0.1376  0.0564 -0.2744
23144W        W39278  12.898  14.219   1.812  0.0628 -0.1389 -0.3008
23145W        W39279   9.689   8.475  14.456  0.0857 -0.0894  0.1462
23146W        W39280   1.926   1.519   3.082 -0.0226 -0.0315 -0.1913
23147W        W39281  13.921  17.103  11.566 -0.1040  0.0469 -0.0225
23148W        W39282  17.689   1.450  14.905  0.2793 -0.0210  0.3656
23149W        W39283  12.906   2.684  12.747 -0.0853 -0.2121 -0.0959
23150W        W39284   7.422  19.005   9.909 -0.2253  0.1008  0.0066
23151W        W39285  12.269  14.134  10.830  0.0153  0.1309  0.1665
23152W        W39286   8.789   8.547  13.426 -0.0660 -0.2981 -0.1643
23153W        W39287  10.821  12.268  12.564  0.0886 -0.1496 -0.0567
23154W        W39288  12.720   3.555  11.975 -0.1878  0.2289  0.0825
23155W        W39289  13.004   5.304   0.159  0.0350  0.1738 -0.1292
23156W        W39290   1.605   6.327  14.379 -0.1372 -0.4361 -0.0173
23157W        W39291   1.357   6.885   9.835 -0.0114 -0.1326 -0.0432
23158W        W39292   3.404  14.152  12.564  0.1634  0.0864  0.2720
23159W        W39293  13.359   5.710  11.005  0.0571  0.0557 -0.1287
23160W        W39294   9.773   3.648   0.358 -0.1151  0.2085 -0.0165
23161W        W39295  17.080   2.853   2.295 -0.5571 -0.1815 -0.1400
23162W        W39296  17.949   0.799   4.160 -0.5353  0.0900  0.0184
23163W        W39297  16.620  11.935   0.914 -0.3092 -0.2160  0.0057
23164W        W39298   7.300   1.249   2.020 -0.2942  0.2045  0.1444
23165W        W39299   2.228   9.397  12.134  0.1215  0.1498  0.0323
23166W        W39300   6.665   1.508   2.629  0.1019 -0.2293 -0.1977
23167W        W39301  12.011   7.698  11.435 -0.0723  0.4099 -0.0777
23168W        W39302  14.431   4.744   2.759  0.1400  0.0110  0.0447
23169W        W39303   8.627   5.396   1.927 -0.1420  0.1053  0.1385
23170W        W39304   6.936   0.773  14.968 -0.1337  0.1218  0.0882
23171W        W39305   1.278   8.572  14.733 -0.1694 -0.4450 -0.1646
23172W        W39306  12.552   2.881   3.724 -0.2481  0.1620 -0.0487
23173W        W39307   8.672   1.161   9.842  0.0018 -0.0561  0.3743
23174W        W39308  14.341   0.977  12.692  0.0032 -0.1647  0.0252
23175W        W39309   3.859   2.110   1.190 -0.0093  0.2285 -0.2277
23176W        W39310  14.831   6.152  11.667 -0.2875 -0.3310  0.2590
23177W        W39311   3.895  17.672   4.832 -0.2979 -0.2708  0.0027
23178W        W39312   7.099   3.391  12.799 -0.0848 -0.0083  0.2342
23179W        W39313   5.781   4.586   0.006  0.2565  0.1808  0.2510
23180W        W39314   9.798   5.885  13.758  0.1231 -0.0892  0.0015
23181W        W39315  19.179   6.552  12.038 -0.1962 -0.0121 -0.4107
23182W        W39316   5.104  14.929   4.397  0.1969  0.1152 -0.1717
23183W        W39317   2.488  14.435   0.516  0.0393 -0.0513  0.2594
23184W        W39318  17.211  17.452  12.812 -0.1924 -0.2886  0.0063
23185W        W39319   6.460  13.636  13.625 -0.2886 -0.1142  0.1537
23186W        W39320   2.144   3.131  10.705  0.1202 -0.0509  0.3541
23187W        W39321  10.984   2.876  12.657 -0.2280  0.2439  0.0943
23188W        W39322  14.190   3.241   2.947  0.0926 -0.1082 -0.0056
23189W        W39323   8.716  12.492  14.823 -0.0260 -0.0498  0.2066
23190W        W39324   7.588  18.626  14.079  0.2363  0.2054  0.0489
23191W        W39325  14.174   3.128  13.681  0.3731  0.2232 -0.0183
23192W        W39326   0.511  12.546  10.936  0.1549  0.0011 -0.0216
23193W        W39327  12.102  14.804  14.345  0.1113 -0.2941  0.0353
23194W        W39328  13.906   7.591   0.134 -0.4457  0.0156 -0.3044
23195W        W39329   8.252  10.868   3.748  0.2244  0.0316 -0.2436
23196W        W39330   9.102  18.786   2.031 -0.0770 -0.0755 -0.2137
23197W        W39331   0.730  18.890   4.333  0.1243  0.0202 -0.2911
23198W        W39332  10.730   2.259   1.651  0.0064 -0.0517 -0.1201
23199W        W39333   2.230   8.026  11.067 -0.1141  0.0433 -0.0206
23200W        W39334   7.120  13.727  13.870  0.0462 -0.2236 -0.0377
23201W        W39335  13.386  16.045   1.794 -0.1857  0.1674 -0.0043
23202W        W39336  13.319   2.077  12.567 -0.1378  0.0164  0.2346
23203W        W39337   2.117  11.484   2.657 -0.2956 -0.0768  0.2151
23204W        W39338  13.657   8.879  13.370 -0.0241 -0.2803  0.2238
23205W        W39339  13.944  17.550   4.246  0.1048  0.1566 -0.0301
23206W        W39340   1.672   8.316  13.328 -0.2184 -0.1453  0.1508
23207W        W39341   0.404  15.066   4.317 -0.0923 -0.2472  0.3582
23208W        W39342   4.221  13.543   3.970 -0.0697 -0.3987 -0.0188
23209W        W39343   6.575   8.607  10.577 -0.1374  0.4709 -0.0799
23210W        W39344   6.712  17.551   0.718 -0.3412  0.1022 -0.1715
23211W        W39345  10.656   9.421  11.456 -0.0626  0.2485 -0.1267
23212W        W39346  13.071   2.314   2.654 -0.0339  0.1606  0.2313
23213W        W39347   2.404  16.893  13.009 -0.1664 -0.0074 -0.0641
23214W        W39348  10.503   6.685  11.594  0.0482  0.0029 -0.0433
23215W        W39349   1.047  18.408   3.891  0.3848 -0.1174 -0.1096
23216W        W39350   2.570   4.477  11.655  0.2241 -0.2506 -0.0049
23217W        W39351   1.628  17.323  10.816 -0.2059 -0.1076 -0.0459
23218W        W39352  16.785  18.835   6.446 -0.4638 -0.0454 -0.2553
23219W        W39353  18.170   0.083  13.419  0.0338 -0.2507  0.2114
23220W        W39354  19.032  11.292   1.563  0.0936 -0.1936  0.0008
23221W        W39355   0.561  18.943  11.460 -0.2199  0.3248 -0.4131
23222W        W39356  12.965   1.720   5.457  0.1159 -0.0188 -0.1828
23223W        W39357  16.698   0.794   2.967  0.1636 -0.4485 -0.0917
23224W        W39358   3.956  13.911   2.286  0.0353  0.2296 -0.3598
23225W        W39359  13.100   1.803   3.341  0.0993 -0.0449 -0.0269
23226W        W39360   8.231   5.851   2.719 -0.0866  0.2699 -0.0926
23227W        W39361   4.481  19.126  12.104  0.3206  0.1348 -0.0324
23228W        W39362  10.225  18.147   3.897 -0.3582  0.1383  0.3059
23229W        W39363   5.412  10.284  11.239  0.2180 -0.2941  0.1533
23230W        W39364  13.625  15.058   1.650 -0.1699 -0.2493  0.5015
23231W        W39365  18.779  18.714  10.996  0.0405  0.4529 -0.1788
23232W        W39366  14.361  16.046  12.145  0.2741  0.1353 -0.2172
23233W        W39367  12.398  15.306   0.200  0.0589 -0.2759 -0.0124
23234W        W39368   5.382   9.467   0.061 -0.1402 -0.0176  0.0042
23235W        W39369  13.886  15.029  10.889 -0.1462  0.0210 -0.0981
23236W        W39370   4.814   8.025   2.368 -0.2377  0.2985  0.0501
23237W        W39371  19.117  13.911  13.184 -0.2107 -0.0092  0.1670
23238W        W39372  16.651   1.180   5.352  0.4461  0.0594  0.2460
23239W        W39373   3.365  17.470   3.208  0.3176  0.0427  0.2062
23240W        W39374  19.210  11.684   2.070  0.0517  0.0991  0.0974
23241W        W39375   5.955   0.986  14.061 -0.1069 -0.4244  0.2370
23242W        W39376  16.235   8.939   1.948  0.1970  0.2191  0.0717
23243W        W39377  14.388  13.607  10.857  0.1975  0.0145 -0.2694
23244W        W39378   0.769   0.039  12.334 -0.2380 -0.0752  0.3046
23245W        W39379   4.822  16.760   3.651  0.0156  0.0948 -0.0627
23246W        W39380   3.656   7.016  11.719 -0.0572 -0.3158 -0.2299
23247W        W39381   9.601   8.101  13.262  0.0437 -0.0798 -0.2327
23248W        W39382  10.299  14.076   0.359 -0.0424  0.2134  0.1198
23249W        W39383   4.304  17.368   3.167 -0.2651  0.1180  0.1044
23250W        W39384   9.489  19.343   1.541 -0.4108  0.0472  0.2344
23251W        W39385  19.015  15.895   0.333 -0.2016  0.3470 -0.0888
23252W        W39386   5.701   6.279   1.485  0.1224  0.1147  0.1318
23253W        W39387   9.960  16.610  12.826  0.0126 -0.0876  0.0869
23254W        W39388  17.473   4.944   0.718 -0.3191 -0.3290  0.1956
23255W        W39389   3.753  12.958   0.167 -0.1726 -0.0549 -0.0991
23256W        W39390  10.638  12.308  10.912  0.1866  0.2957 -0.2416
23257W        W39391   1.549  17.867   1.679 -0.0725  0.0585  0.1273
23258W        W39392   5.865  14.371   1.683 -0.5776  0.1190 -0.2173
23259W        W39393   3.406  11.220   0.254 -0.3055  0.0741  0.1553
23260W        W39394  17.037  17.107  10.927  0.2219  0.1614 -0.4706
23261W        W39395   9.423   5.682  11.041 -0.1267 -0.2323  0.1113
23262W        W39396   7.335  15.407  12.902 -0.0335  0.0110  0.0265
23263W        W39397  10.241  18.287   2.446 -0.1552 -0.0300  0.0154
23264W        W39398  11.914   2.642  11.149 -0.1978 -0.1810  0.0616
23265W        W39399   6.951  18.219  10.183  0.0237 -0.4232 -0.1313
23266W        W39400   9.627   0.852  11.389  0.0292 -0.0681 -0.2344
23267W        W39401  13.175   6.010   0.838 -0.2428  0.3558  0.0361
23268W        W39402  11.095   7.554   4.151 -0.1551 -0.2341 -0.2173
23269W        W39403  18.814  15.770  10.825 -0.1510  0.0480  0.0375
23270W        W39404  19.057   0.223   4.385  0.3992 -0.0285 -0.0155
23271W        W39405   6.771   4.264   4.344  0.3960  0.0391  0.1829
23272W        W39406   1.817   3.043   9.922  0.1120  0.0633 -0.2123
23273W        W39407   6.532   1.375  12.349  0.0036  0.0168 -0.1687
23274W        W39408  13.140  13.044   4.095 -0.2067  0.2216 -0.0304
23275W        W39409   7.349  19.268  13.830 -0.1283 -0.1607  0.1230
23276W        W39410   5.386   0.772  12.908 -0.0787 -0.0086  0.0003
23277W        W39411   8.934  11.893  10.814  0.0889 -0.4016 -0.3223
23278W        W39412   7.412   4.742   4.208  0.2504 -0.1447  0.2179
23279W        W39413  10.445  17.860  10.689  0.0841 -0.1804  0.2144
23280W        W39414   7.654   5.602  12.923  0.2661  0.0593  0.3436
23281W        W39415   3.222  17.357   1.911 -0.1611  0.3574 -0.1124
23282W        W39416  12.400   8.319   1.742  0.1095 -0.1768  0.0062
23283W        W39417  10.086   0.182   3.752  0.0214 -0.1060 -0.3151
23284W        W39418   0.232  18.430  11.328  0.1562  0.0920  0.0210
23285W        W39419  19.344  13.216   2.537 -0.4314  0.2211 -0.0536
23286W        W39420  12.116  17.988  11.290  0.1450 -0.0703  0.0614
23287W        W39421   2.104  10.511  14.281 -0.3013  0.0307 -0.1394
23288W        W39422   3.419  11.395   9.319  0.1502 -0.2831  0.1548
23289W        W39423   5.187  18.934  14.775 -0.1379 -0.1870  0.0995
23290W        W39424   5.749  19.281  12.014  0.3771  0.0811 -0.2349
23291W        W39425   4.016  12.246  10.736  0.0580 -0.2861  0.1727
23292W        W39426   5.041  17.590   5.419 -0.2892 -0.5532 -0.1782
23293W        W39427  10.408  12.492  13.319  0.2122  0.3661 -0.1148
23294W        W39428   7.481   7.771   3.665  0.3329 -0.0808 -0.1550
23295W        W39429   4.673   9.164  14.227  0.0804 -0.0692 -0.0703
23296W        W39430   6.828  18.064   4.916  0.0010 -0.2804 -0.1597
23297W        W39431   4.090   6.642  10.925 -0.2613  0.2031  0.2544
23298W        W39432  13.131   2.202   5.334  0.1771 -0.0628  0.0547
23299W        W39433   3.058   2.839  14.340 -0.0326 -0.2002  0.4644
23300W        W39434   8.435   6.128   4.785  0.1056 -0.3015  0.1180
23301W        W39435   0.374  18.317   1.960 -0.2002 -0.2416 -0.1432
23302W        W39436   2.080   2.045  12.041 -0.0508  0.3302  0.0245
23303W        W39437   2.519  11.326   1.169  0.0708 -0.1346 -0.1155
23304W        W39438   4.245  15.461  13.891  0.4279 -0.0325  0.2036
23305W        W39439   3.132  14.761   2.911 -0.0790 -0.2632  0.1173
23306W        W39440   0.599   8.753  11.103  0.0327 -0.0116  0.0077
23307W        W39441  19.154  12.631   2.085 -0.1680 -0.4657 -0.3071
23308W        W39442  14.269   8.813  13.625  0.2201 -0.3375 -0.0771
23309W        W39443   0.789  16.757   3.203  0.2178  0.0641  0.0649
23310W        W39444   1.011  17.026   0.879 -0.1267  0.2593 -0.1056
23311W        W39445  13.211   5.940  13.527 -0.3547  0.0940 -0.3424
23312W        W39446   8.542  17.553   0.960 -0.0483 -0.0238  0.1673
23313W        W39447   2.595  14.174  10.346  0.0542  0.2009 -0.0380
23314W        W39448  12.596  10.592   1.845 -0.0256  0.0303  0.1207
23315W        W39449   8.003   9.725   1.517 -0.0323  0.0794  0.1600
23316W        W39450   2.139  11.780   9.629 -0.1673  0.0545  0.0617
23317W        W39451   6.116   9.656   1.508 -0.0420 -0.2981  0.1453
23318W        W39452   7.435   8.177  12.478 -0.1126 -0.1192 -0.1207
23319W        W39453   8.843  16.717  13.567 -0.0353  0.1083 -0.1396
23320W        W39454   4.806  11.758  10.690  0.1299  0.1864  0.2095
23321W        W39455   5.557   1.782  14.460 -0.0592  0.0907 -0.1556
23322W        W39456   5.253   3.352  11.305 -0.0224 -0.3700 -0.1228
23323W        W39457   8.133   5.426   3.664 -0.0154 -0.2382  0.0594
23324W        W39458   4.183  15.000   4.670 -0.1411  0.1232 -0.1874
23325W        W39459   5.977   2.048   1.449 -0.1553 -0.1792 -0.1249
23326W        W39460   3.269  14.953   0.134 -0.2403  0.0301 -0.0652
23327W        W39461   3.036   7.793  12.006  0.1319 -0.2812  0.3398
23328W        W39462  15.893   6.116  13.250 -0.1823  0.4304 -0.0424
23329W        W39463   9.941   5.689   3.480  0.2515 -0.1803  0.0719
23330W        W39464   8.401  13.841   1.599 -0.0147  0.2087 -0.0861
23331W        W39465  11.489  12.281   3.945 -0.1312 -0.0958 -0.4365
23332W        W39466  15.475   6.853   3.638  0.2178  0.2672  0.0505
23333W        W39467   4.145   4.879   2.768  0.5689  0.0013  0.1504
23334W        W39468   0.807   8.315   4.891 -0.5301 -0.1816 -0.0780
23335W        W39469   9.675  16.444  12.344 -0.0093  0.0014  0.0033
23336W        W39470   1.905   0.513  10.972  0.1998  0.2458  0.0477
23337W        W39471   8.396  19.166   2.760  0.1663  0.1805 -0.0319
23338W        W39472   1.665   8.588  10.837 -0.2131 -0.0808  0.0096
23339W        W39473  16.882   2.252   1.164  0.1525  0.1548 -0.0151
23340W        W39474   4.489  14.524  11.368 -0.2368  0.3180 -0.3354
23341W        W39475   9.096  12.870   0.652 -0.2360  0.0441 -0.1947
23342W        W39476  15.767  12.787   0.148  0.4946  0.2014 -0.0146
23343W        W39477   6.791   1.126   2.341  0.0794 -0.0730 -0.0597
23344W        W39478  10.335   9.358   5.059 -0.3760 -0.0219 -0.0531
23345W        W39479  12.065  15.823  13.892 -0.1446 -0.1711  0.0724
23346W        W39480   2.708  14.228   3.692  0.2752 -0.1752 -0.2340
23347W        W39481  14.027  19.007   4.672  0.2642  0.0069  0.1881
23348W        W39482  10.850   3.438   4.600 -0.4929  0.2320 -0.3975
23349W        W39483  12.762   2.025   3.689 -0.0564  0.2499  0.0127
23350W        W39484  14.088  15.835  14.565 -0.1814 -0.3821 -0.1339
23351W        W39485   4.996   3.968   0.310  0.0859 -0.4257  0.2327
23352W        W39486   8.582  14.629   1.018  0.3074 -0.2409 -0.0729
23353W        W39487  11.229   7.472  11.651 -0.1600 -0.4249 -0.1964
23354W        W39488   5.111  10.219   0.658  0.1040 -0.0475 -0.1353
23355W        W39489   4.345  17.912   2.275 -0.3209 -0.2076  0.1323
23356W        W39490   3.968   9.267  11.454  0.1900  0.3205 -0.1924
23357W        W39491   6.975  12.658  12.776 -0.3562  0.2203 -0.4502
23358W        W39492  12.431  15.984  11.649  0.0397  0.1991  0.1639
23359W        W39493  17.742  19.297  11.212  0.0524 -0.0680  0.1677
23360W        W39494   1.433  16.642   2.832 -0.1082 -0.1290  0.1990
23361W        W39495  11.507  14.426   1.301  0.0366  0.2109  0.1473
23362W        W39496  13.947  17.837   5.672 -0.0073  0.2444  0.1860
23363W        W39497  15.615   1.041   5.355  0.0803  0.3159 -0.0635
23364W        W39498  11.283  17.166   4.020 -0.0844  0.0527  0.2366
23365W        W39499   6.603  16.024  13.020 -0.1063  0.1091  0.2652
23366W        W39500   7.731  15.818   3.393 -0.0925 -0.0259 -0.1660
23367W        W39501  18.887  14.513  13.419 -0.1857 -0.0905  0.1699
23368W        W39502  11.100   1.732  12.188  0.0314 -0.3184 -0.0561
23369W        W39503  11.399  14.862  14.905  0.1188  0.0270 -0.1046
23370W        W39504  11.654   7.077   4.226  0.0732 -0.0498 -0.3092
23371W        W39505   4.833   7.408  13.359 -0.1758  0.1010 -0.0988
23372W        W39506   7.806   2.715   4.326 -0.0937  0.0467  0.0899
23373W        W39507   0.286  17.176   4.063  0.0662  0.0342  0.0364
23374W        W39508   1.155   1.892  12.010 -0.0484 -0.3001  0.0074
23375W        W39509  17.504   6.377  11.113  0.0226  0.1926  0.2030
23376W        W39510   9.499  16.829  12.090  0.1212  0.0328 -0.3319
23377W        W39511   4.028   3.442  14.850 -0.2541  0.1798 -0.0845
23378W        W39512  16.915   5.465   9.221  0.0155  0.1650 -0.1931
23379W        W39513   8.880   6.161  13.034  0.0336 -0.1354 -0.0991
23380W        W39514   7.578   7.530  14.206  0.0854  0.1144  0.3759
23381W        W39515   8.817   3.894  12.992 -0.0925  0.0757  0.1033
23382W        W39516  15.545  17.266   4.765  0.2467 -0.0047  0.1797
23383W        W39517   8.510   8.436  12.772  0.3431  0.0889 -0.1990
23384W        W39518  18.676   8.496   0.351 -0.3013 -0.2355 -0.0218
23385W        W39519   7.129   9.556   2.848 -0.3162  0.0690  0.2268
23386W        W39520   0.686  17.343   2.011  0.0389 -0.0276 -0.0725
23387W        W39521  16.443  14.868  14.178 -0.1690 -0.4142 -0.1964
23388W        W39522  12.533   4.414   4.676  0.3149 -0.0552 -0.1512
23389W        W39523   6.231   5.554   3.873 -0.0007  0.0438 -0.0861
23390W        W39524   9.700  18.680   2.902  0.1116 -0.0410  0.1050
23391W        W39525  18.633   5.301  13.943 -0.3390 -0.1357  0.0084
23392W        W39526  15.655   2.783   3.919 -0.1169  0.0567 -0.0129
23393W        W39527   0.061  14.412   9.979  0.2221  0.0908 -0.1818
23394W        W39528  18.343  14.248   0.305 -0.0384 -0.1194  0.3602
23395W        W39529  15.933  18.496  14.719  0.0013  0.1498  0.0556
23396W        W39530   0.757   1.201   2.350  0.1128 -0.2370 -0.1448
23397W        W39531   3.049  10.566  13.140 -0.0407 -0.1257  0.3068
23398W        W39532   2.366   1.626   1.373 -0.0237 -0.2553 -0.0906
23399W        W39533   6.112   1.858  10.240 -0.1109 -0.0737  0.2358
23400W        W39534   4.600   8.539  12.338 -0.0818 -0.6754  0.1105
23401W        W39535  18.419  12.705   1.549  0.2970 -0.4612  0.0844
23402W        W39536  14.539  11.912   1.530 -0.0431  0.0410  0.0143
23403W        W39537   1.138  10.856   3.175  0.6358 -0.0598  0.0218
23404W        W39538  13.343   8.422   5.076  0.3784  0.0905 -0.2554
23405W        W39539  15.778  10.974  12.126  0.1509 -0.0358  0.2800
23406W        W39540   1.253  11.214   0.984  0.4047 -0.0642 -0.0906
23407W        W39541  11.244   0.400   3.612 -0.0769 -0.3632 -0.0305
23408W        W39542   8.957  15.588   1.114 -0.0514 -0.2735 -0.0609
23409W        W39543  13.551  11.959   1.201 -0.2329 -0.1720  0.0211
23410W        W39544   8.515  13.190   0.630 -0.0889  0.1610  0.1231
23411W        W39545  12.425  10.946  12.254 -0.0737  0.3952 -0.1597
23412W        W39546  17.967   6.791   0.856 -0.0287 -0.2129 -0.0074
23413W        W39547  15.604   0.396   0.944 -0.1545 -0.1630 -0.0273
23414W        W39548  12.777  11.767   0.916  0.1062 -0.1100  0.3457
23415W        W39549   5.572  11.399  13.774  0.2592  0.1782 -0.0511
23416W        W39550  14.101   8.821   4.056  0.2607 -0.0348  0.3122
23417W        W39551   1.647  18.685  11.685 -0.1876 -0.2771  0.0409
23418W        W39552  10.649  17.764  13.324 -0.1391  0.1567 -0.0593
23419W        W39553   1.442   5.256   2.483  0.0126 -0.2097 -0.2343
23420W        W39554   3.931  11.204   1.942 -0.0414 -0.2732  0.3738
23421W        W39555   8.462  13.266   3.407  0.3200 -0.0288 -0.4842
23422W        W39556  19.265  18.675  12.244  0.0043  0.4070  0.0373
23423W        W39557  16.410  18.987  12.362  0.1336 -0.3865 -0.0643
23424W        W39558   9.838  10.906   1.593 -0.3234 -0.1626 -0.1123
23425W        W39559   0.954  18.623   2.534  0.0214  0.0056 -0.1377
23426W        W39560   4.369   3.625   4.008 -0.0228  0.3522 -0.1938
23427W        W39561  13.144  11.305  12.626  0.1405  0.0564  0.0769
23428W        W39562   5.440  13.454  13.738  0.1347 -0.0702 -0.1274
23429W        W39563   9.355   0.896  13.219 -0.5049  0.2044  0.0422
23430W        W39564   2.080  18.715  14.664  0.0122  0.0029 -0.0521
23431W        W39565  12.542   4.039  12.578 -0.0410  0.2193 -0.1944
23432W        W39566  13.540  16.138  12.483 -0.0086  0.2683  0.1392
23433W        W39567  18.317   7.480   2.870 -0.3231  0.1645  0.1807
23434W        W39568   8.879   6.590   1.377 -0.2872  0.0312  0.0797
23435W        W39569  17.363  13.176  14.165  0.0764  0.1535  0.1685
23436W        W39570  10.174   8.749   2.155  0.1483 -0.2566  0.2203
23437W        W39571   9.761   6.837   0.504 -0.0386  0.4396 -0.4499
23438W        W39572  16.124   0.364  12.104 -0.0427  0.0784  0.1126
23439W        W39573  11.905   5.735  13.091  0.1197 -0.1259  0.2142
23440W        W39574  10.547   1.372   4.371 -0.0858  0.1410  0.4140
23441W        W39575  10.433  12.830   2.540  0.1146  0.1081 -0.1016
23442W        W39576   0.733   0.546   3.049  0.0837  0.1943 -0.0766
23443W        W39577   3.629  10.057   9.991  0.2255 -0.0590  0.3331
23444W        W39578   5.569   1.871  12.581  0.1670  0.1527 -0.2035
23445W        W39579   7.755   8.047   4.074 -0.3790  0.0566  0.0109
23446W        W39580  12.799  11.523   3.893  0.3478  0.1971  0.3099
23447W        W39581  16.471   8.138   4.566 -0.1891  0.0713 -0.0817
23448W        W39582   9.654  18.883  12.160 -0.1748  0.2893  0.2236
23449W        W39583  12.315  15.267   4.422 -0.1372  0.0007 -0.2083
23450W        W39584   2.360  14.057   0.823  0.1005  0.0373 -0.0972
23451W        W39585   3.544   0.196   3.281 -0.3865  0.3783  0.2529
23452W        W39586  15.270  17.722  13.619  0.0770 -0.1793  0.2826
23453W        W39587  18.881  16.121  12.752 -0.1756  0.0346  0.0783
23454W        W39588  13.739  18.452   2.966 -0.2024  0.1275  0.1035
23455W        W39589   2.785   2.497  13.925 -0.1804  0.1725  0.1262
23456W        W39590  17.266  19.118  12.792 -0.0582 -0.1759 -0.0095
23457W        W39591  12.237   7.795   4.778  0.0431  0.2800 -0.1384
23458W        W39592   6.482   0.754   1.852  0.1398  0.4045 -0.0973
23459W        W39593   0.665   1.405  12.009 -0.0400  0.1633 -0.2079
23460W        W39594  16.482  13.768   4.322 -0.2418 -0.1374 -0.1339
23461W        W39595  14.097   5.621   5.213 -0.0650  0.0104  0.0859
23462W        W39596  10.330   8.758   0.771  0.1514  0.2068  0.0626
23463W        W39597  11.432   5.827   4.137 -0.1870  0.1294  0.0395
23464W        W39598  11.057  11.207   3.048  0.1448  0.0885 -0.0906
23465W        W39599  10.337   4.857  11.840 -0.0510  0.1439 -0.1186
23466W        W39600   8.157   5.044   0.534 -0.4181 -0.1179 -0.0137
23467W        W39601   9.196   5.608   3.832  0.0370 -0.3253  0.0123
23468W        W39602   1.359   9.367   0.522 -0.1847  0.2019 -0.0948
23469W        W39603   1.574  19.305   4.233 -0.0477 -0.0861 -0.1750
23470W        W39604  14.623   9.847  14.373 -0.1891 -0.0987  0.0272
23471W        W39605  15.179  16.997   2.763  0.1075 -0.1122 -0.2114
23472W        W39606   3.215  11.053  13.409  0.1901  0.1206  0.3483
23473W        W39607   8.751   6.315   1.828  0.1163 -0.0684  0.2256
23474W        W39608   0.355  15.648   1.215  0.4999 -0.0123 -0.2807
23475W        W39609  19.192   5.201   2.574 -0.3239  0.3995  0.4325
23476W        W39610  11.106  15.658  14.781 -0.0499 -0.1974  0.1260
23477W        W39611  12.930   0.617  12.012  0.1462 -0.0397 -0.1382
23478W        W39612   1.739   9.189   9.214  0.0816  0.2647  0.0765
23479W        W39613   2.445   6.212   0.069  0.0862  0.0308  0.2383
23480W        W39614  13.544   4.222   2.812 -0.3720 -0.3299 -0.0161
23481W        W39615  13.356  19.290  13.172  0.0655  0.3405  0.2056
23482W        W39616  15.909  10.375  13.925 -0.2341 -0.0370  0.3523
23483W        W39617  11.185   3.547   3.741 -0.1038 -0.0879 -0.1080
23484W        W39618   8.978  12.545  14.264  0.1118  0.0344 -0.0118
23485W        W39619   0.068   0.984   1.434 -0.3207  0.1879 -0.0261
23486W        W39620  12.452   3.650  14.394  0.1541  0.0518  0.2727
23487W        W39621  12.510   3.545  12.521 -0.0740 -0.2012 -0.1383
23488W        W39622  14.901   4.657  12.939  0.1303  0.0581 -0.0754
23489W        W39623   5.557  11.850  13.587 -0.0234  0.1601  0.0772
23490W        W39624  15.135   2.529  14.612 -0.0322 -0.0169  0.2895
23491W        W39625  14.586  16.859   0.216 -0.1370  0.1941 -0.1179
23492W        W39626   4.545   3.258  14.828  0.1674 -0.3798 -0.2241
23493W        W39627   8.356  10.889   2.783 -0.1236 -0.1067 -0.0266
23494W        W39628   3.628   0.326   0.065  0.1413  0.0117 -0.0249
23495W        W39629   5.204   7.754  11.124 -0.0043  0.0084  0.2508
23496W        W39630   1.053   0.288  14.725  0.3559 -0.1851  0.3517
23497W        W39631  11.684   1.077  12.973  0.0716  0.2137  0.3471
23498W        W39632   4.840   9.994   3.194  0.0563 -0.0767 -0.2226
23499W        W39633   9.642  10.997  11.749 -0.0855 -0.2257 -0.0768
23500W        W39634  15.053  11.342  12.410  0.2423  0.1502 -0.5922
23501W        W39635   7.345   6.474   5.045 -0.0750 -0.1348 -0.0858
23502W        W39636   7.833  16.412  11.031 -0.5137  0.0677 -0.1932
23503W        W39637   8.750   7.175   4.461  0.0100 -0.3256 -0.1047
23504W        W39638   1.389   8.725  13.449 -0.3005 -0.1148 -0.0660
23505W        W39639  16.853  16.203  12.292 -0.0814 -0.0211 -0.0751
23506W        W39640  12.241   8.747   2.072 -0.3668 -0.3680 -0.4550
23507W        W39641   0.929   7.468  11.502  0.0692 -0.1774  0.0923
23508W        W39642   1.413   1.230   5.267  0.2471 -0.0160  0.4410
23509W        W39643  15.859  16.683  12.448  0.0659 -0.1347 -0.1008
23510W        W39644  15.354  11.003  14.056 -0.2987 -0.1946  0.2494
23511W        W39645  12.653  13.956   2.475 -0.1689  0.2292  0.0411
23512W        W39646  16.757  11.340  12.595 -0.0991 -0.1284  0.1033
23513W        W39647  15.156  18.195   4.173 -0.0746 -0.0666  0.1921
23514W        W39648   3.228   4.083   1.541  0.4005 -0.0174 -0.1692
23515W        W39649  18.122   5.240  12.569  0.1781  0.0420  0.1740
23516W        W39650   5.459   0.724   2.769  0.0655 -0.0742 -0.2183
23517W        W39651  18.606  11.123  10.413 -0.3375  0.2679  0.1441
23518W        W39652   4.884  10.090  14.239 -0.0989 -0.1325 -0.3013
23519W        W39653  12.814   4.476  13.161 -0.1401 -0.1159 -0.0674
23520W        W39654  18.675   4.571   4.729  0.2141  0.4036 -0.3062
23521W        W39655   4.499  13.259  14.824  0.0562 -0.0287  0.2535
23522W        W39656  17.626   8.910   4.607 -0.1372 -0.0992 -0.4488
23523W        W39657  11.304  12.802  14.058 -0.3063 -0.1444  0.1042
23524W        W39658  19.029   4.466  13.501  0.1248 -0.2977 -0.1275
23525W        W39659   2.009   8.975  10.834  0.3597 -0.1659 -0.1419
23526W        W39660   2.423   9.784  12.422 -0.3096 -0.0121  0.0802
23527W        W39661   7.196   4.289  14.705 -0.0796 -0.0731  0.1239
23528W        W39662   4.485   6.861   1.851  0.1927  0.0566 -0.0224
23529W        W39663  16.381  10.830  14.959  0.1528  0.0886 -0.0459
23530W        W39664   0.525   1.235   3.259  0.1041 -0.2794 -0.0652
23531W        W39665   9.997  19.235  14.193  0.1682 -0.0340 -0.0617
23532W        W39666   1.556  12.738  13.304 -0.2217  0.1203  0.0747
23533W        W39667   0.080  14.311  13.119 -0.2561 -0.0526 -0.0166
23534W        W39668   3.821  18.669  13.205 -0.3222 -0.4045  0.2590
23535W        W39669   1.948   7.279  12.926 -0.1709 -0.0421  0.1490
23536W        W39670  12.103  15.858   1.987 -0.1555  0.3067  0.2238
23537W        W39671  16.871  11.331  13.367 -0.0827 -0.2114 -0.1455
23538W        W39672  12.531  10.012   1.059  0.2923 -0.2284 -0.0893
23539W        W39673  17.490  14.617  10.521 -0.0315 -0.0693  0.0519
23540W        W39674   0.883   3.315   8.829 -0.3424  0.1592 -0.3397
23541W        W39675   5.151  14.201   2.657 -0.0484 -0.2474  0.0040
23542W        W39676   3.139   4.150  12.237  0.1968 -0.0257  0.1968
23543W        W39677  16.833   2.492   9.424 -0.0587  0.0195  0.3060
23544W        W39678   6.123  15.823   9.866 -0.0466  0.1672  0.0014
23545W        W39679  14.695  10.910   2.091  0.2126 -0.1948 -0.0069
23546W        W39680  10.715  14.305   1.817  0.0518 -0.0697 -0.1649
23547W        W39681   0.900  14.533  14.057  0.3025 -0.2747  0.0577
23548W        W39682   2.230  14.372   3.888  0.0591 -0.0952  0.1197
23549W        W39683  19.038   5.852  10.959  0.1174 -0.0547 -0.0082
23550W        W39684  12.854  10.978   0.306  0.0237  0.1241  0.2495
23551W        W39685   5.906  11.936  13.020 -0.1853 -0.0804  0.0060
23552W        W39686   3.118  11.617   1.680  0.0142 -0.0628 -0.3348
23553W        W39687   9.782   1.542  12.109 -0.0092  0.1246 -0.3405
23554W        W39688   8.347  15.278   4.651  0.0507  0.1028  0.1045
23555W        W39689  14.948  12.447   2.359 -0.0732  0.0654 -0.1739
23556W        W39690  16.710   5.804  12.797  0.1362  0.3180 -0.1616
23557W        W39691  14.078  12.697   2.425 -0.0782  0.1434 -0.1534
23558W        W39692   4.274   8.965  12.396 -0.0073 -0.0351  0.0134
23559W        W39693   5.670   8.553  13.978  0.0932 -0.0624  0.3973
23560W        W39694  16.586  11.050   2.054  0.1061  0.0397 -0.1777
23561W        W39695  16.152   7.044   0.404 -0.1709  0.1240 -0.0204
23562W        W39696   0.047  12.642  12.148  0.0523  0.0446  0.1773
23563W        W39697  10.100  11.384   4.615 -0.3326 -0.0579  0.0720
23564W        W39698  14.809   6.972  12.153 -0.1195  0.1056 -0.3116
23565W        W39699   1.802   5.408   0.813 -0.1089  0.1834  0.0726
23566W        W39700   5.228  18.128  14.114  0.1070 -0.0419  0.1985
23567W        W39701   8.875  14.466   4.709  0.1003  0.0328  0.2896
23568W        W39702  11.188  17.211  10.735 -0.0492 -0.0495  0.0894
23569W        W39703   2.756  16.048   0.737  0.2441 -0.2039 -0.4368
23570W        W39704  13.302  18.936   0.492  0.0031  0.0830 -0.4298
23571W        W39705  19.351   9.021   2.383 -0.1077 -0.1584 -0.0104
23572W        W39706   0.001   3.465   2.662  0.1202  0.1143 -0.3156
23573W        W39707  18.051   1.703   3.675  0.3379 -0.1258 -0.1474
23574W        W39708   8.780   0.259  10.159  0.0054  0.3090  0.0747
23575W        W39709   8.831   1.123  13.140 -0.3350  0.2230  0.1361
23576W        W39710  18.287   4.706  12.823  0.0618  0.0603  0.0478
23577W        W39711   1.738  14.105   3.989  0.0010  0.1214 -0.1902
23578W        W39712   8.422   2.045   4.921 -0.0228  0.0868 -0.1989
23579W        W39713   2.846   8.233  12.920 -0.1023 -0.0105 -0.2883
23580W        W39714  12.587   1.510  13.301 -0.0715 -0.0838 -0.0441
23581W        W39715  16.436   0.252   0.665 -0.2659 -0.1734 -0.1074
23582W        W39716  17.768   3.961   3.213 -0.1410 -0.2239  0.1472
23583W        W39717  13.449  16.793  11.635 -0.0162  0.0430  0.4345
23584W        W39718   7.251   2.825   4.046  0.0022 -0.2169 -0.0793
23585W        W39719   8.918   0.377   2.056 -0.0833  0.3255  0.3801
23586W        W39720  11.501  11.133   1.637  0.3541  0.0560 -0.1064
23587W        W39721  17.682  11.345   0.808 -0.1707  0.1404  0.1342
23588W        W39722  10.480   7.648   0.359  0.1548  0.2652 -0.3117
23589W        W39723  17.495   8.112   1.792  0.0067 -0.0521 -0.2402
23590W        W39724  11.737   8.296   0.819 -0.0790 -0.0586  0.3879
23591W        W39725   5.398   3.456  12.259  0.1161  0.2411  0.2243
23592W        W39726  14.155  17.265   4.720  0.1207  0.2056 -0.3530
23593W        W39727   3.642   6.012  10.119  0.3233  0.1287 -0.1911
23594W        W39728   7.788  16.674   1.819 -0.4064 -0.1633 -0.1044
23595W        W39729   3.241   9.854   0.184 -0.3223  0.0595 -0.0078
23596W        W39730  10.013   3.707   3.149  0.0585 -0.0970  0.0110
23597W        W39731  17.345  16.145  10.849 -0.0568 -0.1423 -0.0701
23598W        W39732  16.654   1.627  11.287  0.0249  0.0536 -0.0763
23599W        W39733  18.857   1.872  12.691 -0.2663  0.1751 -0.0181
23600W        W39734   7.610   3.693  10.498 -0.1240 -0.1119 -0.1536
23601W        W39735   3.608  16.820  13.555  0.0229  0.1446  0.1148
23602W        W39736  14.030   4.800  12.365 -0.2713  0.0201 -0.3100
23603W        W39737  15.368   1.817  10.567  0.2630  0.0495  0.4438
23604W        W39738  14.932  13.240   4.969  0.2197  0.0572 -0.1750
23605W        W39739  13.412  11.206  11.610 -0.1792  0.4322 -0.2487
23606W        W39740   3.640  14.694   5.603  0.0680 -0.4034  0.1064
23607W        W39741  18.062  14.076   4.297  0.3349  0.1655 -0.2786
23608W        W39742  18.667  15.724   1.287  0.1150 -0.1315  0.0956
23609W        W39743  14.645   9.649   0.305  0.2578  0.1611 -0.2481
23610W        W39744   2.483  10.859   3.112  0.0110 -0.0180  0.0417
23611W        W39745   6.568   9.673  11.165 -0.0580  0.0002 -0.0037
23612W        W39746   3.982  17.217   1.251  0.0526 -0.0069 -0.0765
23613W        W39747  15.929  17.280   3.100  0.1925 -0.0946  0.2084
23614W        W39748   0.937  12.151  12.609  0.0203  0.1346 -0.1846
23615W        W39749   1.805   5.616  12.065  0.4100 -0.2090  0.2016
23616W        W39750   0.349  18.428  14.227  0.1438 -0.3147  0.1342
23617W        W39751  13.196   4.903  14.912 -0.2578  0.0174  0.0550
23618W        W39752  19.154  15.685  14.008 -0.0816 -0.3713 -0.1646
23619W        W39753   4.981   6.873  10.668 -0.0068  0.2800  0.1539
23620W        W39754   1.483  12.606   4.293 -0.5696 -0.1140 -0.1241
23621W        W39755  14.550   7.427  11.394  0.0456 -0.2539  0.0530
23622W        W39756  15.295   5.043  11.788 -0.2478 -0.0791  0.1682
23623W        W39757  11.757   5.400  12.198  0.2782 -0.4248 -0.0333
23624W        W39758   7.534   2.021  10.309  0.0006  0.2438 -0.3132
23625W        W39759  13.131   7.025   2.845 -0.0753  0.3235  0.3380
23626W        W39760   8.309   8.398  11.691 -0.1989 -0.0089  0.2214
23627W        W39761   8.558   4.166   2.742  0.0185  0.0570 -0.0670
23628W        W39762   1.898   8.500  10.336  0.0037  0.0616  0.0287
23629W        W39763  16.799   4.148  11.853  0.4178  0.3080  0.2744
23630W        W39764   1.358  15.972   0.831  0.0904  0.1199  0.0894
23631W        W39765  15.119   8.421   4.482 -0.0338  0.0099  0.0887
23632W        W39766   2.538  11.864  14.474 -0.0370 -0.0382  0.3149
23633W        W39767   5.605   1.330   3.591  0.0795 -0.1575  0.1179
23634W        W39768  12.089  11.482   2.725  0.2320 -0.5121 -0.0645
23635W        W39769  13.697  18.997   5.133  0.2921  0.0697 -0.2130
23636W        W39770   2.587   9.295   4.486  0.1415 -0.0705 -0.6755
23637W        W39771  10.808  13.495   3.770 -0.4499 -0.2804 -0.0788
23638W        W39772  12.064  17.305   1.498  0.1787 -0.2378 -0.1359
23639W        W39773   4.182   4.262   9.985  0.1539  0.1193  0.3271
23640W        W39774  14.175   8.460   1.270 -0.1343  0.1772 -0.0030
23641W        W39775   6.548  16.068  12.082 -0.0065  0.3353 -0.4157
23642W        W39776   8.929   9.492  10.939 -0.2187 -0.1548  0.2311
23643W        W39777  10.719  16.559   0.598  0.0450 -0.2384  0.1076
23644W        W39778   8.064   7.851   3.649 -0.1764 -0.1023  0.2601
23645W        W39779  15.103   4.345   1.150 -0.1040 -0.2610 -0.2532
23646W        W39780   9.440  13.161   0.843 -0.2664 -0.0906  0.2555
23647W        W39781  19.052  13.388  14.482 -0.3933 -0.2241  0.0995
23648W        W39782  16.847   5.501  13.703  0.1479 -0.0681  0.0675
23649W        W39783   5.592  10.605  10.453  0.1862 -0.0489  0.1834
23650W        W39784   4.997   0.704   2.490  0.1672  0.1315 -0.1292
23651W        W39785   7.394   8.051   0.314  0.0513 -0.1342  0.3532
23652W        W39786  18.543  17.682   5.582  0.1948 -0.1384 -0.1295
23653W        W39787   0.789  10.809   0.242  0.1389 -0.3416  0.6937
23654W        W39788  10.016  16.739  12.142 -0.0417 -0.2468  0.1992
23655W        W39789  16.315  14.379  13.268  0.5170 -0.1384 -0.2001
23656W        W39790   8.384  19.024   5.339 -0.0388  0.1671 -0.6398
23657W        W39791   7.465   9.786   0.574  0.1599 -0.2101 -0.5106
23658W        W39792   2.095  18.453   4.222  0.2580 -0.2813 -0.2532
23659W        W39793   8.099  12.441   4.970  0.0662 -0.4190 -0.2467
23660W        W39794  14.374   4.833   1.711 -0.0696 -0.0139  0.2281
23661W        W39795  14.547   4.233   2.820 -0.0604 -0.1406  0.0183
23662W        W39796   3.933  12.791   4.966  0.1041  0.0438 -0.0897
23663W        W39797   6.777   1.021   3.562 -0.2236 -0.0050 -0.0459
23664W        W39798  12.159   7.374   2.968  0.1863 -0.2811  0.1207
23665W        W39799  13.341  14.349   1.283  0.0392 -0.0318  0.0625
23666W        W39800   1.513   9.835  14.258 -0.2385  0.2946 -0.0693
23667W        W39801   6.632   7.009  11.714  0.0315  0.0047  0.2535
23668W        W39802  14.618   8.749   3.476  0.1556 -0.4245 -0.0415
23669W        W39803   1.725  16.237  11.838 -0.1519 -0.1239  0.2918
23670W        W39804   7.216  11.031  11.279  0.3027  0.1368 -0.1976
23671W        W39805  19.167   0.051   3.121 -0.3956  0.1311 -0.1072
23672W        W39806   9.599   5.986  11.411  0.2243 -0.0146 -0.0695
23673W        W39807   3.832   2.995   1.669  0.1103  0.2918 -0.0749
23674W        W39808  16.495  15.322  11.037 -0.0107 -0.1799  0.0642
23675W        W39809  10.623   1.175  12.161 -0.0438  0.1552  0.0149
23676W        W39810  15.466   1.267  12.298  0.2305 -0.2843  0.0109
23677W        W39811   7.698  15.627  11.463 -0.1555  0.2149  0.0167
23678W        W39812  10.553  16.416   3.084 -0.0895 -0.1546  0.2986
23679W        W39813  12.923  10.699  14.271  0.1809 -0.1681 -0.2208
23680W        W39814   0.992  15.065  10.400 -0.0137 -0.2744 -0.2927
23681W        W39815   3.652  18.272   1.860  0.0768 -0.2347  0.4043
23682W        W39816   8.651  10.429   1.376  0.2441 -0.2501  0.1005
23683W        W39817  11.631  13.465  11.628 -0.3740  0.0670 -0.0293
23684W        W39818   8.456   4.286  12.641 -0.0660 -0.1964  0.0346
23685W        W39819   9.950  15.853   4.940  0.0504 -0.4655 -0.0494
23686W        W39820   8.649   4.035   1.238  0.0734  0.2042  0.0778
23687W        W39821   8.077  15.326  11.076  0.0985 -0.0946 -0.4070
23688W        W39822  15.968   4.613  14.064  0.2890 -0.0037  0.2045
23689W        W39823  18.010  10.499   2.872  0.0343 -0.1405  0.2226
23690W        W39824   0.717  12.062   2.941 -0.2190 -0.0020  0.1255
23691W        W39825   3.087   0.979   0.523 -0.0125  0.1991 -0.0709
23692W        W39826  15.782  10.903  13.066  0.0667 -0.1969  0.0542
23693W        W39827   1.034   0.209   1.808 -0.1298  0.0155 -0.0661
23694W        W39828   8.296  13.608  11.245  0.0260  0.0536  0.0595
23695W        W39829  16.995  13.729   0.921  0.2631 -0.1010 -0.3304
23696W        W39830  14.345   6.844  10.019 -0.1877  0.3250 -0.1062
23697W        W39831   3.827   1.457   4.226  0.1809 -0.1089  0.2491
23698W        W39832  12.666   0.213   3.573 -0.2055 -0.1501 -0.0384
23699W        W39833   9.755  10.977   2.091 -0.0466  0.1757 -0.3037
23700W        W39834  18.886  13.568   3.918  0.0550  0.2876 -0.0409
23701W        W39835   1.718  11.684  14.136 -0.0134 -0.1281 -0.2952
23702W        W39836  12.352  17.335   2.447  0.0106  0.1778  0.1248
23703W        W39837  12.890  19.251   6.461  0.2044  0.0710 -0.2341
23704W        W39838   5.593   0.680   1.008  0.0595  0.1627 -0.1412
23705W        W39839   4.557  14.188  12.025  0.0464  0.1222  0.0815
23706W        W39840  16.007  13.082  13.374  0.0456 -0.0348 -0.2520
23707W        W39841   9.268   4.949   1.615  0.1438 -0.1747 -0.2232
23708W        W39842  11.609   1.399  13.984  0.1010  0.2080  0.0273
23709W        W39843   8.996  17.474  14.490 -0.2475 -0.1972  0.3965
23710W        W39844  13.281   8.854  14.500 -0.0609 -0.0978 -0.1217
23711W        W39845  16.078   0.646  13.869  0.0581  0.3141 -0.0353
23712W        W39846   3.617  17.924  14.957 -0.0444 -0.0457 -0.0545
23713W        W39847  11.386   6.349   1.254 -0.0914 -0.2994 -0.0656
23714W        W39848   0.441  13.370   2.259 -0.1627 -0.2261 -0.3507
23715W        W39849  12.081   7.095   9.319 -0.0046 -0.1343 -0.1900
23716W        W39850   1.589   4.163   1.176 -0.2051  0.0742 -0.0907
23717W        W39851   9.652   8.375   0.365  0.0332  0.5468 -0.2364
23718W        W39852  10.471  15.612  14.083 -0.1418  0.2064  0.4117
23719W        W39853   0.165  11.412   8.900  0.1225 -0.0063 -0.1468
23720W        W39854   0.442  12.169  13.136 -0.1873  0.1485 -0.3275
23721W        W39855  17.225   9.613  13.698  0.2164 -0.2893  0.2004
23722W        W39856   0.557  16.844   1.558 -0.1505 -0.1476  0.0401
23723W        W39857  11.280  11.825   3.870 -0.1330 -0.1257  0.4730
23724W        W39858   0.889  12.736   8.893  0.1309 -0.0386 -0.0436
23725W        W39859   6.631  14.486   1.955 -0.0652 -0.1511 -0.3149
23726W        W39860   2.451   4.382  14.622 -0.1283  0.3116 -0.0473
23727W        W39861  14.162  13.423   1.863  0.0510  0.3694  0.1066
23728W        W39862  18.531  12.926   3.739  0.0763  0.0656 -0.0123
23729W        W39863  15.155  13.984  13.208 -0.0778 -0.0561  0.0353
23730W        W39864  10.411   7.463   2.456  0.0193 -0.0062 -0.5130
23731W        W39865  14.186  13.029   4.058 -0.1249 -0.1062  0.1203
23732W        W39866  15.525   7.038  14.691  0.4005 -0.0949  0.0240
23733W        W39867   3.962  13.417  12.528  0.2063  0.1291  0.0036
23734W        W39868   3.928   3.591   2.449 -0.1595 -0.0862  0.0610
23735W        W39869  11.281  14.753  13.600 -0.0886 -0.0298 -0.1512
23736W        W39870  10.243   6.493   4.434 -0.0438  0.1895 -0.0834
23737W        W39871  11.584  10.304  14.705  0.0625  0.0715  0.0166
23738W        W39872   0.027  17.403  13.407  0.0032 -0.0281 -0.1172
23739W        W39873  17.614  16.517   0.505 -0.0625  0.0851  0.0891
23740W        W39874   1.759  15.161   0.655 -0.3016 -0.0927  0.0914
23741W        W39875   1.326   0.112  12.913 -0.2250  0.1215  0.0114
23742W        W39876  17.494  14.823  11.999  0.0684  0.0001  0.0728
23743W        W39877  15.805   6.002  12.628 -0.0144  0.1788 -0.0594
23744W        W39878  16.293  11.247  12.719 -0.1659 -0.0688 -0.2740
23745W        W39879   8.283  14.919   5.015  0.2332  0.0013 -0.0178
23746W        W39880   9.873  17.708  13.806 -0.1528  0.1475 -0.0540
23747W        W39881   5.246   9.121  11.929  0.0922  0.1594 -0.1835
23748W        W39882   3.814   3.020  14.618  0.2238  0.5917 -0.0672
23749W        W39883  18.456  11.643  10.534  0.0614  0.2142 -0.2376
23750W        W39884   7.673  12.997   2.185 -0.0966 -0.0628  0.3104
23751W        W39885   2.043  13.059  10.121  0.0987  0.0352  0.0270
23752W        W39886  12.189   9.418   9.379  0.2196 -0.3091  0.1791
23753W        W39887   3.446   0.911   1.357  0.0946 -0.0711 -0.1409
23754W        W39888   0.355  10.119   2.606 -0.0236 -0.2073 -0.1647
23755W        W39889  10.725   8.647  10.683 -0.1858 -0.3064  0.2407
23756W        W39890   5.798  12.834   4.345  0.0168 -0.2534 -0.0373
23757W        W39891  15.004   8.332  13.866 -0.2790 -0.1101  0.1186
23758W        W39892  12.853  15.434  13.418  0.0013 -0.0946 -0.0289
23759W        W39893   0.728  15.388   1.554 -0.1988  0.1311  0.0803
23760W        W39894   9.534   9.844   2.944  0.2615 -0.1797  0.0423
23761W        W39895   2.536   3.770   2.138  0.0289 -0.3330 -0.3840
23762W        W39896  17.003   6.650  10.308  0.2813 -0.1663 -0.2166
23763W        W39897   4.272  14.344   2.784  0.1938 -0.0962 -0.0770
23764W        W39898  10.568  11.132   1.376  0.3279 -0.0965  0.0392
23765W        W39899   5.721   0.308  11.087 -0.0820 -0.1486  0.1476
23766W        W39900  12.512  13.219   1.229 -0.0199 -0.2799 -0.2643
23767W        W39901  19.231   6.887  14.703 -0.1893 -0.2063  0.4938
23768W        W39902  17.716   1.366  12.865 -0.2465  0.1950 -0.2579
23769W        W39903   0.680   5.904   2.631 -0.0707 -0.3752  0.0094
23770W        W39904  11.662   8.214  11.335 -0.1973 -0.3627 -0.0772
23771W        W39905   6.268   8.876  11.847  0.1958 -0.1286  0.0599
23772W        W39906  11.821  10.565   1.400 -0.1812 -0.2095  0.1039
23773W        W39907   3.583  13.113  10.627  0.3354 -0.1576 -0.1279
23774W        W39908  11.376  11.584  11.890  0.1143  0.0253 -0.1299
23775W        W39909  15.051  18.035   0.678 -0.2131 -0.0482 -0.0575
23776W        W39910  12.762   2.662   0.302 -0.0545 -0.0443 -0.0128
23777W        W39911  12.307  14.439  14.615 -0.0679 -0.2079 -0.2896
23778W        W39912   3.044   1.156   3.583 -0.0263  0.0065 -0.0954
23779W        W39913   5.548   0.666   3.302 -0.3710  0.2709  0.3335
23780W        W39914  11.116   4.446  12.801 -0.0413 -0.4253  0.0250
23781W        W39915  18.954   6.431  10.075 -0.3750 -0.2078 -0.2166
23782W        W39916  15.384  19.230  14.308 -0.1482  0.0442 -0.1142
23783W        W39917  14.870   8.852   3.024  0.0291  0.0850 -0.2354
23784W        W39918  11.693   6.962  10.770 -0.0425  0.3880  0.1519
23785W        W39919   5.440   3.036   9.599  0.0215 -0.1541  0.3792
23786W        W39920  13.770   9.574  14.859 -0.2199  0.0592  0.2269
23787W        W39921   0.328   3.496  12.853  0.0619  0.0190 -0.0039
23788W        W39922  19.066   6.686   4.174 -0.2845  0.1690 -0.0444
23789W        W39923  17.631  13.327  13.248 -0.0086 -0.1431  0.0275
23790W        W39924  18.254   6.130  14.226 -0.0506  0.0507 -0.0603
23791W        W39925   9.334   3.988  11.434 -0.0332  0.1211  0.0452
23792W        W39926  17.692  18.030   2.281 -0.2788 -0.1548 -0.0627
23793W        W39927  13.628  10.973   3.612 -0.3096 -0.2927 -0.1069
23794W        W39928  10.813   5.806  12.152 -0.0665 -0.0158  0.0232
23795W        W39929   7.147  13.380   4.818 -0.2870 -0.0325 -0.0495
23796W        W39930   6.145   5.274   5.155  0.1717 -0.0913  0.2534
23797W        W39931   4.268   6.219  12.076 -0.0857  0.6991  0.0953
23798W        W39932   1.576   3.958   4.994 -0.1346  0.2244  0.0790
23799W        W39933  11.530   3.993   0.961  0.1083  0.4720  0.0574
23800W        W39934  19.092   5.098  14.828 -0.2270 -0.0313 -0.0358
23801W        W39935   1.974   0.269   2.236 -0.1463 -0.0656 -0.2142
23802W        W39936  11.336   8.339  11.833  0.2709 -0.1756  0.1402
23803W        W39937  10.158   4.159   4.177  0.2105  0.0380 -0.1894
23804W        W39938   5.696  15.036  10.312  0.1227 -0.1425 -0.4692
23805W        W39939  10.964  12.571   3.867 -0.0768  0.2505 -0.3145
23806W        W39940   9.346   9.134   3.929  0.0461 -0.2992  0.2181
23807W        W39941  16.406   1.290   4.380 -0.0285 -0.0640  0.2429
23808W        W39942   7.596   7.773   2.633 -0.1684  0.3000  0.0846
23809W        W39943   2.649   6.001  10.792 -0.0986 -0.0843  0.3269
23810W        W39944   3.238   6.627   0.273  0.0641 -0.1786 -0.1300
23811W        W39945   0.766   4.339   1.932  0.2379  0.1553 -0.1309
23812W        W39946  12.267   5.675  12.112  0.0755 -0.0670  0.1138
23813W        W39947   5.736   8.034  14.843 -0.0824  0.2587 -0.0561
23814W        W39948  12.581  13.808   4.185 -0.0681 -0.1302  0.1358
23815W        W39949   0.140   0.230   1.850 -0.0374  0.0817  0.0272
23816W        W39950   7.346  16.531  12.582 -0.1192 -0.1070 -0.1696
23817W        W39951  14.332  14.922   4.964  0.0077 -0.1726 -0.1377
23818W        W39952   5.204   8.076  10.224  0.0242  0.2789  0.1937
23819W        W39953   2.311  13.470  11.399 -0.1289  0.1723 -0.1500
23820W        W39954   3.809  11.413  11.295  0.1794  0.0660  0.2398
23821W        W39955  13.471   1.147  14.457 -0.5648  0.0119 -0.0793
23822W        W39956  12.939   8.921  12.626  0.2239  0.0603  0.3096
23823W        W39957  14.000  13.821  11.910  0.1524  0.0255 -0.1127
23824W        W39958   4.336  12.363  14.452 -0.1626 -0.1229 -0.2477
23825W        W39959  11.874  17.115  13.682  0.3086 -0.0981 -0.1269
23826W        W39960   7.788   4.626   3.486 -0.0028  0.4233  0.1824
23827W        W39961   9.446   0.427  13.404 -0.2324  0.0746 -0.0292
23828W        W39962  12.004  11.185   1.432 -0.2781 -0.0821  0.4088
23829W        W39963   4.917   8.172  11.039 -0.0805  0.1547  0.0070
23830W        W39964  13.591  18.372   1.360  0.4582 -0.2677 -0.2966
23831W        W39965  13.865  10.097  11.640 -0.2223  0.0896 -0.0205
23832W        W39966   2.220   8.173  12.437 -0.1876 -0.0211  0.0361
23833W        W39967   5.044  16.300  12.288  0.0438 -0.0921 -0.0061
23834W        W39968   2.338   8.708  10.511  0.0983  0.0755 -0.2067
23835W        W39969  13.609  19.057   0.028  0.1227  0.4354 -0.0429
23836W        W39970   3.842  10.301  14.605 -0.1679 -0.2320  0.1065
23837W        W39971   3.453  12.345   4.274 -0.1474 -0.0110 -0.0116
23838W        W39972   2.271   9.790  13.166  0.2567 -0.1342  0.0326
23839W        W39973   7.656  16.274   3.191 -0.1544 -0.0523  0.1869
23840W        W39974   7.731   9.984  10.813  0.0662 -0.0345 -0.1379
23841W        W39975  12.693  18.612   4.971 -0.1337 -0.1700 -0.1373
23842W        W39976  17.607  16.738  14.366 -0.0029 -0.3408  0.0526
23843W        W39977  18.317   8.256   3.579 -0.0012  0.0241 -0.1142
23844W        W39978  12.108  18.774  12.809  0.0219 -0.1281 -0.0444
23845W        W39979  18.903   6.577   2.576 -0.2564  0.1655 -0.1450
23846W        W39980   5.465   4.220   0.258  0.2028  0.0897  0.1113
23847W        W39981  12.589  10.746  13.421  0.1298 -0.1262 -0.0906
23848W        W39982   2.193   7.337  14.731 -0.1193 -0.0011 -0.3188
23849W        W39983  11.785   5.055   4.374  0.0646  0.1727  0.2590
23850W        W39984   4.016   2.790  10.651 -0.2212  0.1472  0.3578
23851W        W39985  11.144  14.412  14.407  0.3844 -0.1418  0.0609
23852W        W39986   0.791  18.859   2.957 -0.1594 -0.1252 -0.0988
23853W        W39987   6.394  19.081  13.369  0.0570  0.0285  0.2560
23854W        W39988   9.209  14.939   2.829 -0.1877  0.0003 -0.0234
23855W        W39989  16.160   5.991  12.255 -0.0946 -0.3199 -0.0364
23856W        W39990   4.886   7.014   3.615 -0.4698 -0.2390  0.0481
23857W        W39991   4.047   3.471   1.355 -0.0304 -0.2729 -0.1968
23858W        W39992   3.819  11.033  14.885 -0.2461 -0.1533  0.4042
23859W        W39993  14.148   7.209  12.976 -0.0973 -0.0657 -0.2477
23860W        W39994  12.398   7.192  13.232  0.0069 -0.3104 -0.1273
23861W        W39995   4.575  10.100   1.624  0.1636  0.0479  0.1863
23862W        W39996  13.005  16.652   0.037  0.2034 -0.1158  0.1282
23863W        W39997  10.156   3.803   5.248  0.1105  0.0781 -0.1858
23864W        W39998  10.672   9.825   2.031 -0.0464 -0.4410  0.0418
23865W        W39999  15.401  10.005   1.162 -0.2868  0.0373  0.0778
23866W        W40000  13.871  15.086   5.117  0.1497 -0.0425  0.2538
23867W        W40001   3.048  10.390   1.876 -0.1560  0.1514  0.3509
23868W        W40002   7.065   9.384  13.470 -0.0272 -0.0119 -0.0755
23869W        W40003   6.471   0.424  12.657 -0.1150 -0.4601 -0.0796
23870W        W40004   0.410   1.938  14.640 -0.3431  0.0743 -0.1103
23871W        W40005  11.645   3.109  14.723  0.1172  0.1545  0.4524
23872W        W40006  12.583   3.822  13.504  0.2843  0.0658 -0.2669
23873W        W40007  10.365  11.195  14.499 -0.0103 -0.0884 -0.2039
23874W        W40008   3.469  17.198   3.650  0.0645 -0.1718  0.0925
23875W        W40009  13.449  19.033  10.676 -0.2452  0.0074 -0.0953
23876W        W40010  12.891   8.981  13.573  0.1271 -0.0897  0.0363
23877W        W40011   1.139   5.632  13.228 -0.2652  0.0465 -0.0828
23878W        W40012  17.608   2.112   0.674 -0.1366 -0.1379  0.0202
23879W        W40013  15.295   7.601   1.114 -0.1355  0.0284 -0.2467
23880W        W40014   2.042   3.138  13.222 -0.0203 -0.1470  0.2880
23881W        W40015   3.669  17.031   1.829  0.1216 -0.1508  0.3159
23882W        W40016   7.592   9.344  11.068  0.1870 -0.0277  0.3129
23883W        W40017  11.276  17.773   4.620 -0.0621 -0.1515 -0.1720
23884W        W40018   2.839   4.850  13.440  0.0870 -0.1112  0.2638
23885W        W40019  17.883  10.101   4.342 -0.1355 -0.0966  0.3054
23886W        W40020  12.446   2.580  14.925  0.0026 -0.3007 -0.0099
23887W        W40021  15.969  11.866  10.518  0.1066 -0.0372  0.0881
23888W        W40022  17.815  10.270   2.373 -0.2481 -0.0413  0.0056
23889W        W40023  11.429  18.301  12.973  0.1640  0.1894  0.1679
23890W        W40024   9.712  13.080  13.242 -0.2473 -0.2464 -0.0764
23891W        W40025   4.955   4.492   3.224 -0.0015 -0.1019 -0.0314
23892W        W40026   9.313  14.896  10.133  0.0043 -0.0906 -0.1687
23893W        W40027  12.036  10.371  12.837  0.0481  0.1937  0.0931
23894W        W40028  15.833  17.994   0.231  0.1046  0.1172 -0.0407
23895W        W40029  14.444  13.714  12.096 -0.4609 -0.0772 -0.1621
23896W        W40030  11.202  17.675   4.106 -0.3580 -0.2352 -0.4536
23897W        W40031  14.562  16.436   4.786  0.1241  0.2913 -0.1037
23898W        W40032  11.701   7.546  10.616  0.1170 -0.5616 -0.0124
23899W        W40033   3.063   0.779  14.163  0.0467 -0.0516  0.0047
23900W        W40034   3.321   4.913   4.023 -0.1028 -0.1804  0.3874
23901W        W40035  18.700   1.446  11.123  0.1274  0.2352  0.2036
23902W        W40036  11.234  10.462   0.369 -0.1202  0.1879  0.2684
23903W        W40037   8.094  16.057  14.672  0.0743  0.2017  0.2165
23904W        W40038  15.151  18.383   1.591  0.2606 -0.1692 -0.0380
23905W        W40039   4.509   3.498  14.401  0.1437  0.0480 -0.1413
23906W        W40040   8.738  17.948  14.738 -0.0406 -0.0888  0.3199
23907W        W40041  16.020  10.350   3.858 -0.0424  0.1319  0.0788
23908W        W40042   7.443  10.329  12.373 -0.2728  0.1020  0.0521
23909W        W40043  16.370  14.305   3.478 -0.0958  0.1171  0.0018
23910W        W40044  13.635  16.317   3.799 -0.0950  0.5138 -0.2837
23911W        W40045   9.054  12.154   1.821  0.3960  0.1553  0.4002
23912W        W40046  14.679  11.092  14.934 -0.4407 -0.0735 -0.0521
23913W        W40047   2.111   3.901   4.148 -0.0133  0.1746  0.2030
23914W        W40048   8.532  17.324  14.643  0.2744 -0.0817 -0.1774
23915W        W40049   4.610  11.731   3.808  0.1521 -0.3078 -0.2362
23916W        W40050   8.355   3.264  10.969  0.0947  0.3001 -0.2871
23917W        W40051  10.961  17.094   3.551  0.2466 -0.3126 -0.2152
23918W        W40052  19.281  12.831  10.732  0.0678  0.0886 -0.2246
23919W        W40053  16.142  17.490   4.484  0.2411 -0.2641  0.3128
23920W        W40054  10.588  10.366  10.888 -0.4487  0.3139  0.1338
23921W        W40055   2.085   3.016   1.993  0.0059  0.2603  0.3323
23922W        W40056  17.656   1.690   5.523 -0.0317  0.2934  0.1933
23923W        W40057  10.422  16.909  13.591  0.1119  0.0253  0.0676
23924W        W40058  15.656   0.323   5.143 -0.3548  0.0696 -0.0534
23925W        W40059   3.317   3.866   1.007 -0.2795  0.0880  0.1224
23926W        W40060  13.623  10.753   1.085 -0.0069 -0.1253 -0.0814
23927W        W40061  10.674  11.007  12.027  0.3087 -0.4992 -0.0100
23928W        W40062  10.650   3.240   0.093  0.0999 -0.2542 -0.0474
23929W        W40063   6.846  19.014  12.253 -0.2575 -0.0804  0.1395
23930W        W40064  12.329  18.136  14.721 -0.1870  0.2601 -0.2339
23931W        W40065  11.005  18.115   1.342  0.2034  0.1333  0.0673
23932W        W40066  16.995  13.566   2.940 -0.1030 -0.1649 -0.0273
23933W        W40067   3.414  17.488   5.504  0.1665 -0.0310  0.2090
23934W        W40068  17.160  16.608  11.470 -0.0562  0.0249 -0.1523
23935W        W40069   7.962  10.335  10.439  0.2489 -0.1123  0.0775
23936W        W40070   0.762  17.348  12.613 -0.0596 -0.2805  0.1147
23937W        W40071  13.476  16.506   6.115  0.0640  0.2766  0.0134
23938W        W40072  17.654   3.672   2.478 -0.0125 -0.3763  0.0691
23939W        W40073   1.096   8.512  12.438  0.0410 -0.4827 -0.1699
23940W        W40074  18.768  14.924   3.025  0.1743  0.0523 -0.0489
23941W        W40075  13.342  10.356  10.384 -0.0169 -0.1305 -0.0838
23942W        W40076   5.725   6.406   3.578 -0.1233  0.1573  0.1540
23943W        W40077  14.443   0.322   5.925  0.2229 -0.1621  0.0766
23944W        W40078   7.961  16.291   4.798 -0.1204 -0.1536  0.3626
23945W        W40079  18.367   9.360  14.251 -0.0944 -0.0441 -0.2072
23946W        W40080   1.123   0.288  11.419  0.0252 -0.1280 -0.0552
23947W        W40081  11.410  11.174  13.141 -0.2001 -0.2505  0.0650
23948W        W40082  10.481  18.184   4.373  0.0552 -0.2238  0.2960
23949W        W40083   0.779   3.211  14.792 -0.1593 -0.0059  0.1046
23950W        W40084   4.567   9.144  10.062  0.1511 -0.2121  0.0085
23951W        W40085  17.680  11.235   2.648  0.0921 -0.2208 -0.1211
23952W        W40086  15.799   1.122  12.784  0.0536  0.3236 -0.2312
23953W        W40087   8.180   4.244  13.083 -0.2689 -0.3648 -0.4398
23954W        W40088   9.343   9.275   0.914 -0.1395  0.1662 -0.0620
23955W        W40089   2.214  10.013  14.223  0.0680 -0.2085 -0.1826
23956W        W40090  16.501   0.531   2.551 -0.1419 -0.2130 -0.1526
23957W        W40091   9.830   0.674   0.444  0.0363 -0.0694  0.0855
23958W        W40092   2.735   0.078   0.364 -0.0662 -0.2315 -0.2028
23959W        W40093  10.825  10.067   0.235  0.0062  0.0229 -0.1684
23960W        W40094  11.593  17.710   0.156 -0.2951 -0.2467  0.3325
23961W        W40095  10.668  11.565   0.891 -0.1538  0.2154  0.1026
23962W        W40096   9.891   5.710  12.162  0.1327 -0.3107  0.1325
23963W        W40097   9.677  13.502   4.110  0.0833 -0.1900 -0.0221
23964W        W40098   9.740   3.254  14.384 -0.1059 -0.3188  0.3292
23965W        W40099   1.667  14.058  13.298 -0.0221 -0.2853 -0.1776
23966W        W40100  14.899   5.075   5.323 -0.0609  0.2580  0.1844
23967W        W40101  15.736  11.850  10.985 -0.1109 -0.1819 -0.2320
23968W        W40102  12.296   6.129   1.203  0.1846  0.4031 -0.0967
23969W        W40103   9.680   4.913  11.632 -0.0213  0.1579 -0.0096
23970W        W40104  16.650   0.774   5.093  0.3121 -0.2050  0.0149
23971W        W40105  10.941   0.406   4.208 -0.0599  0.4720  0.0247
23972W        W40106  15.325   4.917   2.258  0.0803 -0.0339 -0.0516
23973W        W40107  15.811   1.204  13.837 -0.2748  0.4268  0.2535
23974W        W40108   5.039   8.144   1.467  0.2202  0.1201 -0.2229
23975W        W40109   5.876  12.161   1.920 -0.0501 -0.2064 -0.1479
23976W        W40110   0.981   4.355  13.191 -0.0550 -0.1411 -0.0559
23977W        W40111  10.505   8.109   3.502 -0.2911 -0.1114  0.0468
23978W        W40112   5.655  12.220   1.450 -0.0765  0.0834  0.4054
23979W        W40113   2.136  18.580   5.259 -0.0046  0.1922 -0.2266
23980W        W40114  18.830  10.918   3.363 -0.0713  0.0877 -0.1097
23981W        W40115   8.605  16.688  11.356  0.1160  0.2901  0.1166
23982W        W40116  16.294  14.403   1.155 -0.3146 -0.2042  0.1929
23983W        W40117  18.584   6.057  12.742  0.3258  0.1876 -0.0453
23984W        W40118   8.226  13.250   2.975 -0.3855 -0.2669 -0.3326
23985W        W40119   1.306   8.330   0.704 -0.2374  0.1528 -0.1551
23986W        W40120   7.356  17.956   3.111  0.3164  0.0341 -0.0681
23987W        W40121   9.257  13.132  13.389  0.0340 -0.1794  0.1482
23988W        W40122   4.360   9.781  11.877 -0.2825  0.0672 -0.1993
23989W        W40123   8.257   9.045   2.817 -0.0593 -0.0198 -0.1295
23990W        W40124   7.963  15.090   2.585 -0.3530 -0.1750 -0.1024
23991W        W40125   8.180  14.327  10.642 -0.0678 -0.4474  0.0229
23992W        W40126  16.723  14.030  10.515 -0.0247 -0.1218  0.0559
23993W        W40127  15.499  16.766   4.669 -0.1117 -0.1273 -0.0646
23994W        W40128   1.984  18.353  10.692  0.1117  0.1659  0.0960
23995W        W40129  15.873   8.521  13.431 -0.3191 -0.1152 -0.1079
23996W        W40130   5.668   9.523  11.925  0.0616 -0.1108 -0.2903
23997W        W40131   4.102   1.450   0.622  0.3082 -0.2455 -0.2323
23998W        W40132   3.742  10.599   2.638 -0.0770 -0.1744 -0.1495
23999W        W40133   8.607  12.456   3.728 -0.1256 -0.0251  0.1856
24000W        W40134  14.038  15.087   2.338  0.0120 -0.0111  0.1071
24001W        W40135  16.297   6.394  11.334 -0.0465  0.2649 -0.0790
24002W        W40136   8.684   0.472  10.990 -0.0589 -0.0418 -0.0218
24003W        W40137   7.750  15.560   1.808  0.0388 -0.0192 -0.3850
24004W        W40138   7.852   4.361  10.168 -0.1223 -0.0241  0.0195
24005W        W40139   2.185  11.420  13.152 -0.0789 -0.2301  0.0175
24006W        W40140  15.954  16.319   5.420 -0.0866  0.0893  0.0301
24007W        W40141   0.559  13.670  12.141  0.1865 -0.0333  0.1390
24008W        W40142   0.112   7.885  11.391 -0.2043 -0.0284  0.0658
24009W        W40143  17.149   6.863   5.462 -0.1021  0.1935 -0.3125
24010W        W40144  15.454  17.844  13.163 -0.0543 -0.2009 -0.2016
24011W        W40145   7.731   2.755   3.343 -0.0145  0.1346  0.1253
24012W        W40146   0.635  16.704   0.167  0.1148 -0.0831 -0.1635
24013W        W40147  11.448   3.673  13.381 -0.2253  0.0651  0.0724
24014W        W40148  15.647  16.665   5.994  0.0829 -0.2528 -0.0554
24015W        W40149  11.941  18.328  14.339  0.2402  0.2227  0.0168
24016W        W40150  16.439   6.532  14.603  0.2420  0.0056  0.4311
24017W        W40151  16.283   4.444   3.063 -0.2095 -0.0365 -0.2701
24018W        W40152  13.988   1.392   1.214 -0.2609 -0.2433  0.2994
24019W        W40153  12.826  14.430   2.303 -0.0937  0.3350  0.1086
24020W        W40154  12.184  14.421   2.998  0.0212 -0.1074 -0.1077
24021W        W40155  10.150   7.612  13.038 -0.3655  0.1408 -0.3488
24022W        W40156  18.322   3.690  12.476  0.0848  0.0522  0.3988
24023W        W40157  15.858  14.204   1.481 -0.1111  0.0806 -0.1128
24024W        W40158   9.345   2.445   4.450  0.4275 -0.3636 -0.3018
24025W        W40159  14.847  16.056   1.743  0.1857 -0.2670 -0.0997
24026W        W40160   2.062  11.365  10.049 -0.0759 -0.0902 -0.2165
24027W        W40161   2.373   2.366  11.213 -0.2228 -0.2178 -0.0694
24028W        W40162  11.419   8.373  13.396 -0.1599 -0.1465 -0.3089
24029W        W40163   3.527  13.165   1.611 -0.2041 -0.1849 -0.0707
24030W        W40164  10.281   2.120  13.058  0.0839 -0.2142  0.0044
24031W        W40165   0.044   5.070  13.917 -0.2052 -0.1594 -0.0512
24032W        W40166   5.993   7.934   1.585 -0.0283 -0.1984 -0.4091
24033W        W40167  17.949   6.924  14.046 -0.0186  0.1850  0.1243
24034W        W40168   9.143   5.300   1.020 -0.0309  0.0536  0.0194
24035W        W40169   0.889  13.126   1.206  0.2652  0.0466 -0.0662
24036W        W40170   0.222   9.578  13.111  0.1332 -0.0863  0.1553
24037W        W40171  14.077  16.696   0.334  0.2071  0.6098  0.1007
24038W        W40172   1.186   2.129  13.128 -0.0859  0.2222  0.0389
24039W        W40173  10.018   9.958  12.304  0.1019 -0.1938  0.0613
24040W        W40174   7.831   7.937   1.502  0.2328  0.2875 -0.2301
24041W        W40175   7.518   6.026  13.835 -0.1342 -0.3162 -0.1169
24042W        W40176   5.048  12.705   0.643 -0.2164 -0.0812  0.2109
24043W        W40177  16.478  12.640   0.189  0.1260  0.2522  0.2578
24044W        W40178   2.909  17.164   2.254 -0.1163  0.1048 -0.2406
24045W        W40179   5.583  16.603  14.432 -0.1122  0.0881  0.0085
24046W        W40180   9.249   2.401   5.427  0.1159 -0.0420 -0.1057
24047W        W40181   9.587  15.079   4.551  0.1097 -0.1079  0.0954
24048W        W40182  17.754   3.157   1.191 -0.2940  0.0890  0.3903
24049W        W40183   6.159   4.857   0.802 -0.1668 -0.1081  0.0658
24050W        W40184   7.606   7.276   5.044 -0.2725  0.2743 -0.2904
24051W        W40185   7.280   2.010  11.168  0.0524 -0.3247  0.2572
24052W        W40186   2.599  15.645  10.275 -0.1280 -0.0813 -0.2693
24053W        W40187  13.809   0.923   3.870  0.1243  0.0466 -0.1072
24054W        W40188   5.527   9.487  14.010 -0.0456  0.3469 -0.0541
24055W        W40189   1.201  13.371  14.777 -0.1059  0.0261 -0.0296
24056W        W40190   9.564   5.998   2.689  0.0089  0.0623 -0.1501
24057W        W40191  10.426  13.832  13.427 -0.0914 -0.0058  0.0118
24058W        W40192   9.663   7.721  11.648  0.6281  0.0144  0.0149
24059W        W40193  11.429   3.422  10.874  0.2816 -0.2868  0.0451
24060W        W40194   7.782   3.141  14.613  0.4415 -0.3491 -0.0394
24061W        W40195  11.499  18.155   4.925  0.0282 -0.1398  0.0444
24062W        W40196   3.751  15.808  11.852  0.0820  0.2544 -0.1266
24063W        W40197  12.591  15.059   0.695  0.1752  0.2183 -0.0455
24064W        W40198   5.921   0.287   4.955  0.0936 -0.2637 -0.1085
24065W        W40199   9.344   7.625  10.937  0.1535 -0.2538  0.0955
24066W        W40200   5.459   1.868  13.741  0.1176  0.3707 -0.2239
24067W        W40201  14.264   4.713  14.363 -0.1924  0.0229 -0.2392
24068W        W40202   5.743   7.898  13.380  0.3663  0.0894  0.2113
24069W        W40203   1.355   2.593  11.763 -0.1002  0.0168  0.0897
24070W        W40204   2.971   7.759   2.763 -0.0972  0.2130  0.1311
24071W        W40205   7.222   2.778   3.509 -0.1769  0.1318 -0.0963
24072W        W40206   9.697  11.343  13.930 -0.0459 -0.0383 -0.0399
24073W        W40207  18.471  12.666  14.690 -0.2195 -0.0400  0.0830
24074W        W40208   8.138  17.934   4.172 -0.1495 -0.0866  0.0084
24075W        W40209   9.326  14.238   2.343 -0.1357  0.0489 -0.2306
24076W        W40210   1.874  14.762   0.387  0.3416 -0.0930  0.0571
24077W        W40211  13.238   9.637   3.810 -0.0428  0.1394  0.3208
24078W        W40212  14.155   4.372   4.132  0.1199 -0.1092  0.1334
24079W        W40213  14.286  12.187  13.352 -0.0814 -0.0720  0.4030
24080W        W40214  18.234  19.112   4.430 -0.0587 -0.1032  0.1422
24081W        W40215   5.646  16.384   0.738 -0.0008 -0.0508 -0.3522
24082W        W40216  16.447  12.957  11.090 -0.1076 -0.0478  0.1564
24083W        W40217  17.151  16.381   3.718  0.1122 -0.0351 -0.1216
24084W        W40218  10.922   2.102   3.322 -0.0322 -0.1456  0.4468
24085W        W40219   9.122   5.868   0.992 -0.5847  0.0864  0.0154
24086W        W40220  16.650   2.776   1.983  0.1632  0.2211  0.4031
24087W        W40221   8.736  10.133  11.517  0.0976  0.0940 -0.2169
24088W        W40222  16.416   2.281  12.627 -0.1040  0.0235 -0.0996
24089W        W40223  15.299  15.524  14.565  0.2667 -0.2594 -0.0124
24090W        W40224  14.522   3.799  13.342 -0.1099  0.2400  0.0522
24091W        W40225   8.886  17.431   4.460 -0.0167  0.3217  0.4785
24092W        W40226   0.925  18.989  10.593 -0.3068  0.0422  0.0313
24093W        W40227  12.828  13.151   1.903 -0.3082 -0.0479 -0.1128
24094W        W40228   8.031   2.729   2.472 -0.1000  0.1250  0.2437
24095W        W40229  16.337   1.539  13.075  0.0706  0.2273 -0.3232
24096W        W40230  12.225  17.806   4.312  0.1926  0.1557  0.0584
24097W        W40231  15.779   7.982   1.715  0.0598  0.0039 -0.3885
24098W        W40232  13.354  10.129  13.170 -0.4176 -0.1051 -0.2034
24099W        W40233   3.715   9.028  12.594 -0.0257 -0.1919  0.2868
24100W        W40234  13.939  12.343   1.212 -0.2922  0.2796 -0.1368
24101W        W40235  17.446  13.849  13.059  0.1507  0.1902  0.1184
24102W        W40236   9.056   3.925   3.364  0.0623 -0.0356  0.1043
24103W        W40237  15.313   5.920  12.367  0.0083  0.4140 -0.0275
24104W        W40238   4.570  17.981   0.267  0.1020 -0.2291 -0.1774
24105W        W40239  11.001   5.661  14.542  0.0730 -0.0750  0.4079
24106W        W40240   7.500  18.774   6.163 -0.1369  0.2364  0.2072
24107W        W40241   7.512   9.499  13.757 -0.0868  0.1867 -0.1164
24108W        W40242   8.583   9.505  14.854  0.1015  0.1730  0.1481
24109W        W40243   5.338  11.017  12.243  0.1387 -0.1700 -0.2714
24110W        W40244   5.929  16.622  12.339  0.1490 -0.0987 -0.2054
24111W        W40245  11.493  17.177  13.251  0.1658 -0.1985  0.2428
24112W        W40246   8.232   7.791   2.689 -0.1270 -0.0763 -0.0122
24113W        W40247   8.838  18.889  10.383 -0.1378 -0.1348 -0.1227
24114W        W40248   6.859  14.221  12.347 -0.0814  0.1599  0.2055
24115W        W40249   6.842  17.477  14.846  0.1513 -0.2316  0.2801
24116W        W40250   4.688   9.921   0.833  0.0004 -0.0457 -0.0817
24117W        W40251   7.864   2.351  12.522 -0.1799  0.2201 -0.1748
24118W        W40252   4.402  14.726   0.963 -0.2882 -0.1904 -0.1706
24119W        W40253   6.638   6.344   3.658 -0.1605 -0.2051 -0.0855
24120W        W40254  11.061  11.717  13.725  0.5433 -0.3902  0.0429
24121W        W40255  13.688  14.065  10.602  0.0989  0.1842 -0.0687
24122W        W40256   7.323   5.998  12.324  0.2324 -0.1219 -0.0022
24123W        W40257   3.432   0.333  11.281  0.0241  0.0938  0.0417
24124W        W40258   1.716   6.472  13.564  0.1355  0.0222  0.1581
24125W        W40259  15.323  16.016  11.108 -0.0647  0.0561 -0.1668
24126W        W40260  14.070   3.627   1.560 -0.4205 -0.1016 -0.0121
24127W        W40261   5.045   3.835   2.482 -0.4929 -0.4469 -0.0412
24128W        W40262   4.721   1.021   4.249  0.1028 -0.0907  0.2128
24129W        W40263  10.237  15.135  10.118 -0.0111  0.1936  0.3478
24130W        W40264   4.331  16.006   4.843 -0.3572 -0.0658  0.3668
24131W        W40265   5.196  18.034  11.467  0.1485 -0.1567 -0.0939
24132W        W40266   1.296   7.133  11.418  0.2532 -0.0048 -0.1561
24133W        W40267   2.179   4.140   1.910 -0.0549  0.0570 -0.2620
24134W        W40268   9.029   2.712  11.462 -0.3483  0.2072 -0.1886
24135W        W40269  15.641   0.806   2.272  0.0542 -0.1504 -0.0943
24136W        W40270   5.306  15.197   5.382 -0.0784 -0.2196 -0.0883
24137W        W40271  17.992   4.841   2.686  0.0140 -0.0704 -0.1362
24138W        W40272  14.889   8.083  10.477 -0.0006  0.0930 -0.0773
24139W        W40273  13.225  17.665  13.514  0.0507 -0.1574  0.1326
24140W        W40274  16.431   4.027  10.993  0.0044  0.2845 -0.2769
24141W        W40275  15.859   4.367  11.670  0.0643 -0.2367  0.1648
24142W        W40276   2.585  11.978  10.859  0.0663 -0.1928  0.3889
24143W        W40277   8.574  16.642  10.331  0.0225 -0.3355  0.1181
24144W        W40278   1.478   1.959  10.770 -0.0372 -0.2041 -0.0859
24145W        W40279   9.404  13.417  11.418  0.1929 -0.0756 -0.0480
24146W        W40280  13.420  14.026   0.851  0.0505 -0.1665  0.3338
24147W        W40281  19.142  14.985   3.445  0.0957 -0.1027 -0.2446
24148W        W40282  11.656  18.508  14.686 -0.0773 -0.2077  0.0864
24149W        W40283  17.853   7.213  14.495 -0.3513 -0.3374  0.1278
24150W        W40284  15.224  14.742   0.446 -0.2476  0.1239 -0.0854
24151W        W40285  19.082   9.371  14.052 -0.3242  0.1938 -0.2519
24152W        W40286   7.535   2.290   4.195 -0.3725 -0.0906  0.0355
24153W        W40287  16.777  19.163  14.778  0.0137 -0.0659  0.1059
24154W        W40288  19.161   5.739   1.212  0.0527 -0.1958 -0.0210
24155W        W40289   3.079  15.794  10.650  0.1005  0.0854  0.3702
24156W        W40290   3.962  19.080  14.522 -0.0414 -0.1623 -0.0796
24157W        W40291  14.494  13.049  13.317  0.0969  0.0791 -0.2038
24158W        W40292   1.673  17.394   1.595  0.0816  0.0400  0.2162
24159W        W40293  17.938   0.381   3.022  0.0501  0.1244 -0.3330
24160W        W40294  15.818  13.676   1.150 -0.0744 -0.2345  0.1792
24161W        W40295  17.980  17.055  13.879  0.0825 -0.1848  0.0001
24162W        W40296   6.713  11.818   1.909  0.0790 -0.0278  0.3089
24163W        W40297  15.891   4.189   5.017 -0.1766  0.5421 -0.1062
24164W        W40298   4.450  10.723   4.391  0.0536 -0.0048  0.2215
24165W        W40299  14.858  14.860  12.666 -0.1412  0.1447 -0.1427
24166W        W40300  12.082   4.980  13.595 -0.2670 -0.0162 -0.0002
24167W        W40301   6.397   4.041   3.440 -0.2058  0.1804  0.1518
24168W        W40302   6.809   8.205   3.152 -0.1596  0.0250 -0.1776
24169W        W40303   9.397   2.855   0.076  0.3071 -0.1157 -0.1411
24170W        W40304   1.844  14.936  13.546  0.3205 -0.0739 -0.1336
24171W        W40305   8.838  13.791   3.066 -0.1160  0.1160 -0.3919
24172W        W40306   7.224   1.803   4.110 -0.1768 -0.0802  0.0694
24173W        W40307  12.751  12.547   0.470  0.1490 -0.1816  0.0770
24174W        W40308  16.937   9.926   2.502  0.0569  0.0029 -0.2326
24175W        W40309  17.841   5.728  11.828 -0.0332 -0.1994 -0.1787
24176W        W40310   5.172  15.486  14.059  0.1938 -0.0354  0.1010
24177W        W40311   4.160   7.560   3.410  0.0213  0.0513  0.2453
24178W        W40312   1.272   0.590  13.088  0.0323 -0.0693  0.1253
24179W        W40313  11.711   7.942   2.279 -0.0503 -0.1202  0.2412
24180W        W40314   3.770  17.830   9.774 -0.2429  0.3544 -0.1096
24181W        W40315   9.095   7.809   1.362  0.2212 -0.1292  0.6908
24182W        W40316  18.274   5.803  11.450  0.1887  0.2002 -0.1786
24183W        W40317   5.741   5.606   3.903 -0.1275  0.2894 -0.2403
24184W        W40318   7.916   9.601  12.931  0.0811 -0.2519  0.2783
24185W        W40319   7.778  13.594  12.424 -0.0093 -0.1036 -0.0396
24186W        W40320  18.846  13.538   1.928 -0.0643 -0.0525 -0.1279
24187W        W40321   2.532  11.487  12.823 -0.4912  0.0181  0.3318
24188W        W40322   0.532  10.360   0.234  0.1819  0.2594 -0.2803
24189W        W40323   9.007  17.105   3.676  0.0169 -0.0669 -0.1498
24190W        W40324   5.000  14.616  10.574 -0.1121 -0.1523 -0.0991
24191W        W40325  11.595   3.261  14.186  0.1584  0.0030  0.2204
24192W        W40326   7.493  19.333   2.665 -0.1206  0.2151  0.0881
24193W        W40327  11.569  16.639   0.820 -0.1194 -0.3358  0.1795
24194W        W40328   9.500   3.013  11.096 -0.0383 -0.0314  0.2350
24195W        W40329   0.372  17.584  10.474 -0.2757 -0.3924  0.1462
24196W        W40330  12.011   5.920   4.739 -0.1674 -0.1135  0.3962
24197W        W40331   7.043   0.127  13.391  0.0829 -0.0900 -0.0773
24198W        W40332   3.985   9.954  10.923  0.4120  0.2827  0.0870
24199W        W40333   6.816  12.791  13.231  0.1026  0.0039 -0.1321
24200W        W40334  10.288   2.433   1.903  0.1059 -0.1819 -0.1830
24201W        W40335  13.462   2.564  12.717 -0.1042 -0.0645 -0.0141
24202W        W40336   5.590   2.505   9.896  0.1586 -0.2971  0.1802
24203W        W40337   5.331  11.043  10.372  0.0536  0.0838  0.0449
24204W        W40338  13.754  13.821  13.411 -0.2027  0.3230  0.2018
24205W        W40339   7.979   1.163  13.820 -0.1413 -0.0003 -0.0886
24206W        W40340   6.415  11.207   3.004  0.0813 -0.3122 -0.0155
24207W        W40341  15.173  11.680   0.965 -0.1181  0.1329 -0.1862
24208W        W40342  11.342  18.523  12.005  0.1927 -0.0795 -0.0103
24209W        W40343   1.105  15.103   2.421 -0.1842  0.3482 -0.0837
24210W        W40344  17.157   3.412   4.613 -0.4736  0.0852 -0.1046
24211W        W40345  14.773   7.315   1.199  0.4122 -0.0134  0.0520
24212W        W40346   6.677  17.958  12.350 -0.0114  0.1979  0.1148
24213W        W40347  15.229   3.790  14.529  0.1809 -0.0568 -0.0857
24214W        W40348   1.108   6.979  13.835  0.2982 -0.1661 -0.1345
24215W        W40349   9.526   5.132  14.300 -0.0517  0.3380  0.1817
24216W        W40350   0.376  15.814  11.519 -0.1206  0.2273  0.0748
24217W        W40351  13.603   4.713   0.259  0.3665  0.3231  0.1503
24218W        W40352  18.192   9.958  11.271  0.3053 -0.1803 -0.0488
24219W        W40353   8.530  16.829  12.386  0.0104 -0.3472  0.1449
24220W        W40354  12.665   1.949  14.115 -0.1853 -0.2164 -0.0623
24221W        W40355  14.436  17.204   1.662  0.1019  0.0026  0.0975
24222W        W40356  12.289  18.781   1.809  0.3918 -0.2901 -0.2068
24223W        W40357   7.169   1.168   3.329 -0.1787 -0.3658  0.1753
24224W        W40358   4.962   2.790  13.870 -0.0012 -0.1575 -0.0028
24225W        W40359  10.147   9.582  14.079 -0.1439 -0.0180  0.0505
24226W        W40360  12.723  18.892   0.290 -0.0959  0.1269 -0.2320
24227W        W40361  11.427  14.956  11.306 -0.2445  0.0227  0.0624
24228W        W40362  16.941  10.157  10.694  0.2399  0.0969  0.0908
24229W        W40363  11.621   1.918   2.320  0.3494  0.0309  0.3477
24230W        W40364   3.250  16.994   0.669 -0.2107 -0.1115  0.0626
24231W        W40365  17.172  11.978  14.124 -0.2324  0.3255 -0.2551
24232W        W40366  16.683  13.313   3.259 -0.1095 -0.0827 -0.2275
24233W        W40367   0.703   0.025  14.973  0.3770 -0.0791 -0.0198
24234W        W40368  17.741  12.143   1.193 -0.0843  0.2693 -0.1177
24235W        W40369   3.024  16.947  12.142 -0.0238  0.1415 -0.1268
24236W        W40370  17.163   0.179   5.180  0.0152  0.1064  0.0140
24237W        W40371   2.349   3.107   9.774  0.0051  0.1136 -0.0044
24238W        W40372  13.746  11.910   2.868  0.3571  0.0897 -0.0269
24239W        W40373  17.197  19.014  13.858 -0.0727  0.0802  0.1141
24240W        W40374  15.531  12.657   3.871 -0.2266 -0.2002 -0.2101
24241W        W40375  16.831   3.469   2.967 -0.0409  0.0711  0.1339
24242W        W40376   5.628   5.188  14.941 -0.3039  0.1764 -0.3566
24243W        W40377  16.074   5.675   3.869  0.2845  0.3043 -0.2700
24244W        W40378   5.658  16.483   1.676  0.0904  0.3904  0.1006
24245W        W40379  16.368  17.417  13.440  0.0491 -0.0684  0.2619
24246W        W40380   3.784  10.269  11.823 -0.1691  0.1464 -0.2802
24247W        W40381  10.317  17.516   0.675  0.0840  0.2682  0.1808
24248W        W40382   4.574  11.463  11.865  0.1646  0.1703 -0.2744
24249W        W40383   4.631  12.051   3.432 -0.0627  0.0563  0.3249
24250W        W40384  10.897   0.624  13.014 -0.0374  0.0808 -0.1834
24251W        W40385   8.386   9.441   0.340  0.1590  0.1005  0.0766
24252W        W40386  15.805  11.360  12.436 -0.1456  0.2774 -0.2032
24253W        W40387  19.172   9.086   3.571 -0.1239 -0.2907  0.3761
24254W        W40388  17.157  13.890   1.995 -0.0651 -0.1828 -0.1538
24255W        W40389  16.651  17.856  13.181 -0.0680  0.0905 -0.2603
24256W        W40390  18.899  12.587   0.563  0.1105 -0.0549  0.4282
24257W        W40391   2.148   7.308   4.336 -0.0177 -0.3154  0.0170
24258W        W40392  15.277  17.578   2.002  0.0939 -0.0808 -0.1051
24259W        W40393   6.076   6.834   9.480  0.1736 -0.1870 -0.0526
24260W        W40394  18.119  13.966   0.683  0.0357 -0.1746  0.0669
24261W        W40395   5.838   9.586   3.105  0.0903 -0.2623 -0.0229
24262W        W40396  13.553   5.888  13.146  0.2715 -0.2028 -0.0801
24263W        W40397   7.539   0.351  13.355 -0.0745 -0.0571  0.2949
24264W        W40398   0.805   4.667  12.327 -0.0188  0.0344 -0.0588
24265W        W40399  13.759   1.257   1.854 -0.1655 -0.2395 -0.0513
24266W        W40400   7.723  12.526   1.971 -0.1032  0.1418  0.1101
24267W        W40401  16.840   5.536   0.893  0.2294  0.1011  0.1988
24268W        W40402  17.033  11.699  12.144  0.2330  0.0015  0.2834
24269W        W40403   8.861   1.006   0.087 -0.2189 -0.1517  0.1326
24270W        W40404  14.090   0.839  10.580 -0.1949  0.0097  0.0413
24271W        W40405  15.492  18.710   1.470 -0.3176  0.1361 -0.0281
24272W        W40406  15.923   0.219   1.519  0.2626  0.1976 -0.1212
24273W        W40407   6.208   3.486   2.667  0.1368 -0.0489  0.0653
24274W        W40408   7.825   6.158  13.385 -0.0347 -0.0187  0.1902
24275W        W40409  13.324  17.020   3.191 -0.1905 -0.3603 -0.2416
24276W        W40410   3.993   4.066   2.125 -0.0910  0.1579 -0.0816
24277W        W40411  16.267  16.368  14.838  0.0682 -0.1937 -0.2417
24278W        W40412   7.216   1.710   1.928  0.3891  0.2091  0.3258
24279W        W40413   9.914   3.425  13.410 -0.2185 -0.0775  0.0396
24280W        W40414  17.809   8.188  10.367  0.0385 -0.1626 -0.1775
24281W        W40415   5.302  13.588   1.726 -0.4611 -0.2464  0.2911
24282W        W40416   2.146   6.901   9.303  0.3009 -0.0191 -0.1542
24283W        W40417   3.129   0.523   0.132  0.2814 -0.1281  0.3662
24284W        W40418  10.170  17.490  11.514  0.1952  0.0528  0.0369
24285W        W40419   7.258  12.448   3.772  0.1334  0.1532 -0.1309
24286W        W40420   2.917   1.697   2.609 -0.0761 -0.0224 -0.1209
24287W        W40421   7.306  14.689   5.268  0.3556 -0.2173  0.0089
24288W        W40422  14.270   9.190   3.764 -0.1718  0.0837 -0.1708
24289W        W40423  12.847  17.157   2.063  0.3834  0.2733  0.1970
24290W        W40424  10.863  18.605   1.468  0.3330 -0.1672  0.1268
24291W        W40425  18.243   6.748  10.537  0.1056 -0.1653 -0.0153
24292W        W40426   7.669   2.325   0.389 -0.0497 -0.1150 -0.0051
24293W        W40427   8.916  17.511  12.006  0.2279 -0.0713  0.2142
24294W        W40428   1.378  15.844   3.176 -0.0546 -0.1087 -0.0062
24295W        W40429  13.937   0.431   3.855  0.1164  0.0127  0.2658
24296W        W40430   9.759   9.370   3.029 -0.0206  0.0001 -0.1871
24297W        W40431  18.179   6.281  12.431 -0.0906  0.1691 -0.0036
24298W        W40432   2.933   7.497  14.170  0.1234  0.1211 -0.2396
24299W        W40433   6.025   4.213   0.214  0.1005  0.0031 -0.1951
24300W        W40434  18.834   2.958  12.053 -0.2981 -0.1666 -0.0359
24301W        W40435   5.141  12.018   5.245 -0.0231 -0.2244 -0.0055
24302W        W40436   7.444   8.110   1.149  0.0118  0.0201  0.1963
24303W        W40437   0.424   2.286  12.088  0.0433 -0.6810 -0.0992
24304W        W40438  10.779   6.257  10.698 -0.0729 -0.3354 -0.0033
24305W        W40439  12.355   1.068  14.203 -0.0935 -0.1929 -0.2529
24306W        W40440   4.071  18.623   3.022 -0.0950  0.3842  0.2106
24307W        W40441   0.555   1.690  10.987 -0.2892 -0.0860  0.0257
24308W        W40442  10.037  13.816   4.421 -0.0735  0.2449 -0.1483
24309W        W40443  17.505  16.894   0.863  0.0240  0.1418  0.1430
24310W        W40444  17.526   0.739  13.581  0.0490  0.0302 -0.3972
24311W        W40445   4.936  10.666   4.179 -0.1584 -0.2870  0.1969
24312W        W40446   0.104  11.595   1.569 -0.0615 -0.2425  0.2760
24313W        W40447  15.591   0.446  11.946  0.0651 -0.1231  0.1406
24314W        W40448   1.914  18.765  13.429 -0.0544 -0.1653 -0.0508
24315W        W40449   9.745   6.708   4.383  0.2948 -0.0176  0.2806
24316W        W40450   0.452   1.559  13.668 -0.4706 -0.0245  0.0050
24317W        W40451   9.903  15.414   2.964 -0.0707 -0.0431 -0.5065
24318W        W40452   2.650   8.144  14.370  0.0685 -0.1285  0.2214
24319W        W40453   1.461   9.627  11.320 -0.2311 -0.0809 -0.3285
24320W        W40454  19.235  16.771  10.103 -0.1543  0.2747  0.1825
24321W        W40455  11.921  13.327   2.121  0.4827 -0.0694 -0.0271
24322W        W40456  14.249  15.240  14.350  0.0548 -0.0775  0.0662
24323W        W40457   2.896  18.147   2.530  0.0635  0.0315 -0.4713
24324W        W40458   4.971   4.325  12.088  0.0003 -0.0436  0.0222
24325W        W40459   0.362   5.456   0.397  0.0381 -0.0374 -0.0502
24326W        W40460  11.461  11.850   4.421  0.1697 -0.1315 -0.1901
24327W        W40461   9.766  11.801  12.969 -0.0830 -0.1639  0.4201
24328W        W40462   9.778   2.188  12.900  0.2081  0.2529  0.0095
24329W        W40463   2.887   8.960  12.474 -0.1961  0.0869  0.3193
24330W        W40464  12.827  13.517   2.231 -0.0109  0.3027  0.0056
24331W        W40465  17.774   6.701  11.468 -0.1362 -0.0589 -0.0122
24332W        W40466  11.272  12.203   5.506 -0.2890 -0.0943 -0.2214
24333W        W40467  18.101   9.976   1.365 -0.2217  0.1763 -0.0892
24334W        W40468  11.328  12.047  12.512  0.1920  0.1030  0.0543
24335W        W40469  17.652  17.548  11.644 -0.3062 -0.2351 -0.1321
24336W        W40470  13.690   8.041   9.383  0.2856 -0.0250  0.0176
24337W        W40471   5.595  12.235  13.273  0.2681  0.2262  0.0326
24338W        W40472   6.967   8.650   0.138  0.1693  0.1987  0.1082
24339W        W40473   3.538   9.407   3.427 -0.0447  0.0210  0.0248
24340W        W40474   5.128   3.115   0.048  0.3227  0.3574 -0.2093
24341W        W40475  15.993   9.340   4.387 -0.2513 -0.2407  0.2467
24342W        W40476  15.894  13.783  14.446  0.1121 -0.1265  0.2947
24343W        W40477   4.711  18.755  14.953 -0.4486  0.0401  0.3707
24344W        W40478  18.845   4.308   3.978  0.0071 -0.0211 -0.0576
24345W        W40479  12.478   7.094   5.162 -0.3097  0.1669  0.1428
24346W        W40480  14.345  12.780   1.924 -0.0316  0.3524  0.1076
24347W        W40481   8.243  10.329  14.068 -0.0627 -0.1052 -0.2108
24348W        W40482   9.740   0.579   3.344 -0.2278 -0.0933 -0.1292
24349W        W40483  13.387   0.450  12.414 -0.4095  0.2607 -0.1104
24350W        W40484  15.223  15.119  10.432  0.1875  0.2196 -0.0806
24351W        W40485   6.147  12.969   2.879  0.0759  0.1135 -0.0137
24352W        W40486  12.213  16.914   4.968  0.0051  0.2063 -0.0411
24353W        W40487   0.758   2.422  11.669  0.3221 -0.2903 -0.0425
24354W        W40488  14.874   4.548  14.761  0.3065 -0.1478  0.0551
24355W        W40489  14.549  11.310  10.442 -0.2425  0.1297 -0.0007
24356W        W40490   2.932  16.384   2.018  0.1235 -0.1049  0.3689
24357W        W40491   5.110  17.147  11.922 -0.1131  0.1044 -0.2444
24358W        W40492  16.166   1.811  14.402  0.0366  0.3602 -0.2994
24359W        W40493   9.168  16.159   3.815  0.0768 -0.2228 -0.1056
24360W        W40494   7.262   0.334   0.130 -0.0807 -0.2410 -0.0659
24361W        W40495  12.119  12.954  13.133 -0.0113 -0.6112  0.1092
24362W        W40496   9.526   9.913  12.813 -0.2038  0.0319  0.3196
24363W        W40497   8.543  10.781   0.606 -0.0930 -0.3067 -0.2698
24364W        W40498  17.521   9.518   1.158 -0.4807 -0.0272  0.1215
24365W        W40499   4.464  16.935  13.908  0.2436  0.1624 -0.1159
24366W        W40500  14.235  16.324   2.115  0.1022 -0.5666 -0.1121
24367W        W40501  15.713   4.612  14.527  0.1697  0.0267 -0.1360
24368W        W40502   2.967   5.277  14.966  0.1824  0.3696  0.0359
24369W        W40503   8.224   4.859  10.742 -0.0631  0.2894  0.0928
24370W        W40504  12.546   6.159  11.176 -0.1232 -0.1391 -0.3164
24371W        W40505   0.490   4.549  14.469  0.3692  0.1120  0.4501
24372W        W40506   1.467   0.094   0.868 -0.2722  0.2242 -0.3527
24373W        W40507  12.504   0.314  10.032 -0.0646  0.0188 -0.0871
24374W        W40508   2.368  15.401  13.963 -0.3964 -0.2111 -0.0341
24375W        W40509  15.056  13.390   3.465 -0.1880  0.0014 -0.2065
24376W        W40510  11.087  13.813  13.612 -0.1048  0.1127  0.0543
24377W        W40511  15.529   4.142  13.075  0.3270 -0.2809 -0.1927
24378W        W40512   3.321   6.195   4.778  0.0805 -0.1774  0.0230
24379W        W40513   9.727  17.545  11.804  0.0076  0.2074 -0.3390
24380W        W40514  14.914   3.689   2.610 -0.1274  0.1470 -0.0058
24381W        W40515  15.919  13.583  12.603 -0.1022 -0.0107 -0.2805
24382W        W40516   0.661  12.154   0.549  0.1024 -0.2976  0.0712
24383W        W40517   0.075   4.850   4.831  0.0059  0.1113  0.1160
24384W        W40518  11.653   3.181  12.087  0.1909 -0.1664  0.0810
24385W        W40519   8.466   6.852   2.137 -0.3708 -0.4195 -0.4604
24386W        W40520   8.335  17.868   2.384 -0.1578 -0.0392  0.0913
24387W        W40521   1.983  12.856  13.037  0.1624 -0.1687  0.1220
24388W        W40522   7.305  16.084  14.506 -0.0393  0.0437 -0.2764
24389W        W40523  15.793   3.116   1.416  0.3218 -0.1304  0.2582
24390W        W40524   0.361   2.124   4.235  0.2911  0.5380  0.2488
24391W        W40525   0.219  17.242  12.824  0.0804  0.0321  0.3153
24392W        W40526  16.592   1.108  11.423 -0.3706 -0.3175  0.1451
24393W        W40527   7.576  16.244   5.984 -0.0959 -0.0203  0.0629
24394W        W40528  12.272  10.937   3.168 -0.3761  0.1036 -0.0780
24395W        W40529  13.253  12.917  12.560 -0.0925  0.1160  0.0768
24396W        W40530  15.756   6.179   0.870  0.1054  0.1674 -0.0800
24397W        W40531  15.297  12.684  14.935 -0.0569 -0.1769  0.1925
24398W        W40532   7.316  10.077  11.671 -0.0200  0.0144  0.1536
24399W        W40533  15.280   3.314   4.011  0.1754  0.0045  0.4970
24400W        W40534   7.864  14.325  11.124 -0.0303  0.0917  0.1387
24401W        W40535  13.321  15.480   1.717  0.0938 -0.1582  0.3904
24402W        W40536  18.340   5.376  11.017 -0.0533  0.2454 -0.0952
24403W        W40537  14.055   4.787   5.411 -0.2534  0.3096 -0.1893
24404W        W40538   4.962   4.581  10.938 -0.0779 -0.1130  0.0373
24405W        W40539   9.603  16.059  11.355  0.1816  0.1072  0.1627
24406W        W40540  14.980  16.133   3.346  0.0434 -0.0259  0.2378
24407W        W40541   1.407  15.082  13.591  0.1315  0.2523 -0.0787
24408W        W40542  14.477   8.852  12.080  0.2893 -0.2712  0.3240
24409W        W40543   0.074  15.405   2.009 -0.2229 -0.2479 -0.2968
24410W        W40544  16.017  16.985   4.662  0.1439  0.0853 -0.2510
24411W        W40545   7.106  16.154   1.396 -0.0035 -0.2688 -0.2404
24412W        W40546   3.875   0.038   0.819  0.3225 -0.3276  0.0547
24413W        W40547   5.182   4.108  14.730 -0.0020  0.2172  0.0567
24414W        W40548  16.559  18.889  10.624 -0.0584 -0.0032  0.0706
24415W        W40549  18.102   1.219   3.462  0.0602  0.0306  0.1331
24416W        W40550   8.521   1.968  14.941 -0.0126  0.1956 -0.2919
24417W        W40551  16.415   4.042   3.486 -0.4104  0.0330  0.0890
24418W        W40552   3.445  11.634   1.220  0.1377 -0.0181  0.2157
24419W        W40553   4.969   8.108   3.027  0.0070  0.1614  0.0339
24420W        W40554   1.233   9.168   2.818 -0.1181  0.0023 -0.0539
24421W        W40555   6.584   5.798   2.139 -0.0303  0.0975  0.1261
24422W        W40556  14.293   6.155   4.504  0.2059  0.0860 -0.0093
24423W        W40557   2.972   6.130  14.219 -0.0852  0.0820  0.0373
24424W        W40558   2.381   7.045  12.239  0.0951 -0.1319 -0.1345
24425W        W40559  13.493  14.151  14.472  0.1982 -0.2289  0.0069
24426W        W40560  16.402  17.233   2.984  0.2980  0.1589  0.5814
24427W        W40561   9.353   8.595  11.966  0.0508 -0.0363  0.4970
24428W        W40562  11.615  10.304   1.790 -0.2871  0.1334  0.4153
24429W        W40563   0.283  13.850   0.481 -0.1072  0.2074 -0.0029
24430W        W40564   8.980  14.633   2.526  0.0052  0.2806 -0.1438
24431W        W40565   1.004  12.452  11.755 -0.1443  0.3763  0.1434
24432W        W40566   0.755   7.089  11.847 -0.0036 -0.1662 -0.0403
24433W        W40567  14.662  13.825  13.215 -0.1171 -0.1332 -0.1003
24434W        W40568  12.837  18.557   0.836  0.0552 -0.1697 -0.1163
24435W        W40569  19.097  19.171  12.018  0.0500 -0.1078 -0.2950
24436W        W40570  17.238  16.671  10.846 -0.1508  0.0766  0.0173
24437W        W40571   9.897  13.096  14.253 -0.1449  0.1157 -0.1895
24438W        W40572   6.713   2.623   4.742  0.0630  0.0981  0.3660
24439W        W40573  14.618   6.071  12.139  0.2007 -0.0371  0.0973
24440W        W40574  15.200  18.033  12.682 -0.3451 -0.1136 -0.1833
24441W        W40575  10.218   4.715  10.605  0.3019 -0.0619 -0.3224
24442W        W40576  19.341  16.484  10.527  0.0061  0.2531  0.0701
24443W        W40577   6.114  12.602   3.297 -0.1199  0.2336  0.2177
24444W        W40578   0.654  18.342   3.013  0.1010 -0.0854  0.0465
24445W        W40579   0.497  13.050   2.691  0.2201 -0.0464 -0.1434
24446W        W40580   8.145   1.638  11.443 -0.2129  0.2690 -0.1573
24447W        W40581  19.167  14.567   9.405 -0.0770 -0.1141  0.1452
24448W        W40582   4.642  11.495   5.240 -0.2209 -0.0900  0.0006
24449W        W40583   3.428  13.741   2.906 -0.0413 -0.1524  0.0683
24450W        W40584  18.382   7.199   4.550 -0.1529 -0.4565  0.0891
24451W        W40585  13.663   2.775   0.513  0.0696 -0.0797  0.1125
24452W        W40586  14.839   2.018   0.722  0.2410  0.2516 -0.1764
24453W        W40587  19.244  14.139   3.092 -0.4723 -0.0575 -0.0223
24454W        W40588  16.193   6.748  11.879  0.1575 -0.2935  0.3376
24455W        W40589  15.051   9.278   5.092  0.2027  0.0271  0.0114
24456W        W40590  13.213  16.475  12.363  0.1267  0.1815 -0.0450
24457W        W40591   6.217   3.291   4.160 -0.1134  0.1963 -0.0250
24458W        W40592  12.795   4.877   0.231 -0.1554 -0.3129 -0.2041
24459W        W40593  16.391   7.336   4.291 -0.2687 -0.0939 -0.0408
24460W        W40594   0.624   5.959  12.009  0.0165  0.0318 -0.1732
24461W        W40595   4.443   7.011   4.158 -0.1166  0.1511  0.2730
24462W        W40596   1.132  17.161  11.637  0.1361  0.0492 -0.1505
24463W        W40597   9.952  12.308   3.686 -0.2682 -0.1638  0.0116
24464W        W40598  17.475   9.817   4.711 -0.0856 -0.1949 -0.0745
24465W        W40599  13.196   6.551  12.181  0.1183  0.0099  0.0636
24466W        W40600   2.002   0.962   4.269  0.2699  0.0867  0.1262
24467W        W40601   5.948   0.131  12.443 -0.0836 -0.0726 -0.2430
24468W        W40602   2.104  18.905  12.971  0.0288  0.1674 -0.0562
24469W        W40603  12.128  19.201  10.033 -0.3565 -0.0720  0.0612
24470W        W40604  18.723   6.902  14.170  0.0408  0.2071 -0.0886
24471W        W40605   9.464  17.422  14.103  0.1487 -0.0550 -0.0363
24472W        W40606  11.370  14.554  13.071  0.1600  0.0442  0.0593
24473W        W40607  12.702   1.634   0.955  0.1280 -0.0204  0.0206
24474W        W40608   8.646  16.127  11.584 -0.2980  0.0476 -0.1152
24475W        W40609   1.954   0.446   9.298 -0.0849 -0.0862  0.2941
24476W        W40610  11.799  12.941   1.732  0.4153 -0.0096  0.0245
24477W        W40611  10.956  19.000  14.561 -0.4691  0.3359 -0.0667
24478W        W40612  16.622   4.537   2.012  0.1396  0.2856 -0.0094
24479W        W40613  17.062   5.970   2.188  0.2593 -0.2682 -0.0138
24480W        W40614  16.357  14.922   1.508  0.2463  0.5100  0.1694
24481W        W40615   2.147  13.342  13.979 -0.1929  0.2916  0.0350
24482W        W40616   8.507   4.806   0.903 -0.1766 -0.0700 -0.0182
24483W        W40617  16.824  16.320  10.762 -0.1939  0.0185 -0.2887
24484W        W40618  14.495   0.156  12.218 -0.1939  0.1336  0.0421
24485W        W40619  18.509   3.664  13.370 -0.0695 -0.1308  0.1284
24486W        W40620   3.839   0.565  12.814 -0.0152 -0.1719 -0.0726
24487W        W40621   5.463  14.032   1.958  0.0019  0.0110  0.1559
24488W        W40622   6.121  11.521   4.220 -0.0162  0.1306 -0.0607
24489W        W40623  13.555  13.245  14.525  0.1524  0.1402  0.4485
24490W        W40624  18.628   8.074  11.233  0.0279 -0.0832 -0.0656
24491W        W40625   1.883  19.120   1.468  0.1376 -0.2218 -0.2185
24492W        W40626  11.961  19.220  10.492  0.0456  0.0078  0.1057
24493W        W40627  16.076  15.365   1.141  0.1284  0.0011  0.1831
24494W        W40628   6.675   8.835  14.621  0.0239 -0.0321  0.4816
24495W        W40629  11.786   3.651   0.638  0.2678  0.0972  0.1152
24496W        W40630   4.379   2.435   0.228 -0.1549  0.0035  0.3309
24497W        W40631  16.656  13.829  11.467 -0.3707  0.0025 -0.0490
24498W        W40632   0.872  10.072   3.093 -0.0563 -0.1905 -0.3084
24499W        W40633   9.681  18.091   2.254  0.3197 -0.2705  0.3323
24500W        W40634  18.245  12.580  13.560  0.2834 -0.1722  0.1516
24501W        W40635   4.296  18.174   1.807  0.3113 -0.0138  0.2142
24502W        W40636  18.771   5.133   0.939  0.0985  0.0432 -0.0475
24503W        W40637  12.103   9.163  11.443 -0.0409  0.0029 -0.1724
24504W        W40638  17.108  15.465   2.486  0.0069  0.3862 -0.2614
24505W        W40639   7.556   9.630  13.279 -0.2941 -0.1208  0.2454
24506W        W40640   2.190   6.265  13.126  0.1651 -0.2309 -0.0030
24507W        W40641   3.257   7.531   3.124 -0.0904  0.1353 -0.3713
24508W        W40642  11.992   0.162   4.277  0.2267 -0.2869 -0.1533
24509W        W40643  17.636   8.822  12.400 -0.1325 -0.1254 -0.2044
24510W        W40644   2.393   5.068   2.715  0.0665  0.1337 -0.1236
24511W        W40645   4.738  15.272   3.616  0.2872 -0.4604 -0.1925
24512W        W40646  11.049  11.079   5.019  0.0860  0.0759 -0.0918
24513W        W40647  12.044  11.660  14.858 -0.0585 -0.0638  0.0275
24514W        W40648   6.017  14.087   3.832 -0.5056  0.2093 -0.2989
24515W        W40649  14.886   1.128  13.865  0.1456 -0.1301 -0.1307
24516W        W40650   8.491  15.495   1.364  0.1850  0.1770 -0.0496
24517W        W40651  16.732   4.072  10.172  0.2408  0.0552  0.0066
24518W        W40652  13.502   1.868   5.273 -0.1066 -0.0127  0.1902
24519W        W40653   3.356   3.918  10.418 -0.3300 -0.2020 -0.4612
24520W        W40654   0.670  14.230   1.881  0.1969 -0.0937  0.2815
24521W        W40655  16.578   0.676  11.794 -0.2713  0.0113 -0.2665
24522W        W40656  17.713   3.254  14.882  0.2146  0.3471  0.2802
24523W        W40657  19.032   0.932  13.387  0.0180  0.4230  0.3219
24524W        W40658  10.066   1.388  11.321  0.0080  0.1272 -0.0780
24525W        W40659  14.072  15.488  12.996 -0.4013  0.0430  0.4302
24526W        W40660  16.757  16.247   4.033  0.1116 -0.1976 -0.0460
24527W        W40661  15.603   1.133   4.288  0.0042  0.0040 -0.3783
24528W        W40662  10.488  14.017  11.909  0.2396  0.0894 -0.1946
24529W        W40663   9.598   3.794   9.582  0.0905 -0.1063  0.0588
24530W        W40664   4.724  11.678  11.222 -0.2352 -0.2784  0.0981
24531W        W40665   9.473   1.796   1.570 -0.3629  0.0709  0.2028
24532W        W40666   4.733  11.300   0.199  0.4312 -0.0729 -0.3192
24533W        W40667  10.242  12.244   1.272 -0.2373 -0.2501 -0.0080
24534W        W40668   6.157  17.419   5.181  0.1218 -0.1114  0.1087
24535W        W40669  11.533   5.741   0.351  0.0660 -0.1638 -0.1417
24536W        W40670   5.155   7.162   2.573  0.2481  0.0626 -0.2092
24537W        W40671   8.023  17.964  12.792  0.3062  0.2395  0.2600
24538W        W40672   1.376  17.780  13.327  0.0761  0.1398 -0.0284
24539W        W40673   4.020  16.083   3.469  0.3323  0.0952  0.0476
24540W        W40674   9.266  12.772   1.135 -0.1490 -0.2152 -0.1787
24541W        W40675  18.026  11.614   0.490  0.0325 -0.1519  0.1141
24542W        W40676   1.302  16.336  10.238  0.1643  0.0293  0.1030
24543W        W40677  12.479  10.125   0.022 -0.1076  0.0272  0.0073
24544W        W40678  15.592  16.378   4.984  0.0122  0.2171 -0.2793
24545W        W40679  17.943   8.295   0.079  0.1762  0.0570 -0.1923
24546W        W40680   2.618   5.750  12.695  0.2824 -0.1333 -0.3447
24547W        W40681  16.602   6.497  11.719  0.0192 -0.2026 -0.1889
24548W        W40682   1.775   9.910   1.887  0.0645  0.2569 -0.2615
24549W        W40683  12.420   1.972  11.447 -0.0956 -0.0132 -0.0817
24550W        W40684  15.345  13.733   1.074  0.0228 -0.0713  0.2404
24551W        W40685   3.204   1.323  10.543  0.0993 -0.2009  0.0343
24552W        W40686   9.857  12.629   1.317 -0.3533  0.0409 -0.1391
24553W        W40687   8.933  16.969   4.755  0.1980  0.0161  0.2274
24554W        W40688  13.492   9.227  13.699 -0.3605  0.1955  0.5728
24555W        W40689  13.455   4.788   1.218 -0.2545  0.4297  0.0303
24556W        W40690   2.778   4.515   2.952  0.1569  0.0027  0.0696
24557W        W40691  12.758  12.725   3.349 -0.5622 -0.0693  0.0545
24558W        W40692   7.362   1.461   3.754 -0.0947 -0.0789  0.1736
24559W        W40693   0.195   8.296  13.110  0.0861 -0.0340 -0.1136
24560W        W40694   5.198   1.739  10.341  0.2079  0.2808 -0.3675
24561W        W40695  11.772  17.140  14.532 -0.3216 -0.3919 -0.1397
24562W        W40696  14.748  10.623   0.924 -0.1883  0.1364 -0.1997
24563W        W40697   6.674   8.466  13.245 -0.0499 -0.1544  0.0357
24564W        W40698  17.246  10.276   2.718  0.1277  0.4622 -0.2870
24565W        W40699  10.663  15.980  10.642 -0.0369  0.1232  0.0599
24566W        W40700   0.589   0.325   4.068  0.0487  0.1691  0.2992
24567W        W40701  15.441  10.225  10.301 -0.1240 -0.1646  0.0411
24568W        W40702   4.342  15.756   4.373  0.6925  0.2362  0.4165
24569W        W40703  17.455  10.940  11.898  0.0066 -0.1913 -0.1376
24570W        W40704  10.271   4.268  10.436 -0.2250  0.0053 -0.1115
24571W        W40705   7.420   2.916  13.544 -0.1877  0.2887 -0.4170
24572W        W40706   7.966   5.460   3.174  0.0275  0.1805 -0.1287
24573W        W40707   3.659   4.055   9.976  0.0538  0.0842  0.2208
24574W        W40708   0.851   3.834  13.097 -0.2845 -0.2651 -0.1165
24575W        W40709   7.751   0.549   4.885  0.0453 -0.3063  0.3769
24576W        W40710  16.705  12.054   1.469  0.3836 -0.0430  0.1870
24577W        W40711   4.363  12.174  13.994 -0.2721  0.1783 -0.1148
24578W        W40712   4.929   6.596  13.503  0.1198  0.1431  0.4738
24579W        W40713   3.699   8.459   3.728 -0.1505 -0.0142 -0.2347
24580W        W40714   2.259  14.926   5.150 -0.1365 -0.1158  0.0907
24581W        W40715  14.681   2.305  10.853 -0.1299  0.3120  0.0400
24582W        W40716  11.052   2.149   4.261 -0.1864 -0.0076 -0.0677
24583W        W40717   2.533  18.089  14.363 -0.1572 -0.0227  0.4409
24584W        W40718   1.463   1.891   4.056 -0.0104 -0.3908  0.1235
24585W        W40719  18.166   2.190   4.363 -0.0461 -0.0695 -0.0458
24586W        W40720  15.204   2.497   5.171  0.2486 -0.2831 -0.0529
24587W        W40721  18.231  19.251  14.920  0.0640 -0.3297 -0.0705
24588W        W40722   2.667   9.462  10.168  0.0484  0.3213  0.2046
24589W        W40723   9.774   0.534   1.617  0.0545 -0.1262 -0.1451
24590W        W40724  14.015  12.656  12.401  0.1892 -0.2345 -0.0713
24591W        W40725  10.058  17.217   2.382  0.1204 -0.0106  0.1205
24592W        W40726   5.785   1.319  14.408  0.3476  0.1562 -0.0322
24593W        W40727  16.070   6.164   3.694  0.2175  0.3384  0.3885
24594W        W40728  10.063   7.538   2.828  0.3443  0.0066 -0.1047
24595W        W40729  15.433  17.816   3.698 -0.4300  0.0864 -0.0961
24596W        W40730   0.859   7.923   2.245  0.3466 -0.0079 -0.2187
24597W        W40731  18.202  16.748   3.724  0.2765 -0.1469  0.1768
24598W        W40732   5.671   8.201   1.310  0.1057  0.0746 -0.0353
24599W        W40733  15.327   6.336  11.067 -0.0072 -0.0244  0.0251
24600W        W40734  11.761  10.759   1.904 -0.0355  0.0563 -0.0883
24601W        W40735  12.856  14.360   3.509  0.3512 -0.0994 -0.0549
24602W        W40736   8.660  14.213   3.328 -0.1009  0.2004  0.1139
24603W        W40737  14.847  17.377   1.850  0.1803  0.1442  0.1113
24604W        W40738   1.742   0.995  11.038  0.0470 -0.2941  0.0773
24605W        W40739  15.596   2.658   2.904 -0.1811 -0.2589  0.0838
24606W        W40740  14.580  18.120   0.605 -0.1353  0.1531  0.4082
24607W        W40741  18.622  11.226  12.307  0.1973 -0.2152 -0.1211
24608W        W40742   0.569   9.695  13.858 -0.1972  0.2822  0.0985
24609W        W40743  10.078   9.735   0.754  0.0980 -0.0980 -0.1063
24610W        W40744  18.458  14.117   4.549  0.2637 -0.0754  0.1535
24611W        W40745  16.439  14.772   4.239 -0.0441  0.1446  0.0430
24612W        W40746   5.108   7.728   1.195  0.0414 -0.0867 -0.2018
24613W        W40747   8.281  12.736   0.562  0.3533 -0.0750 -0.3360
24614W        W40748  11.566   7.160  13.821  0.4839  0.0835  0.5050
24615W        W40749   7.440   9.870   0.108  0.1854 -0.3263 -0.0786
24616W        W40750   7.730  12.253  12.385  0.1962 -0.0873  0.1316
24617W        W40751  12.983  16.390   1.773 -0.0474 -0.0646  0.0845
24618W        W40752   2.083  14.691  12.579 -0.1020  0.0021 -0.0138
24619W        W40753   0.910   1.339   0.609 -0.1287  0.0851  0.2587
24620W        W40754  11.683  13.605   1.057 -0.3068  0.0670 -0.0222
24621W        W40755   0.440  18.553  12.086  0.0442  0.1245 -0.1853
24622W        W40756   2.723   2.934  10.578  0.0189  0.1677  0.0606
24623W        W40757  10.352   0.783  13.537 -0.1043 -0.1257 -0.1609
24624W        W40758  14.269   3.772  10.425  0.2435  0.0347 -0.1247
24625W        W40759  11.247  10.926   2.047  0.1852  0.0552  0.1109
24626W        W40760  16.916   2.971  12.925 -0.1056 -0.3939 -0.1434
24627W        W40761  13.529   5.657   0.563 -0.1520 -0.0224  0.0336
24628W        W40762  16.665   4.417  12.789 -0.4792  0.0215 -0.1142
24629W        W40763  17.158  15.264   9.979 -0.3790 -0.0609 -0.1937
24630W        W40764  18.184   7.196   0.960 -0.1856 -0.2909 -0.0098
24631W        W40765   2.764   3.516  13.426  0.2937 -0.0330 -0.1315
24632W        W40766  19.185  10.478   1.500 -0.2328  0.0015  0.0759
24633W        W40767   4.775   6.904   0.940  0.1091  0.1685 -0.1786
24634W        W40768  10.518   5.143  10.594  0.0547 -0.1034 -0.3478
24635W        W40769  17.872  13.477   1.965 -0.1798 -0.0705  0.1563
24636W        W40770   0.171  12.687   2.559 -0.2569 -0.0622  0.3997
24637W        W40771   8.383  14.383   5.824  0.1627 -0.2041  0.1756
24638W        W40772   7.318   8.661  11.766  0.3055 -0.4030  0.0713
24639W        W40773  17.111  19.209   2.132 -0.4097 -0.0452  0.1453
24640W        W40774  10.948   8.308   5.018  0.1606 -0.1030  0.1468
24641W        W40775  17.775  11.885   3.721  0.0937 -0.1553 -0.0132
24642W        W40776   6.633  19.292  12.563 -0.1280 -0.2385 -0.0342
24643W        W40777  15.655   6.640   1.611 -0.3443 -0.0373 -0.1347
24644W        W40778  11.571  11.295   2.124  0.2320 -0.1432  0.1584
24645W        W40779  16.634   1.838  13.919 -0.0028  0.2553  0.1237
24646W        W40780   3.197  15.587   2.598  0.0795  0.0672 -0.3799
24647W        W40781  18.959  11.675   4.496 -0.0122 -0.0179  0.2150
24648W        W40782   2.615   2.680  11.542 -0.1898 -0.1779 -0.2124
24649W        W40783  17.309  13.582   2.392 -0.2772  0.1293  0.0440
24650W        W40784   7.016  10.206   1.218  0.1135 -0.2268  0.2213
24651W        W40785  13.475   8.218  13.463  0.4056 -0.0114  0.0050
24652W        W40786  11.442  18.384   5.462  0.0542 -0.3675 -0.0037
24653W        W40787  14.606   9.184  10.995 -0.1153  0.2796  0.2301
24654W        W40788   2.804   6.264  12.641  0.3045 -0.1604 -0.1968
24655W        W40789   8.520  16.531  11.843  0.0435  0.1174  0.0215
24656W        W40790   5.687   3.070   3.472  0.0036  0.0290  0.4607
24657W        W40791  11.522  17.023  14.047 -0.0752 -0.0100 -0.1243
24658W        W40792   8.104   0.624   0.637  0.0872 -0.3255  0.0388
24659W        W40793  16.366   5.458   9.286 -0.0614 -0.1888 -0.2397
24660W        W40794   7.474  11.061   0.978  0.0484 -0.2221  0.0159
24661W        W40795  13.159  19.284   0.083  0.1080  0.1588 -0.0632
24662W        W40796  15.965   2.072  13.623  0.0340  0.3411 -0.1483
24663W        W40797   9.804  15.720  14.004 -0.1791 -0.2737 -0.0501
24664W        W40798  17.637   4.809  10.895  0.0451 -0.1232  0.0269
24665W        W40799  10.574   7.021  11.179  0.1515  0.0158 -0.1596
24666W        W40800   8.355   3.740   3.403  0.0636 -0.1281 -0.1273
24667W        W40801   9.089  15.657   4.997  0.2326  0.1652 -0.0562
24668W        W40802   2.091  13.340   2.969  0.0801 -0.2411 -0.0841
24669W        W40803  18.241  16.288   1.280 -0.0059 -0.1872  0.1692
24670W        W40804  10.814   4.589  11.442  0.2452  0.0140  0.2305
24671W        W40805   2.934   8.710  13.272 -0.1870 -0.1118  0.1918
24672W        W40806  18.965  12.486   4.693 -0.1683  0.0408 -0.0427
24673W        W40807   2.590   8.753   3.298  0.0303  0.1513 -0.1306
24674W        W40808   6.692   8.543   9.002 -0.1900  0.1780  0.0205
24675W        W40809   5.295  12.305  14.418  0.2325 -0.0912 -0.2353
24676W        W40810  11.340  11.651  13.253  0.0490  0.5273 -0.1540
24677W        W40811  12.042   7.250   3.862  0.1540 -0.0211 -0.3225
24678W        W40812   4.135  15.135   3.870 -0.1611  0.0091 -0.2848
24679W        W40813  13.361  13.380   3.012  0.0947  0.1582  0.1800
24680W        W40814   6.200  14.189  11.862 -0.2323  0.1073 -0.0688
24681W        W40815  17.194  19.267   0.768 -0.1936  0.1110  0.1474
24682W        W40816  18.273   5.590   0.921  0.1644 -0.1671  0.0425
24683W        W40817   6.052  12.289   0.145 -0.2620 -0.0831 -0.2282
24684W        W40818   6.656   5.035   0.050 -0.2222 -0.4362  0.1340
24685W        W40819  16.334   3.031   0.158 -0.2149 -0.0394  0.1306
24686W        W40820  11.473  14.693   0.879 -0.0135  0.0832 -0.3335
24687W        W40821   5.608  12.331  10.373  0.2135  0.2359  0.0189
24688W        W40822   9.895  19.045   4.956  0.0626  0.1445  0.2316
24689W        W40823   7.539  11.745   9.434 -0.2380 -0.1274  0.0836
24690W        W40824  16.722  15.227  13.277  0.1893  0.2420  0.2321
24691W        W40825  17.608   3.121   3.816 -0.0552 -0.2446  0.0728
24692W        W40826  14.869  10.111   1.160  0.0513 -0.1226  0.3494
24693W        W40827  14.343   8.080   3.213  0.3043  0.2148 -0.1582
24694W        W40828  17.468   0.187   2.979  0.0082  0.2708  0.1288
24695W        W40829   0.182   1.922  13.472  0.4313 -0.2285  0.2644
24696W        W40830  12.375  17.891   5.473  0.2979 -0.0862  0.2847
24697W        W40831  14.028   3.453  12.577  0.1433  0.2470  0.3241
24698W        W40832   0.811   5.506  12.274 -0.1196 -0.4949  0.3704
24699W        W40833  11.050   3.140  10.316  0.2315  0.2298  0.2785
24700W        W40834   0.283  14.271   4.307  0.0582  0.2617 -0.0639
24701W        W40835   5.505  16.159   3.933 -0.0472 -0.2837 -0.1685
24702W        W40836  18.094   2.823   0.653  0.2924 -0.2424  0.2381
24703W        W40837   7.991   4.238   2.647  0.1003  0.0602  0.0630
24704W        W40838   0.598   5.354   9.469 -0.0041  0.2211  0.0238
24705W        W40839   1.837   3.501  12.332 -0.1340 -0.0814 -0.3900
24706W        W40840   2.772   9.399  14.438  0.2576 -0.3789 -0.1565
24707W        W40841  16.562   2.633   3.053 -0.0308  0.2012 -0.3091
24708W        W40842  13.398   8.550  13.053 -0.1413 -0.0465  0.1460
24709W        W40843  16.334  17.175   2.199 -0.2777 -0.0930  0.0210
24710W        W40844   0.145  12.475  11.303 -0.0319  0.3222  0.2452
24711W        W40845  18.293   9.357  11.343  0.3601 -0.0512 -0.1775
24712W        W40846   7.585   4.481  13.649 -0.0370  0.0721  0.1303
24713W        W40847  12.127   8.159   5.198  0.2316  0.1459 -0.1372
24714W        W40848  16.289   6.193  14.113 -0.3610  0.0995  0.1311
24715W        W40849   5.168  12.859   3.421 -0.3214 -0.1838 -0.0752
24716W        W40850  17.674   3.926  10.117 -0.3761 -0.2057 -0.1189
24717W        W40851  12.234  13.978  14.247  0.0238 -0.1727  0.1597
24718W        W40852   4.453   0.604   4.456 -0.1341 -0.0281 -0.1153
24719W        W40853   7.623  16.384   2.265 -0.0666  0.3488 -0.0783
24720W        W40854   4.624   8.068  13.338  0.2643 -0.0276 -0.0723
24721W        W40855   7.567  15.120  11.120 -0.1839 -0.1162  0.1070
24722W        W40856   8.065  16.045  11.523  0.1437 -0.2348  0.1420
24723W        W40857   5.090   2.900   0.889 -0.1835  0.1306  0.0711
24724W        W40858   9.056  10.488   1.642  0.0640 -0.0297 -0.2375
24725W        W40859  16.196   7.759  10.048 -0.0950  0.0162  0.1116
24726W        W40860   0.750  13.562  13.037  0.3140 -0.4939  0.0943
24727W        W40861   9.897   4.751  14.277 -0.0136 -0.0841 -0.1632
24728W        W40862   4.100   6.203   3.990  0.4247 -0.1599 -0.1134
24729W        W40863   7.150   2.504  13.570  0.0102 -0.3117  0.1175
24730W        W40864  18.390  10.297  13.901  0.0939  0.0198 -0.0436
24731W        W40865   7.978   2.266   2.207  0.0061 -0.0351  0.1784
24732W        W40866   8.385   6.250  10.586 -0.0713  0.0355  0.0877
24733W        W40867  18.138   1.380  11.610 -0.0217  0.1698  0.0026
24734W        W40868   6.065   1.619  12.357  0.0547 -0.0503 -0.1420
24735W        W40869   5.038   1.701  14.557  0.1675  0.2118 -0.1988
24736W        W40870   2.324   1.894   3.971  0.0821  0.1969 -0.1078
24737W        W40871   0.955  17.502  14.885  0.0271  0.0430 -0.0184
24738W        W40872   9.616  11.935   3.859 -0.1295  0.0028 -0.2863
24739W        W40873   4.684  13.885  10.802 -0.1768 -0.2702  0.0899
24740W        W40874   7.475  10.699  10.820  0.1236  0.1003 -0.1435
24741W        W40875   2.644  10.404  10.198 -0.3251  0.2369  0.2223
24742W        W40876   1.203   7.402   1.240  0.1464 -0.2975 -0.2272
24743W        W40877   7.662   2.229  10.772  0.2371 -0.0460 -0.0601
24744W        W40878   2.925   5.655  14.543 -0.1199  0.0298 -0.2148
24745W        W40879  11.797  11.435  13.416 -0.1971 -0.3361  0.0678
24746W        W40880  18.404  12.537   0.661 -0.0180  0.1532  0.1506
24747W        W40881   6.214  17.128   1.037  0.2291 -0.2864 -0.1268
24748W        W40882   7.843   7.004   0.544 -0.0995 -0.3070 -0.1164
24749W        W40883  16.804  14.602   2.463 -0.1478  0.2764 -0.1931
24750W        W40884  10.155  17.503   1.977  0.0085  0.2301  0.0929
24751W        W40885  17.636   0.684  12.362  0.2876 -0.0724 -0.2142
24752W        W40886   1.184  17.809   3.586 -0.0319  0.0423  0.1077
24753W        W40887  12.183   6.807   2.950 -0.0585  0.0416 -0.0165
24754W        W40888  14.712   5.239  13.276  0.1332  0.0657 -0.2149
24755W        W40889   7.909  13.710  14.164 -0.0003 -0.0704  0.0702
24756W        W40890  14.778   5.707   0.207  0.2190 -0.0497  0.3453
24757W        W40891  14.413  15.853   4.510 -0.1331 -0.1148  0.2122
24758W        W40892   5.897  15.695   2.221 -0.3887 -0.0028  0.0350
24759W        W40893   9.172   7.840   4.107 -0.4426  0.1368  0.3518
24760W        W40894   2.430  18.960   1.109 -0.1019 -0.0662  0.3664
24761W        W40895  10.279   6.909   1.950 -0.0692  0.1721 -0.0684
24762W        W40896   9.692   3.766  14.254 -0.1366  0.1472 -0.1708
24763W        W40897   0.043   9.725  12.550  0.0127  0.2016  0.2608
24764W        W40898   9.181   4.865  13.058 -0.2794 -0.1333  0.2780
24765W        W40899  18.806   1.664  10.142  0.1441  0.0565  0.0154
24766W        W40900   6.270  13.204   2.020 -0.3357 -0.3729  0.5032
24767W        W40901  13.878  17.530  11.833 -0.0566 -0.5346 -0.0712
24768W        W40902  18.722  12.504   2.923  0.0520  0.3995  0.1280
24769W        W40903   0.484   6.106   2.088  0.0154 -0.0822  0.0572
24770W        W40904  12.905   5.199  11.543 -0.0965  0.2423 -0.0171
24771W        W40905   9.039   6.643  14.467  0.1676  0.0210  0.0209
24772W        W40906   8.176   2.552  13.063 -0.0617 -0.1574 -0.0818
24773W        W40907  17.128   0.161   3.405 -0.2069 -0.2767 -0.0509
24774W        W40908   7.418   0.044  12.936  0.0044 -0.3114 -0.1579
24775W        W40909  18.680  11.282   4.394  0.1139 -0.0256 -0.2214
24776W        W40910   9.868   1.218   5.732  0.2302  0.0337 -0.2642
24777W        W40911   6.706   5.032  14.076 -0.0942 -0.1739 -0.1734
24778W        W40912   0.220  15.651   2.400 -0.0464 -0.0680 -0.1697
24779W        W40913   2.133  11.652   0.785 -0.1285 -0.1558 -0.0870
24780W        W40914  15.003   2.374  12.639 -0.0426 -0.1009  0.1404
24781W        W40915  12.518   3.179   1.169 -0.0607 -0.1323 -0.4272
24782W        W40916   3.669   6.492   0.601 -0.0046 -0.1779 -0.0608
24783W        W40917   1.329   3.491   1.874 -0.0777 -0.2608 -0.0263
24784W        W40918   3.333   2.124   4.226  0.1901 -0.1572 -0.0401
24785W        W40919  19.004   4.490  10.294 -0.2782  0.0440 -0.0445
24786W        W40920  14.638   8.370  12.819  0.3314 -0.0414 -0.1012
24787W        W40921  12.494   7.122   1.168  0.2255  0.0386  0.1281
24788W        W40922   9.490  19.194   0.002  0.2865 -0.0171 -0.1195
24789W        W40923   8.102   1.431   1.437 -0.0273 -0.2001  0.2041
24790W        W40924  18.604   8.049  12.018 -0.0073 -0.1966  0.0009
24791W        W40925  13.126   8.820  14.942  0.2352 -0.4766 -0.1287
24792W        W40926   6.797   2.315  12.307 -0.1888 -0.1964 -0.0824
24793W        W40927   7.058  13.417   1.186  0.0630  0.0890 -0.2757
24794W        W40928   3.675   1.186  11.642 -0.2852  0.1827 -0.2745
24795W        W40929  14.978  18.017   3.241 -0.3076  0.1861  0.1585
24796W        W40930  15.966  15.569  12.306  0.1945  0.0699 -0.1773
24797W        W40931   8.463   3.517  13.851  0.2494 -0.1177  0.2414
24798W        W40932   5.098   0.356   3.570 -0.1740  0.5029 -0.3930
24799W        W40933   0.922   7.247   3.040  0.1108 -0.2959  0.1197
24800W        W40934   2.670  11.744   3.808 -0.2864 -0.1827 -0.2716
24801W        W40935   6.236   2.843  13.152  0.0029 -0.0875  0.1567
24802W        W40936  17.197   0.847  12.431  0.0292  0.3151 -0.1719
24803W        W40937   8.640  16.239   3.357  0.2909 -0.0823 -0.3902
24804W        W40938   5.929   7.099   2.083  0.0265  0.1083  0.1141
24805W        W40939  11.206   9.161   1.094  0.2038  0.0455  0.1024
24806W        W40940   9.959   4.243   9.545 -0.0051  0.1983  0.1084
24807W        W40941  17.631   9.483  14.558  0.4223 -0.0764  0.1897
24808W        W40942  11.419  15.919  13.333 -0.2653 -0.1124 -0.0112
24809W        W40943   9.289   6.989  10.727  0.0308  0.0884 -0.0007
24810W        W40944   4.244  16.640  12.189 -0.0896  0.1100 -0.0096
24811W        W40945  18.410  15.400   2.435 -0.2432 -0.2998 -0.0254
24812W        W40946  17.241  10.844   4.093 -0.0946 -0.0803 -0.0175
24813W        W40947   4.160  19.308   0.388  0.1748 -0.1374 -0.0126
24814W        W40948  18.495  11.573   1.452 -0.1645  0.0556  0.3687
24815W        W40949  13.288   8.359  14.289 -0.0640  0.0527 -0.2540
24816W        W40950  15.361  10.561  11.482 -0.1750  0.1804 -0.4136
24817W        W40951  17.648   9.335   0.083  0.2440  0.2066  0.2846
24818W        W40952  15.914  13.465   2.361  0.0673 -0.1678  0.1329
24819W        W40953   8.901   6.181  14.256  0.1496 -0.1014 -0.0093
24820W        W40954  15.023   2.180  11.222  0.2652 -0.1358 -0.0229
24821W        W40955  12.128   7.836  13.968  0.0245  0.0085  0.1758
24822W        W40956   7.898  14.019   3.084 -0.1160  0.1384  0.0928
24823W        W40957   3.753  15.328  13.498  0.0108  0.0059 -0.0909
24824W        W40958   5.347   2.827   1.514 -0.1472  0.3267 -0.1526
24825W        W40959  10.272  13.599   1.466  0.3230 -0.0052 -0.1378
24826W        W40960  11.712  13.106   0.817  0.0903  0.1851 -0.3204
24827W        W40961  13.976   0.661  12.795 -0.2588 -0.0040  0.0267
24828W        W40962  15.069   6.304   0.307  0.2942 -0.1655  0.4512
24829W        W40963  12.571  18.486   2.261  0.0570  0.2006  0.0275
24830W        W40964  16.865   9.600  14.257  0.0754  0.0063 -0.0951
24831W        W40965   5.614  15.076  12.330  0.1163 -0.0731 -0.1217
24832W        W40966   9.669  14.408  12.252 -0.1384  0.0164 -0.2189
24833W        W40967  11.960  14.418  13.932  0.2581  0.1126 -0.1321
24834W        W40968   7.436   7.683   4.207 -0.0591  0.0788  0.1738
24835W        W40969  15.398  10.103  11.807  0.1821 -0.0412 -0.1533
24836W        W40970  16.455  17.920   4.517  0.2026  0.1787 -0.2222
24837W        W40971   9.590   6.005   1.833 -0.3274  0.6896 -0.0673
24838W        W40972   7.494   7.318   2.328  0.1400  0.1599 -0.0619
24839W        W40973  18.233   4.705   9.749 -0.0813 -0.1770  0.4562
24840W        W40974  12.526   9.314   2.802 -0.0251  0.0769 -0.2530
24841W        W40975  17.938   4.338   4.065 -0.0095 -0.2159  0.1028
24842W        W40976  16.736   4.332   0.229  0.0953 -0.1978  0.5646
24843W        W40977   0.177  16.865   4.986  0.0004 -0.1207 -0.0348
24844W        W40978   6.099  11.592  14.461  0.0902  0.1063  0.0627
24845W        W40979   0.346  11.209   0.909 -0.1572  0.3521 -0.1953
24846W        W40980   7.937  18.005   0.658  0.4466 -0.2498 -0.1940
24847W        W40981  17.889   5.223  12.107  0.5545  0.1334 -0.0892
24848W        W40982   1.997  17.779   1.470  0.4231 -0.2240 -0.0403
24849W        W40983  12.819  12.414   5.818  0.0161  0.1440 -0.1731
24850W        W40984  14.318  17.157  12.628 -0.1160 -0.0687  0.2243
24851W        W40985  17.323   2.995   1.056 -0.1302  0.1325 -0.2939
24852W        W40986   7.631   8.372   3.717 -0.2632 -0.0660 -0.2486
24853W        W40987  11.174   2.021  12.656 -0.1737 -0.2025 -0.0188
24854W        W40988  13.410   8.410  10.365  0.2231 -0.2296  0.0082
24855W        W40989   7.975  14.795   3.406 -0.2154 -0.2279  0.1663
24856W        W40990   9.842  11.224   0.945 -0.0375  0.0293 -0.2586
24857W        W40991   0.183   1.559   2.434 -0.0337 -0.3449  0.2168
24858W        W40992  11.835  10.952   2.391 -0.0549 -0.2510 -0.1626
24859W        W40993  13.957   6.666   2.447 -0.1267  0.1411 -0.0168
24860W        W40994   6.305   5.313  14.234 -0.0815 -0.0230 -0.1034
24861W        W40995  10.669  10.951   2.561  0.0752 -0.4412  0.0439
24862W        W40996  16.602  13.754  10.900 -0.2454  0.1668 -0.1721
24863W        W40997   1.555   6.618  10.258  0.4238 -0.0209 -0.0290
24864W        W40998  13.953   2.181   4.761  0.2343  0.0523 -0.1135
24865W        W40999   8.955   3.628  12.144  0.0553  0.0443 -0.3467
24866W        W41000   0.308   3.736  10.697 -0.1583  0.1904 -0.1157
24867W        W41001   4.304  16.798   1.171 -0.0200  0.0623 -0.1920
24868W        W41002  12.157  19.062  12.308  0.2367 -0.3127 -0.1723
24869W        W41003  14.817   4.921   2.452  0.0211 -0.0727 -0.3049
24870W        W41004  14.323  14.290  13.899 -0.0783  0.3123 -0.1532
24871W        W41005   0.866   0.245   4.483  0.0131 -0.0082 -0.0331
24872W        W41006  12.597   0.158  12.932  0.0441  0.0109 -0.2273
24873W        W41007  15.513   4.705  10.885  0.1359 -0.1004  0.3855
24874W        W41008   2.100  17.734  14.415 -0.1850  0.2387 -0.1830
24875W        W41009   3.357  14.000  14.099 -0.1600  0.2337 -0.0549
24876W        W41010  16.619   5.020  14.474 -0.0963 -0.1426  0.0941
24877W        W41011   3.194   6.027  11.840 -0.0254  0.1414  0.1553
24878W        W41012   3.979  17.804   2.602  0.2712 -0.1230  0.2089
24879W        W41013  12.804   4.614  11.741 -0.3080 -0.1800  0.0404
24880W        W41014   6.567  19.126   2.865  0.1748 -0.3644 -0.4144
24881W        W41015  10.209   0.650   2.571 -0.3121 -0.1485  0.0074
24882W        W41016  14.012   0.985   0.304  0.0540  0.3840 -0.0849
24883W        W41017   9.673   4.797  11.110  0.2045  0.0832  0.2867
24884W        W41018   5.278  10.403  14.095 -0.2296 -0.1267 -0.0761
24885W        W41019  11.462  16.866   2.320  0.2387 -0.0529 -0.1288
24886W        W41020   0.797   7.573   0.284  0.2829 -0.2244  0.0661
24887W        W41021   9.183  17.461   6.075 -0.0702  0.1263 -0.2945
24888W        W41022  11.897  15.089  13.454 -0.0195 -0.3263  0.3021
24889W        W41023   3.129   5.675   1.884 -0.2572  0.1817 -0.1384
24890W        W41024  17.676  14.674   2.772  0.0704 -0.1060 -0.2568
24891W        W41025  16.414  10.201  10.554  0.1273  0.0409 -0.0929
24892W        W41026  17.961  18.485   9.833  0.1856  0.0653 -0.2767
24893W        W41027  13.374  11.105   2.648  0.0003 -0.1010  0.1275
24894W        W41028  14.933  16.493  14.941 -0.3374 -0.0996 -0.3691
24895W        W41029   5.745   5.199   3.510 -0.0835  0.0077  0.1694
24896W        W41030  11.349   6.961  13.338 -0.1788  0.2642 -0.1627
24897W        W41031  13.465  10.275   1.740  0.1612  0.0955 -0.2771
24898W        W41032  16.737  14.691  13.238 -0.1021 -0.0078 -0.0730
24899W        W41033  18.457   7.955   4.891  0.0925  0.0066 -0.3727
24900W        W41034  14.960   6.502  13.379 -0.1803  0.4698 -0.2561
24901W        W41035  14.583  12.343  12.321 -0.0010  0.0704 -0.2031
24902W        W41036  10.400  16.379  12.888 -0.0597  0.1035  0.0042
24903W        W41037   0.795  18.247   4.918  0.3501  0.2626  0.0074
24904W        W41038   5.954   0.842   2.563  0.2808  0.0318 -0.1310
24905W        W41039   7.039  11.041  12.974  0.0995  0.4010  0.2629
24906W        W41040  16.136  15.028  13.846  0.1665 -0.1787  0.3227
24907W        W41041   0.904   5.036   5.018  0.2917 -0.0067  0.2077
24908W        W41042  13.146  15.259   0.817  0.0862 -0.2722 -0.0950
24909W        W41043   8.454  10.997  14.556  0.0852 -0.2326  0.0029
24910W        W41044  17.484  18.488   0.516  0.1519  0.0094  0.0894
24911W        W41045  15.751  14.445  14.026 -0.2877 -0.0809 -0.1594
24912W        W41046   9.171   4.642   0.199  0.0222 -0.3062 -0.0013
24913W        W41047  15.232   3.081  14.130 -0.1119 -0.0195  0.2035
24914W        W41048  17.753   8.629   0.757 -0.1317  0.2507  0.3402
24915W        W41049  10.166   3.767  14.126  0.2367 -0.0295  0.2176
24916W        W41050  19.173  17.297  11.991  0.1668  0.2246 -0.0426
24917W        W41051  10.932   7.780   1.470 -0.2491 -0.1495  0.0599
24918W        W41052   3.212   1.738  14.805 -0.0799  0.1977 -0.2956
24919W        W41053   8.186   7.920   4.417 -0.0400 -0.0167 -0.1826
24920W        W41054   9.258   7.465  12.520  0.0855 -0.0536  0.1046
24921W        W41055   8.095   5.394  11.812 -0.0685  0.2296 -0.2443
24922W        W41056   9.711   1.935   2.853  0.4291  0.2782 -0.0159
24923W        W41057  11.985  12.007   4.830  0.1365  0.2579 -0.2008
24924W        W41058  19.055   9.682   3.647 -0.0246 -0.0986 -0.1269
24925W        W41059  17.711   9.933   0.945 -0.0820  0.0207 -0.2276
24926W        W41060   0.101   4.289  14.785  0.1631  0.0914  0.1456
24927W        W41061   3.003   0.175   2.503  0.0317 -0.3293 -0.2071
24928W        W41062   4.658  19.303   9.992  0.1107  0.1588 -0.1476
24929W        W41063  15.761   6.752   2.130 -0.1212 -0.1582  0.0836
24930W        W41064   0.225  16.277  13.215  0.0305 -0.0802 -0.2599
24931W        W41065   5.293   4.120   2.980 -0.2283 -0.0738 -0.0144
24932W        W41066   2.073  11.139   0.814 -0.1982  0.1580  0.1906
24933W        W41067  14.316   1.792   3.518  0.1272 -0.1097  0.1271
24934W        W41068  10.701  18.700  12.577 -0.3323  0.0105  0.2798
24935W        W41069   5.332   5.706  14.186  0.0156 -0.0736 -0.1399
24936W        W41070  14.334   4.787   2.255 -0.1645  0.1348  0.1547
24937W        W41071  13.335   6.764  12.662  0.1074  0.0363 -0.0170
24938W        W41072   1.335  12.597   0.196 -0.4333 -0.0409 -0.1550
24939W        W41073   3.816  11.010   1.359 -0.1657 -0.3375 -0.1850
24940W        W41074  11.850  10.666   4.574  0.1638  0.1772 -0.1394
24941W        W41075  10.792  18.843  10.619  0.0630  0.2708  0.1453
24942W        W41076  15.811   1.995  11.879 -0.0353  0.4392 -0.3069
24943W        W41077  17.068   7.249   2.707  0.3757 -0.0906 -0.2329
24944W        W41078   1.792  12.892   2.693 -0.1342  0.3586  0.2053
24945W        W41079  11.284   4.582   2.854  0.1012 -0.0668  0.0410
24946W        W41080   7.612  10.977  14.597  0.0265  0.1276 -0.3109
24947W        W41081   3.689   5.887   5.161 -0.2702 -0.0244  0.1630
24948W        W41082   8.579   9.168  14.125  0.1160  0.1181  0.1805
24949W        W41083   9.750   6.466   2.532 -0.1356 -0.2175  0.0026
24950W        W41084  18.087  11.281  12.293 -0.0196  0.0108  0.3164
24951W        W41085   7.425  16.788  10.408  0.1330  0.1066 -0.2532
24952W        W41086   1.714   5.346   9.268 -0.1600  0.0586 -0.1669
24953W        W41087  17.855  10.796  11.060 -0.1089  0.1385  0.2080
24954W        W41088  18.173   0.375  10.515  0.0097 -0.1312  0.2878
24955W        W41089  16.366   2.628  12.254  0.1775  0.0827 -0.1329
24956W        W41090   2.619   7.758  10.981 -0.0065 -0.2396  0.1501
24957W        W41091   2.321  17.912  13.920 -0.0069  0.0734  0.0751
24958W        W41092  11.443  17.432  13.691 -0.1521  0.0024 -0.2132
24959W        W41093   1.105  12.012  11.249 -0.0353 -0.0085 -0.3184
24960W        W41094  10.601   8.009  11.262 -0.2977  0.2194  0.1908
24961W        W41095   4.509  14.725   3.682 -0.3377 -0.2528  0.2796
24962W        W41096  16.341  15.802  11.044 -0.3684 -0.2172  0.3736
24963W        W41097  14.780   0.597   1.256 -0.0547  0.3323 -0.0629
24964W        W41098   4.880   7.304   1.307  0.2540  0.1885  0.1204
24965W        W41099  12.582   6.409  13.105  0.1258  0.0749 -0.0968
24966W        W41100  16.502   8.712   9.482 -0.0768  0.0436 -0.3587
24967W        W41101   4.515  13.529  13.914 -0.0241  0.0655  0.1662
24968W        W41102   4.403   6.762   3.656 -0.1982  0.2768 -0.2445
24969W        W41103  17.940   3.858   4.181  0.1227 -0.1297 -0.3772
24970W        W41104   5.906  14.560   3.087 -0.0605  0.1530 -0.2114
24971W        W41105   1.662   8.328   2.418 -0.0140  0.0943 -0.1636
24972W        W41106  15.426  13.195   2.377 -0.0499  0.0925  0.0528
24973W        W41107  10.196   8.491   2.581 -0.1718 -0.1309  0.2096
24974W        W41108   4.532  14.459   1.877  0.2539 -0.0767 -0.1491
24975W        W41109  16.217  11.111   1.603  0.2668  0.0111  0.2031
24976W        W41110   2.570   4.040   9.986 -0.4113 -0.2002 -0.0747
24977W        W41111   3.149  12.258  13.116 -0.0631  0.1218  0.0748
24978W        W41112  18.790  10.261   5.178 -0.2184 -0.0947 -0.1966
24979W        W41113  17.020   2.127  12.534  0.2231 -0.0753 -0.1840
24980W        W41114  14.729  19.165   3.355 -0.1510 -0.2554 -0.0547
24981W        W41115  13.931  13.506  12.381  0.1325 -0.1513 -0.2515
24982W        W41116  14.061  12.543   3.935  0.2120 -0.0874 -0.3458
24983W        W41117   6.936   2.290   4.108  0.0544  0.1138  0.1115
24984W        W41118  17.058  14.538  12.146  0.1882 -0.0445 -0.3950
24985W        W41119  16.720   2.053   5.338 -0.4542  0.0158 -0.0040
24986W        W41120   7.067   4.686  13.815 -0.0545  0.0611  0.1519
24987W        W41121   2.449   9.863  10.320  0.2937  0.2730 -0.0600
24988W        W41122  10.010  10.849  13.707 -0.1112  0.1469 -0.0674
24989W        W41123  17.097   2.650  13.804  0.2062  0.0067 -0.0803
24990W        W41124  10.058   2.444   5.365  0.0192 -0.2460  0.3002
24991W        W41125   8.308  10.856  14.118  0.1219  0.1137 -0.1017
24992W        W41126  10.265  11.905  12.519  0.1915 -0.1652 -0.3132
24993W        W41127   8.993  16.879  12.271  0.0987 -0.0537 -0.0409
24994W        W41128  18.173  16.670   2.509 -0.4884  0.3904  0.2454
24995W        W41129   4.125  12.206   3.740  0.0199  0.2604 -0.1609
24996W        W41130  14.687  13.362  12.477  0.1227  0.0652 -0.3252
24997W        W41131  12.035  14.288   4.945 -0.3086 -0.0460  0.1692
24998W        W41132   3.822  13.274  11.150 -0.1282 -0.0353  0.1669
24999W        W41133   2.050  19.283  10.415 -0.2287  0.0042 -0.1235
25000W        W41134  16.165   2.108  14.888  0.2632  0.2548  0.0552
25001W        W41135   3.891   2.467  14.538 -0.0797 -0.0921  0.0658
25002W        W41136   5.909  19.174   1.416  0.1689 -0.0945  0.4416
25003W        W41137  14.007   3.828  14.490  0.1081 -0.0421 -0.1855
25004W        W41138   1.236   1.003   0.376  0.1421 -0.1629  0.1185
25005W        W41139  16.022  10.218  10.123  0.1708 -0.0341 -0.3577
25006W        W41140  13.114   9.257  14.195  0.0590 -0.0599  0.0978
25007W        W41141  13.344  14.895  11.425 -0.0535  0.0106  0.2489
25008W        W41142  16.691   5.374   4.636  0.0097 -0.2013 -0.1996
25009W        W41143   7.734   2.928   1.154 -0.1498  0.3382 -0.0140
25010W        W41144   1.382  14.558   3.260  0.1988 -0.2587 -0.0894
25011W        W41145   2.042   8.497  13.651 -0.0805 -0.4658 -0.0503
25012W        W41146  19.249   1.006  12.570  0.1561  0.1357  0.0542
25013W        W41147   6.460  12.439   0.340  0.0177 -0.1273 -0.1836
25014W        W41148  11.773   5.892   3.750 -0.2097 -0.2854  0.1483
25015W        W41149   4.361  17.797   4.615 -0.1569  0.3655 -0.0660
25016W        W41150  13.895  17.343  12.384  0.0416 -0.0904  0.3268
25017W        W41151  10.327  11.227  13.856 -0.0275  0.0930 -0.1008
25018W        W41152  19.296   5.516  13.440  0.1888 -0.0345 -0.2010
25019W        W41153  10.651  17.196   1.785 -0.0158 -0.2133 -0.3181
25020W        W41154  17.096   4.961   5.326  0.3056 -0.2335 -0.2824
25021W        W41155   0.488   2.174   5.553  0.1266  0.1945 -0.1636
25022W        W41156  14.273   9.002  11.308  0.1246  0.0549  0.0777
25023W        W41157   4.421   2.293   1.960 -0.0856  0.0056 -0.1235
25024W        W41158   1.433  19.100  10.356 -0.3339 -0.0798  0.0615
25025W        W41159  19.347   0.103  14.158 -0.4158 -0.0091  0.3773
25026W        W41160   9.333  15.603  11.562  0.0848 -0.1132 -0.0578
25027W        W41161  11.939  17.913  11.774 -0.2849  0.3729 -0.2407
25028W        W41162  10.500  13.085  11.093  0.0804 -0.0719 -0.0932
25029W        W41163  16.879   6.769  14.428 -0.0470 -0.3542  0.1569
25030W        W41164   8.466  10.093   4.108  0.1567 -0.1079 -0.0175
25031W        W41165   0.772   5.733  13.534 -0.1472 -0.0942  0.0236
25032W        W41166   5.006   4.668  12.783  0.0185  0.1451 -0.0526
25033W        W41167   5.469  19.205  11.154  0.0762  0.0161  0.1321
25034W        W41168   9.324  14.846  11.227  0.1570 -0.1586  0.0351
25035W        W41169   4.112   5.975  13.397 -0.1610 -0.1052 -0.1938
25036W        W41170  11.471   1.647  12.514 -0.2776  0.0938 -0.1753
25037W        W41171   4.752   3.201  11.316 -0.0129  0.1856  0.1105
25038W        W41172  16.308  13.855  14.863  0.0238 -0.1634  0.3653
25039W        W41173  18.744   0.284   3.088  0.1424  0.0209  0.2397
25040W        W41174   2.350  14.929  12.924 -0.0993  0.0699 -0.1346
25041W        W41175   1.003  12.106   0.001  0.0320  0.0540 -0.1627
25042W        W41176   9.171  10.361   2.597 -0.1404  0.2185 -0.0615
25043W        W41177   9.052   1.807  12.669 -0.3122 -0.0158 -0.0501
25044W        W41178  18.809  11.417   4.890  0.1143 -0.0897 -0.0301
25045W        W41179   7.184  12.349  12.412 -0.0540  0.2912  0.0652
25046W        W41180   0.201  12.543   3.825  0.1431 -0.3024  0.2717
25047W        W41181   1.897   0.209  12.278 -0.0679 -0.0932  0.0187
25048W        W41182   5.640  11.773   3.368 -0.1604  0.0858  0.2997
25049W        W41183   5.500   9.578   4.435  0.1569 -0.3753 -0.3581
25050W        W41184   5.510   7.216   2.978 -0.3591 -0.0757 -0.0649
25051W        W41185  10.318   2.885   0.143 -0.1930  0.0134 -0.0838
25052W        W41186  13.630  18.520   0.458  0.1682  0.1746  0.1810
25053W        W41187   7.762   7.136  13.778 -0.0572  0.1640 -0.0154
25054W        W41188  14.923  18.332   2.605 -0.0474  0.0292  0.0995
25055W        W41189   9.390   9.187  10.770 -0.0416  0.2004 -0.2500
25056W        W41190   6.571   9.253  11.459 -0.0919  0.0197 -0.4411
25057W        W41191   0.834   2.406  12.623  0.0706  0.3433  0.0576
25058W        W41192   5.660   4.591   3.703  0.2881  0.4059  0.0787
25059W        W41193  16.884  17.639  13.582  0.0018  0.0940 -0.0328
25060W        W41194   5.391  15.319   4.416 -0.0724 -0.5586 -0.1701
25061W        W41195   6.399  19.130   0.292 -0.4339  0.1267 -0.1957
25062W        W41196   5.979  11.663   3.750  0.0987  0.0121  0.1425
25063W        W41197  12.005   7.762   5.501 -0.0259  0.5969  0.2373
25064W        W41198   3.380   1.114   4.887  0.2231  0.0309 -0.0230
25065W        W41199   5.848  15.930  12.827 -0.2121  0.2000 -0.0310
25066W        W41200  18.634   3.340   3.659 -0.0129  0.0264 -0.2762
25067W        W41201   9.756   3.303   1.802 -0.2793 -0.3576 -0.0646
25068W        W41202  12.567  14.977   5.281  0.1401 -0.2898  0.0682
25069W        W41203  12.754   0.400   1.344  0.0448  0.1404  0.1859
25070W        W41204  14.200   6.301   4.964 -0.3300  0.1329  0.0202
25071W        W41205   8.571   0.470  13.463  0.0063 -0.0773 -0.1932
25072W        W41206  18.462  12.561   3.404 -0.1363  0.0106 -0.0913
25073W        W41207   5.359  17.203  12.384  0.0625  0.0910 -0.0501
25074W        W41208  11.290   7.781  13.431  0.1612 -0.0488 -0.0527
25075W        W41209   7.697   1.869  11.335  0.1686  0.0730 -0.1417
25076W        W41210   5.067  10.401   0.137 -0.2337  0.3398  0.2648
25077W        W41211   1.494  14.623  11.774  0.3804  0.1617 -0.0246
25078W        W41212   9.542  17.655   1.347 -0.1372 -0.2060 -0.1688
25079W        W41213   3.426  16.264   1.985  0.2828 -0.0359  0.0203
25080W        W41214   4.067  11.532   1.555  0.1640  0.1633 -0.1647
25081W        W41215  11.788   4.107  10.979  0.0824  0.0356  0.0723
25082W        W41216   9.374  11.277   2.170 -0.0057 -0.1014 -0.1533
25083W        W41217   6.749  17.153   1.172  0.1140 -0.0056 -0.1431
25084W        W41218   8.401  17.653   1.418 -0.1617 -0.1691  0.1592
25085W        W41219  18.165   0.234   2.345  0.0305  0.1202 -0.1445
25086W        W41220   7.267   6.574  10.386  0.1703 -0.1148  0.2603
25087W        W41221  10.547  14.950   5.630  0.0039 -0.1984 -0.1091
25088W        W41222  10.616   6.211   1.624 -0.2023 -0.1682 -0.0166
25089W        W41223   0.435  14.294  12.727 -0.3614  0.0812 -0.2938
25090W        W41224   0.896  13.521  12.581 -0.2443 -0.0022  0.0011
25091W        W41225   8.304   0.423   0.221 -0.0953  0.1231  0.0521
25092W        W41226   2.788   9.427  13.880 -0.2153 -0.2654 -0.0338
25093W        W41227   6.496   4.036   1.656  0.0648  0.2834  0.1331
25094W        W41228  14.385   5.465   4.805 -0.0429 -0.1094  0.4670
25095W        W41229  18.164  18.952  13.232  0.0099  0.1815 -0.4684
25096W        W41230  10.966   0.144  13.144 -0.0079 -0.1068 -0.0063
25097W        W41231  16.666   0.750  10.781  0.0143  0.1001  0.1700
25098W        W41232   0.075  18.652   1.728 -0.2009 -0.3650 -0.2755
25099W        W41233   3.049  14.071  14.603  0.0173  0.2460  0.0974
25100W        W41234   3.302   8.708   4.157 -0.4652 -0.0805 -0.0111
25101W        W41235  15.472   4.317  11.334  0.1599 -0.2606 -0.2510
25102W        W41236  16.476  11.567  10.419 -0.2175  0.2373 -0.2294
25103W        W41237  11.335   7.186   3.763 -0.3039  0.2070 -0.0747
25104W        W41238  15.095  16.743   0.377 -0.1618  0.3778  0.0971
25105W        W41239  15.752   6.284   1.970  0.1903  0.1796 -0.1144
25106W        W41240   1.673   0.418  12.701 -0.4981  0.3090  0.1721
25107W        W41241   8.935   4.893   5.047 -0.0128 -0.1666  0.1173
25108W        W41242  11.711   7.455   1.916 -0.5311 -0.2361  0.0084
25109W        W41243   8.168  11.150  10.750 -0.2419  0.5268 -0.0314
25110W        W41244   4.049   5.518   0.845  0.2223  0.1543  0.0459
25111W        W41245   3.120   1.865   3.547 -0.0524 -0.1440 -0.1400
25112W        W41246   8.825  16.028   6.114  0.0797 -0.1454 -0.1715
25113W        W41247  11.828   5.338   4.001  0.4694 -0.0742  0.3147
25114W        W41248   8.453   3.081   3.038  0.0463  0.2069 -0.1450
25115W        W41249   8.102  15.631   1.058  0.2632 -0.1868 -0.5449
25116W        W41250  16.511  11.743  13.521 -0.0909 -0.0875  0.0799
25117W        W41251  14.967   8.165  13.207 -0.0220  0.1557  0.1776
25118W        W41252  12.894   2.771   1.940  0.0280 -0.3833 -0.0145
25119W        W41253   1.682  17.694  11.643  0.1424 -0.2851  0.1134
25120W        W41254  18.350   6.761   3.326  0.0453  0.2149  0.0042
25121W        W41255   3.894  14.442   2.287  0.0102 -0.3619 -0.2210
25122W        W41256   1.625  14.378   1.669  0.2713  0.0870 -0.1395
25123W        W41257  11.688   7.189  14.315  0.0305  0.1058 -0.0573
25124W        W41258   9.260  13.230   1.357 -0.1219 -0.0758  0.2213
25125W        W41259  14.818  18.096   1.190 -0.1266  0.0236 -0.0247
25126W        W41260   4.349   7.515  11.589  0.2306  0.2797 -0.0411
25127W        W41261  13.062   4.034  13.274 -0.0648 -0.3139  0.2027
25128W        W41262  14.201  13.592   2.354  0.1654  0.0412  0.1418
25129W        W41263   0.888  11.783  10.394  0.2885  0.2949 -0.0726
25130W        W41264  18.343   4.089   3.965 -0.0478  0.1922 -0.2493
25131W        W41265   1.906   5.107   0.108  0.1288  0.2271  0.2971
25132W        W41266  11.656   1.029   3.462 -0.2361 -0.3163 -0.2201
25133W        W41267   8.724  10.910   3.687  0.0507  0.3136 -0.2609
25134W        W41268  17.417  14.871   4.020  0.2878 -0.0457  0.1076
25135W        W41269  10.291   4.642   1.727 -0.1224 -0.1677  0.3668
25136W        W41270   9.406   2.050   2.420  0.1022  0.0505  0.0482
25137W        W41271  10.711  16.085  14.124  0.0876  0.0911 -0.1147
25138W        W41272   2.475   1.342   2.497  0.4523  0.2920 -0.2337
25139W        W41273   6.399  12.141   1.782  0.0655 -0.3173 -0.4320
25140W        W41274  19.024  12.618   3.614  0.1377 -0.1114 -0.2105
25141W        W41275  12.100  13.305  13.470  0.0424  0.2611  0.1175
25142W        W41276  10.126  15.748  12.643 -0.0512 -0.2437  0.0980
25143W        W41277  15.371   8.883   2.023  0.2776 -0.1212  0.0905
25144W        W41278  14.755   7.368  10.596  0.3165 -0.0956  0.2107
25145W        W41279   1.451   6.774   2.726  0.1464 -0.3211 -0.1284
25146W        W41280   8.857   0.009   1.578 -0.0973  0.2635  0.1689
25147W        W41281   9.103   3.258  13.109  0.0487 -0.1693  0.1246
25148W        W41282   8.223   8.308   0.707  0.2483  0.2186  0.2211
25149W        W41283   6.051  18.606  13.598 -0.2547  0.0354  0.0909
25150W        W41284   2.180  17.586  12.297  0.0364 -0.0806 -0.1363
25151W        W41285  16.140  13.511  12.098 -0.2039  0.2156 -0.2860
25152W        W41286  19.018  17.888  13.549  0.1941 -0.0105 -0.1245
25153W        W41287  10.585  19.285   0.284 -0.3519 -0.0464  0.2117
25154W        W41288  19.291   3.692   2.194  0.0270  0.3661  0.0888
25155W        W41289   0.374  16.623  14.711 -0.1445 -0.1308 -0.0013
25156W        W41290   2.499   6.930  10.237  0.1315 -0.2454 -0.3099
25157W        W41291   7.219  11.616  10.704 -0.2180 -0.0341 -0.0549
25158W        W41292   4.612   3.096  14.100  0.0529  0.0729  0.0696
25159W        W41293   7.225   3.958  12.160  0.1489  0.0687 -0.0234
25160W        W41294   5.531  19.066  14.388 -0.0951 -0.1908  0.0391
25161W        W41295  14.223  18.359   2.732  0.1289 -0.0022 -0.1325
25162W        W41296   2.134   9.543   1.158  0.0120 -0.0192  0.0340
25163W        W41297  11.688  16.637  11.421  0.0847  0.0805  0.0992
25164W        W41298   6.371  15.889  11.123 -0.1755 -0.0973 -0.1339
25165W        W41299  14.212   3.250   4.930  0.2083  0.0420 -0.0286
25166W        W41300  15.545   8.637   0.173 -0.0053  0.0900  0.2254
25167W        W41301  15.091   5.063  12.315 -0.1578  0.0063 -0.3182
25168W        W41302   3.141   6.356  14.697  0.1746 -0.1282  0.0732
25169W        W41303   4.824  17.978  14.427  0.2626  0.1900  0.1559
25170W        W41304  12.616   8.134   5.325  0.1100  0.0691 -0.0284
25171W        W41305   1.035   4.458   1.103  0.0206  0.1448  0.4045
25172W        W41306  12.100  15.837   5.327  0.3704  0.1538  0.1184
25173W        W41307  12.375  13.314  11.395  0.2317  0.0198 -0.1321
25174W        W41308  14.534  13.421  12.966  0.0658 -0.0132 -0.0765
25175W        W41309  16.437   8.354  11.758 -0.0101 -0.1661 -0.0647
25176W        W41310  18.830  17.351  13.350 -0.1391  0.2175  0.1130
25177W        W41311  12.926  15.256   3.320 -0.2664 -0.5546  0.1129
25178W        W41312   0.394   7.705   1.392  0.0761 -0.0909  0.0390
25179W        W41313   3.895   1.067   1.413 -0.0329 -0.1482 -0.0487
25180W        W41314  12.159   7.195   2.457 -0.2028 -0.1411 -0.0823
25181W        W41315  16.989   0.733   2.369 -0.1349 -0.3026  0.1192
25182W        W41316   4.252   8.091   8.913 -0.0171 -0.1089  0.3614
25183W        W41317   7.177   6.641   2.369 -0.2798 -0.0617 -0.0922
25184W        W41318  17.685  15.403   1.726 -0.2906  0.3321 -0.4253
25185W        W41319  13.884  14.713   1.892  0.0194 -0.0666  0.1812
25186W        W41320   8.697   9.232  10.110 -0.1659  0.0061  0.0473
25187W        W41321  15.889  17.092   1.735  0.0480 -0.0018 -0.1587
25188W        W41322  10.338   6.713  14.877  0.3365  0.2048  0.1485
25189W        W41323   5.827  11.083   2.388  0.0597  0.0756 -0.0191
25190W        W41324   6.718   8.640   0.593 -0.1043  0.0294 -0.1226
25191W        W41325   8.565   1.800   1.117  0.0751 -0.0802  0.1010
25192W        W41326  16.578   9.540  10.004 -0.2428 -0.1191 -0.0627
25193W        W41327   4.202  11.607   4.230  0.2309 -0.1824  0.0686
25194W        W41328  13.961   2.161   2.928 -0.1033 -0.2671 -0.0065
25195W        W41329   7.316   7.556  10.360 -0.3523  0.1019 -0.0979
25196W        W41330   0.839  10.040   4.005 -0.2273 -0.2862  0.0045
25197W        W41331   1.475   0.954   1.867  0.2926 -0.2683  0.3422
25198W        W41332   0.137  16.242  11.670  0.1525 -0.3209 -0.0351
25199W        W41333   4.814  14.346  13.078  0.2464  0.2919 -0.1192
25200W        W41334   6.645  14.442  13.324  0.0722 -0.0095 -0.1436
25201W        W41335   2.561  18.413  14.000  0.0685 -0.2744 -0.1749
25202W        W41336  13.696  16.861   4.689  0.0434 -0.0020  0.0897
25203W        W41337   1.707   7.185  14.928 -0.0652 -0.0781  0.1144
25204W        W41338   9.117  13.495   2.804  0.3000  0.1788  0.0120
25205W        W41339   8.558  10.676   4.659  0.0792 -0.0770 -0.0521
25206W        W41340   2.659   0.633   5.404  0.2359 -0.0699 -0.5466
25207W        W41341  11.921   0.435  11.921 -0.1042 -0.2548 -0.2365
25208W        W41342   0.264   9.421   2.632  0.1642 -0.1769 -0.0487
25209W        W41343   6.073   2.861   0.339 -0.0415 -0.2974  0.1257
25210W        W41344   3.723  15.860  10.914  0.1379  0.0022 -0.0174
25211W        W41345   2.228  18.947   9.520  0.3508  0.2630 -0.0497
25212W        W41346   1.425  12.578  10.699  0.1515 -0.6615 -0.0559
25213W        W41347  11.348   4.939   0.730 -0.0927  0.1674 -0.0040
25214W        W41348   5.032  19.028  13.653  0.2334  0.1403  0.0695
25215W        W41349  12.324  12.464  13.231  0.0186 -0.1773 -0.2456
25216W        W41350   1.082   2.868  10.732  0.0574  0.4715 -0.1506
25217W        W41351   7.817  18.201   9.891  0.0675 -0.1084 -0.2359
25218W        W41352  15.021   1.901   1.613 -0.0829  0.0816 -0.3828
25219W        W41353  18.757  17.354  10.807  0.1952  0.2180 -0.2251
25220W        W41354   1.873   0.097   3.797  0.0911  0.2075 -0.1810
25221W        W41355  11.225   8.027   4.104  0.0349 -0.1107 -0.2120
25222W        W41356  18.829   3.311   0.873 -0.3431  0.1309  0.1258
25223W        W41357   7.284   6.977   1.083 -0.2457 -0.0851  0.2666
25224W        W41358   3.652  10.571   0.014 -0.0888  0.2007 -0.0637
25225W        W41359  10.112  17.013  11.288 -0.0557  0.5041 -0.1172
25226W        W41360   3.779  13.931  13.789 -0.0481  0.1533 -0.1135
25227W        W41361  16.918  12.442   0.673 -0.4288  0.1021 -0.0525
25228W        W41362   7.449  17.573   5.446  0.0274 -0.3622  0.2333
25229W        W41363  13.758  12.340   5.841  0.0167  0.0108 -0.3457
25230W        W41364  10.635   7.394  14.587  0.0089  0.1564 -0.2422
25231W        W41365   7.026  15.186  12.251  0.1322  0.2742  0.2889
25232W        W41366   6.021  11.297   1.543 -0.2114  0.0850  0.2427
25233W        W41367   8.903   4.244  11.656  0.2289  0.4268  0.3533
25234W        W41368  10.506   4.773   0.034  0.1829 -0.1257 -0.0979
25235W        W41369   7.450   6.449  12.476  0.2292 -0.1292 -0.0111
25236W        W41370   7.560   2.560  10.269  0.1022 -0.1376 -0.3879
25237W        W41371   2.346  10.227   4.506  0.3035  0.1887  0.0417
25238W        W41372  16.216  17.653   1.816 -0.0932  0.0820 -0.0462
25239W        W41373  13.228   5.505  13.095 -0.1419 -0.0516 -0.0268
25240W        W41374   5.536   9.053  13.700  0.1391 -0.0275 -0.0680
25241W        W41375   1.890   3.153  13.884  0.0826 -0.2919  0.1151
25242W        W41376  18.006   0.130   3.460 -0.3626  0.0052 -0.1879
25243W        W41377  18.322  10.091  10.087 -0.2420 -0.1774 -0.2704
25244W        W41378  17.796   4.204  13.563  0.0674 -0.1318 -0.0804
25245W        W41379   5.589  18.901   1.187  0.1997 -0.2829 -0.0343
25246W        W41380   5.148  10.810   1.434  0.0656 -0.1888  0.1344
25247W        W41381  17.666   1.614  10.871  0.2437  0.0062  0.0739
25248W        W41382   3.826   2.335   1.768 -0.0768 -0.0245 -0.3140
25249W        W41383  19.217  11.013  11.061 -0.1598 -0.0770 -0.2519
25250W        W41384   2.359   7.710  13.702 -0.1895  0.0014  0.1701
25251W        W41385   1.741   0.006   0.467 -0.1871 -0.3409 -0.0709
25252W        W41386   5.325   2.459   4.626 -0.0492 -0.1039  0.1326
25253W        W41387  19.054  11.716  13.932 -0.0131  0.0846  0.0033
25254W        W41388  15.736   4.659   0.622  0.3267 -0.1727 -0.0460
25255W        W41389  13.232  10.020  14.741 -0.2081 -0.1639 -0.3202
25256W        W41390  15.281   2.905   1.602  0.1868  0.0450  0.1501
25257W        W41391  17.099  11.992   0.804  0.0734  0.0726 -0.1469
25258W        W41392  10.791  15.684   2.690 -0.0673  0.0705 -0.0428
25259W        W41393   5.566   4.962   1.809  0.0429 -0.2603  0.0481
25260W        W41394   2.084   1.767   2.661 -0.0019 -0.0439  0.0205
25261W        W41395   9.467  17.885  14.278  0.0540  0.0965 -0.2078
25262W        W41396  19.016  15.353   1.622  0.1323  0.0022  0.0802
25263W        W41397  15.970   1.053   4.604  0.0979 -0.0350  0.1748
25264W        W41398   7.438   6.505   2.844  0.1418 -0.1252 -0.2918
25265W        W41399   6.207   5.710  12.241 -0.0947 -0.1166  0.3061
25266W        W41400   5.653  17.836   1.936  0.0805 -0.2428 -0.0253
25267W        W41401   7.521   8.945   1.508 -0.0581 -0.0004 -0.0290
25268W        W41402   8.086   1.790   5.278 -0.0862  0.0582  0.2431
25269W        W41403   8.375   7.834   0.649  0.2797  0.4335  0.1093
25270W        W41404  10.385  10.906  11.126 -0.3460 -0.1910 -0.0589
25271W        W41405   0.674  13.419   3.188 -0.1832 -0.0815 -0.1480
25272W        W41406   4.136   7.424   2.960  0.1323  0.0318  0.3371
25273W        W41407  11.836   2.623   1.265 -0.0122  0.0272 -0.2066
25274W        W41408   2.735   1.419   9.532  0.4329  0.4165  0.0084
25275W        W41409  11.308  18.555   4.362 -0.0001 -0.0390  0.0860
25276W        W41410   3.027   8.620  12.048  0.1673 -0.4591 -0.2354
25277W        W41411   6.090  14.848   0.882 -0.1974 -0.2864  0.1851
25278W        W41412  16.243  19.154   0.605 -0.2275  0.1412  0.0385
25279W        W41413   5.416  13.928  12.160  0.1221 -0.1811  0.3455
25280W        W41414   4.636  17.250   1.013  0.0883  0.0550 -0.1296
25281W        W41415   5.898   1.350  10.677  0.1266 -0.0408 -0.0236
25282W        W41416  10.894   1.226   4.802 -0.0075  0.1581  0.2205
25283W        W41417  11.639  14.968   5.167 -0.3042  0.3968 -0.0857
25284W        W41418  16.325   5.335   1.972  0.1468  0.0636 -0.0893
25285W        W41419   1.517   6.191   0.754 -0.3197 -0.0054 -0.1416
25286W        W41420  18.380   1.706   0.226  0.0055 -0.3880  0.0727
25287W        W41421   7.084  16.599  13.392  0.1869  0.1861  0.3745
25288W        W41422  19.076   0.177  12.333  0.1298  0.2268 -0.0240
25289W        W41423   5.657  11.041   3.833 -0.1896 -0.0979 -0.2913
25290W        W41424  18.624   4.461   0.232  0.2416  0.0457 -0.5182
25291W        W41425   3.181   9.922  13.822  0.3652  0.1360  0.1295
25292W        W41426   0.063  15.720  10.272 -0.2205  0.1208 -0.3792
25293W        W41427   7.172   5.209  13.994  0.4128 -0.1012 -0.1721
25294W        W41428   4.254  16.874   1.671  0.0988 -0.2853  0.2358
25295W        W41429   1.595   4.959  13.687 -0.0261  0.0040  0.1091
25296W        W41430  18.048   0.752  10.771  0.1003  0.0649  0.1628
25297W        W41431  11.173  19.064  13.514  0.1979 -0.2893 -0.0693
25298W        W41432   7.823  18.532   0.719 -0.0189 -0.0450 -0.0961
25299W        W41433   3.058  11.486  13.085 -0.0328 -0.0131 -0.0757
25300W        W41434   6.412   0.028   5.449  0.0314  0.0977 -0.0707
25301W        W41435  19.200   5.748   8.816 -0.1741  0.0481  0.3069
25302W        W41436   5.663   6.402   2.704 -0.2982  0.1317 -0.1659
25303W        W41437   8.873  11.022   3.081  0.1116 -0.0542 -0.2934
25304W        W41438  15.190   4.731  14.368 -0.0539  0.1347  0.0335
25305W        W41439  10.887  15.936   3.363  0.0302  0.5009 -0.2093
25306W        W41440   6.105   8.401   1.399  0.2387 -0.0889  0.1287
25307W        W41441   0.998  14.854  11.608  0.1620  0.0517 -0.1102
25308W        W41442   5.104   7.634   0.659  0.0810  0.2661  0.0386
25309W        W41443   5.165  16.386  14.286 -0.4131  0.2397 -0.2175
25310W        W41444  19.088   3.170   9.704  0.0335  0.0622  0.0396
25311W        W41445  16.339   4.180  11.515 -0.1291 -0.1252 -0.2925
25312W        W41446  13.561   1.683   2.153 -0.1126 -0.3680 -0.1417
25313W        W41447   9.095  15.065   2.081  0.2105 -0.0124  0.1403
25314W        W41448  13.203  16.233   4.113 -0.1218  0.3458 -0.1094
25315W        W41449  14.889   0.190  13.836  0.0337  0.2380 -0.2224
25316W        W41450   2.691   4.682   1.753  0.1797  0.4424 -0.0575
25317W        W41451   0.517  17.768   0.197 -0.2720  0.1128  0.0416
25318W        W41452  15.724   7.694  14.418 -0.0635 -0.1294  0.2351
25319W        W41453   8.877   2.066  11.347  0.1869  0.0773  0.1100
25320W        W41454  12.016   2.342   3.290  0.2280  0.2349 -0.1565
25321W        W41455   5.907  15.585   2.736  0.0144  0.2591 -0.0539
25322W        W41456  12.741  14.428  14.952  0.2277 -0.2964 -0.1161
25323W        W41457   1.584   0.288   5.728  0.3789 -0.3581  0.1075
25324W        W41458   8.834  13.032   1.994 -0.2354  0.1931 -0.0238
25325W        W41459   4.974   9.450   3.197 -0.0330  0.1840 -0.3507
25326W        W41460  16.409  10.413  12.598  0.2143 -0.2125 -0.2776
25327W        W41461  17.923   5.030   0.408 -0.3653  0.3271 -0.1368
25328W        W41462  19.236  14.092  11.779 -0.0142 -0.0754  0.1719
25329W        W41463   0.001  13.014  13.390  0.0353 -0.0026  0.2954
25330W        W41464   8.463  10.419   3.744 -0.1820  0.0656  0.0863
25331W        W41465  11.934  12.102   2.586  0.1347 -0.1047 -0.0699
25332W        W41466   6.365  17.730   9.882  0.0911  0.4237  0.1586
25333W        W41467  14.116  18.159  14.934 -0.1750 -0.2591  0.1248
25334W        W41468  11.339  13.078  11.490 -0.1475 -0.0882  0.0662
25335W        W41469  18.883   4.595   8.912  0.0557 -0.2677  0.1829
25336W        W41470  13.177  11.269   4.741  0.1587  0.1343  0.0497
25337W        W41471   9.199  18.839   5.039  0.0207  0.0583 -0.1356
25338W        W41472   9.547   1.852  12.436 -0.2222  0.0786  0.0682
25339W        W41473  13.108   1.226  11.454  0.0039 -0.4108 -0.0953
25340W        W41474   8.504   2.486   0.083 -0.2298 -0.0303  0.1618
25341W        W41475   5.779  13.104  11.680  0.2037  0.1659  0.4045
25342W        W41476   2.148   1.027  13.205  0.1591  0.3904  0.0589
25343W        W41477   7.283  14.437   1.531  0.0688  0.2564  0.0106
25344W        W41478  15.125   0.169   1.066 -0.1547  0.0590  0.1275
25345W        W41479   0.121  10.259  11.554 -0.0999 -0.0000  0.1370
25346W        W41480   2.928  19.202  10.657  0.1168  0.4048  0.3273
25347W        W41481  11.542  15.342   0.068 -0.0062 -0.3681  0.1660
25348W        W41482  10.497   2.347   5.100  0.1623 -0.1917  0.1412
25349W        W41483  15.001  14.844   3.081 -0.1593 -0.1007 -0.0274
25350W        W41484  13.513   8.866   2.465  0.0954 -0.0380  0.1477
25351W        W41485   6.077   5.154   1.956 -0.2551  0.1952 -0.4210
25352W        W41486   7.397   5.561   1.538  0.0604 -0.3636 -0.0576
25353W        W41487   6.779   8.811  12.818 -0.2200 -0.1734  0.0035
25354W        W41488   6.077   2.781  11.266 -0.0904  0.1031 -0.0305
25355W        W41489   5.805  13.297  12.536  0.0463 -0.1886 -0.0533
25356W        W41490  16.663   2.791   4.284  0.2021 -0.1438  0.0558
25357W        W41491   1.302  12.641   0.743  0.1463  0.0522 -0.3499
25358W        W41492   7.834  11.162   3.637 -0.1247 -0.0690  0.1441
25359W        W41493   7.427   9.126  10.650  0.0835  0.2758  0.2681
25360W        W41494  10.403  19.191  10.684  0.0028  0.0957  0.0195
25361W        W41495   9.784  18.166  14.888  0.0143 -0.0472  0.0663
25362W        W41496   1.192   6.437   1.504  0.1311 -0.2020 -0.1967
25363W        W41497  16.230   3.578  13.369  0.2282 -0.0432  0.3343
25364W        W41498  16.924   1.508   2.256  0.1830  0.0608  0.2242
25365W        W41499   9.544   1.839   0.216  0.2998  0.0008  0.0340
25366W        W41500   9.042   9.359  10.496  0.1013  0.2655  0.2936
25367W        W41501   1.029  17.943   4.050 -0.0188 -0.0450  0.2761
25368W        W41502  10.804  16.078  12.053 -0.1640 -0.2072  0.0497
25369W        W41503   6.503  13.811  14.477 -0.0521 -0.2118 -0.1910
25370W        W41504  18.574  13.273   1.471 -0.0691  0.0476 -0.0503
25371W        W41505  17.619   8.395   3.326  0.0643  0.4826  0.1092
25372W        W41506   6.541   6.805  13.787 -0.1087  0.1532  0.0893
25373W        W41507  15.061   1.247  11.339 -0.0092 -0.1117  0.0904
25374W        W41508  15.984   8.036   3.889  0.0739 -0.1401  0.0352
25375W        W41509  11.327   1.149  11.643  0.1700  0.1800 -0.0593
25376W        W41510   4.115   7.643   3.971 -0.0383  0.0430 -0.1009
25377W        W41511  14.271  16.303   4.373  0.0216  0.4342 -0.0265
25378W        W41512   5.139   3.031   3.477  0.0204  0.0031  0.2279
25379W        W41513  13.185  19.265  11.316  0.0644  0.0076  0.2247
25380W        W41514  13.440  11.672  12.886  0.2771  0.1457  0.1038
25381W        W41515  10.172  18.910  13.906 -0.1896  0.0226  0.2614
25382W        W41516   0.618  18.786   1.652 -0.0344 -0.0526  0.1179
25383W        W41517   8.184  11.731   1.389  0.3957  0.1609 -0.0298
25384W        W41518  12.978  17.717  14.487 -0.0693 -0.2146 -0.0893
25385W        W41519   8.943   1.838   3.097 -0.0572  0.3392 -0.3125
25386W        W41520   7.254  17.935   5.907 -0.3592  0.1696  0.0181
25387W        W41521   1.288  11.951  11.792 -0.1149  0.0808 -0.2676
25388W        W41522  15.491  18.338  11.515  0.1569 -0.0172  0.0301
25389W        W41523  14.986   2.413  13.264  0.2187  0.1657  0.0978
25390W        W41524   2.049   6.289   9.280 -0.3903 -0.0621  0.2932
25391W        W41525  16.595   4.871  12.291  0.2631  0.0570 -0.0401
25392W        W41526  12.405   9.183   1.843  0.0191  0.0956 -0.0950
25393W        W41527   7.320  14.045  13.437 -0.2117  0.1715 -0.0198
25394W        W41528   8.905   2.999   0.292  0.2781  0.1314 -0.1330
25395W        W41529   8.175  17.657   2.806 -0.2328  0.2443  0.0831
25396W        W41530  12.847   9.762  14.804  0.1188  0.0307 -0.1275
25397W        W41531   3.257  15.373   5.093  0.0841 -0.1610 -0.2584
25398W        W41532   8.984  10.514   4.849 -0.0786 -0.2565 -0.1793
25399W        W41533   6.330  14.237   4.456  0.0899  0.1493 -0.0522
25400W        W41534   8.399   2.944   0.292 -0.2022 -0.1181 -0.0784
25401W        W41535   1.512   7.249   1.694  0.1944  0.0266  0.0891
25402W        W41536   7.284   8.813  12.864 -0.1224 -0.1147  0.0665
25403W        W41537  18.464   6.792  11.705 -0.2361  0.2715  0.5532
25404W        W41538   0.094  19.069   0.933  0.2896 -0.1628 -0.2277
25405W        W41539   8.446  11.087  13.649 -0.1909 -0.1255  0.1136
25406W        W41540   3.860  16.713   1.388  0.1844  0.0916 -0.1562
25407W        W41541   2.930   4.820  14.074  0.1730  0.1111 -0.1391
25408W        W41542  17.251  15.358   3.436 -0.3045  0.0071  0.0265
25409W        W41543  13.681  18.010   5.187  0.2797 -0.0080  0.0387
25410W        W41544   0.802   3.581   1.243  0.1613  0.0872 -0.1773
25411W        W41545   3.831   0.709   2.368  0.0016  0.1889  0.3535
25412W        W41546  15.097   6.378   5.316 -0.0617 -0.0197 -0.1712
25413W        W41547  14.289  13.744  12.599  0.0101 -0.1300  0.1954
25414W        W41548   8.138  11.895  12.695  0.1353  0.1268  0.1155
25415W        W41549   4.005  15.838   2.629  0.0746  0.2313  0.2307
25416W        W41550  10.516   3.010  12.872  0.0187  0.1976  0.0627
25417W        W41551  15.639   9.458   2.792 -0.1006  0.2549  0.0477
25418W        W41552   1.876   9.018   0.949 -0.0415 -0.2832 -0.2019
25419W        W41553   4.475  10.286  11.159  0.0045  0.1515 -0.4570
25420W        W41554   2.047   5.394   1.849  0.0427  0.0525 -0.1091
25421W        W41555  11.478   6.492   0.722 -0.0439 -0.1217 -0.4771
25422W        W41556  18.744   4.897   2.952 -0.0945  0.0900 -0.2024
25423W        W41557   4.168  11.228   2.422 -0.0192  0.0553  0.0042
25424W        W41558  16.138  14.708   0.721 -0.4038  0.1306 -0.0483
25425W        W41559  10.286   7.336   0.033 -0.0196 -0.1686  0.0439
25426W        W41560   3.279  15.892  14.362  0.0405  0.2276 -0.0527
25427W        W41561   4.184  11.110   4.642 -0.0040 -0.1155  0.0487
25428W        W41562   7.067   6.532  10.965 -0.1078  0.0751  0.1208
25429W        W41563   0.222   9.606  10.256 -0.2782 -0.1183 -0.2428
25430W        W41564   6.378  11.614  10.053 -0.0087 -0.0290  0.3180
25431W        W41565  11.920   4.611   2.674 -0.1746  0.1600  0.4562
25432W        W41566  18.895  10.359   9.854  0.0091 -0.2654 -0.0260
25433W        W41567  12.590  17.541  11.980 -0.1943  0.0493  0.0270
25434W        W41568  16.389   6.553   0.160  0.2322  0.1833 -0.3162
25435W        W41569   4.873   3.003   3.041 -0.2015 -0.0253  0.0371
25436W        W41570  18.298  16.972   1.468 -0.1171 -0.1379 -0.1957
25437W        W41571  16.816   0.299  13.024  0.2994  0.0135 -0.0013
25438W        W41572  13.091   9.744  13.309 -0.3199  0.0649 -0.2385
25439W        W41573   9.236  18.010   1.249 -0.2253  0.0555  0.2421
25440W        W41574  18.270   6.452  11.400 -0.0708 -0.1596  0.1626
25441W        W41575  17.561  11.282   3.982 -0.0929 -0.1299  0.2963
25442W        W41576  11.979   5.843  14.119  0.0677 -0.5119  0.0576
25443W        W41577  18.502   6.550  12.789  0.2652 -0.0077 -0.2178
25444W        W41578   4.520  11.662   1.437 -0.2017  0.1238 -0.2183
25445W        W41579  18.677  19.290  14.350  0.1633  0.2156 -0.0901
25446W        W41580  12.200  11.605   3.778 -0.2282 -0.0257 -0.0605
25447W        W41581  18.950   6.210   3.414  0.1855  0.3711 -0.0144
25448W        W41582  15.719  17.862  11.814 -0.1225 -0.1484 -0.1457
25449W        W41583   1.001  11.987   4.647 -0.3274  0.0114  0.1084
25450W        W41584  10.900   7.923   0.619 -0.3895 -0.2297 -0.0160
25451W        W41585   5.282   7.084   0.695 -0.3300  0.3206  0.1308
25452W        W41586  17.039   7.915  10.538  0.1030  0.0813 -0.0058
25453W        W41587   1.684   7.957   3.707  0.0970  0.0051 -0.0471
25454W        W41588  17.156  16.846  14.775  0.0192  0.1257  0.0801
25455W        W41589  10.897  12.181  14.439  0.0181 -0.3226 -0.2144
25456W        W41590   0.382   6.289  10.650  0.2513 -0.4607  0.0172
25457W        W41591  17.231  14.027   3.134  0.2344  0.0557  0.0148
25458W        W41592  13.554   2.537  13.340  0.1728  0.0190 -0.0390
25459W        W41593  15.720   1.352   1.979 -0.3765  0.2806  0.2168
25460W        W41594  12.328   8.623   0.998 -0.0703 -0.1079 -0.0051
25461W        W41595   2.455  15.126   1.208  0.0847  0.0567  0.0103
25462W        W41596   1.307   9.947   0.753 -0.0786  0.3393  0.1157
25463W        W41597  13.837   3.300   4.144 -0.3181 -0.0025  0.1823
25464W        W41598  19.059  14.740  14.789 -0.0412  0.1621  0.0605
25465W        W41599  14.747   5.721  11.335  0.0177 -0.1905 -0.0281
25466W        W41600  18.627   4.690  14.190  0.0719  0.2848 -0.0274
25467W        W41601  18.159  10.782   3.673 -0.0680  0.0859 -0.1696
25468W        W41602   3.057   4.556  12.578  0.1138  0.0103 -0.0545
25469W        W41603   4.444   8.715   2.485 -0.1050 -0.1525 -0.1271
25470W        W41604  12.971   2.023   1.736  0.1206  0.0353 -0.0521
25471W        W41605  12.434  18.661   3.951  0.0985  0.1604  0.0272
25472W        W41606  16.205   0.955   2.209 -0.1270 -0.5862  0.0320
25473W        W41607   7.097  13.816   2.093 -0.2959  0.3354  0.0425
25474W        W41608   1.748  13.834   0.388 -0.2265 -0.1222  0.1931
25475W        W41609   2.045  11.083  14.327 -0.4210  0.1409  0.3136
25476W        W41610  12.441  17.008  11.799  0.1203  0.1751  0.4346
25477W        W41611   2.905  11.212  12.209 -0.0675  0.0224  0.1405
25478W        W41612  16.202   6.328  13.607 -0.1956 -0.0381  0.3319
25479W        W41613   9.979  17.896   2.920 -0.2430  0.1452  0.2690
25480W        W41614  13.445  10.940   5.344  0.2949 -0.0550 -0.2305
25481W        W41615  16.829   5.152   1.302 -0.2652 -0.1044  0.1004
25482W        W41616   8.755  12.268   5.543  0.0499 -0.2466  0.2498
25483W        W41617  10.455  17.667  14.536 -0.0868 -0.2145 -0.2474
25484W        W41618  15.261  12.396   9.803 -0.0665 -0.1095 -0.2972
25485W        W41619   6.850  15.794   2.276 -0.1282 -0.3456 -0.1156
25486W        W41620   8.624  10.543   1.893  0.0704 -0.2667  0.0168
25487W        W41621   3.175  10.041  13.257  0.1716  0.1304 -0.0044
25488W        W41622   0.267   2.562  10.409  0.2213  0.1421 -0.0299
25489W        W41623   9.710   9.105   1.519 -0.0024 -0.1922  0.3664
25490W        W41624  15.719  10.790   4.632 -0.0480 -0.2384 -0.0870
25491W        W41625  13.831  13.566   2.878 -0.0774 -0.2123  0.3394
25492W        W41626  16.056  14.998   1.997  0.0663 -0.0170  0.1565
25493W        W41627   7.559  16.130   1.790 -0.1428 -0.2682 -0.1816
25494W        W41628   8.625   8.306   9.029  0.2190 -0.0641 -0.2594
25495W        W41629   5.701   8.391   3.983  0.0341 -0.0782 -0.2339
25496W        W41630   6.001  10.108   1.207  0.2103  0.0037 -0.2375
25497W        W41631  14.970  14.729   3.895  0.0988 -0.1715  0.1307
25498W        W41632  11.453   1.287  14.891 -0.1989 -0.2387 -0.1035
25499W        W41633   6.022   1.629  13.290  0.2054  0.2368  0.2059
25500W        W41634  19.064  15.138   3.886  0.4203  0.0061 -0.2336
25501W        W41635   1.935   7.184   3.381 -0.0468 -0.1574  0.0934
25502W        W41636   0.282   6.507  13.968 -0.1585  0.1057  0.0484
25503W        W41637   2.507  14.422   1.942 -0.0723 -0.1617  0.1184
25504W        W41638  19.350  11.425  10.411 -0.1701 -0.2851  0.0085
25505W        W41639   4.741  14.767   0.166  0.0760  0.0377 -0.1575
25506W        W41640   6.980   0.552   0.481  0.2997  0.1968  0.0334
25507W        W41641   4.213   1.736  13.360  0.0493 -0.3319  0.1852
25508W        W41642   2.411   1.885  10.329  0.0688  0.1767  0.0758
25509W        W41643  10.342   3.574  13.663 -0.0207  0.0104  0.0354
25510W        W41644   8.219  17.603   4.518  0.3683 -0.0715  0.3459
25511W        W41645  10.271   4.475  14.091  0.0618  0.1096  0.1341
25512W        W41646   4.060   6.733  11.864  0.2768  0.0345 -0.1298
25513W        W41647   0.170   2.269  10.009  0.2583 -0.1426  0.1663
25514W        W41648  13.509   8.924   4.970  0.0576  0.0215 -0.0775
25515W        W41649   9.128  11.379  13.883  0.2385 -0.0558  0.1964
25516W        W41650  11.232   9.542   3.256 -0.4837  0.3216 -0.2183
25517W        W41651   4.589  16.714   5.117  0.0089  0.0346  0.0028
25518W        W41652  16.873  18.081  11.014 -0.0443  0.1407  0.1500
25519W        W41653   6.036   9.434   5.360 -0.0480 -0.0007 -0.0091
25520W        W41654  12.280  17.313  13.921 -0.0036  0.0478  0.2905
25521W        W41655  17.494  11.534   1.992 -0.0198 -0.3673 -0.0190
25522W        W41656   4.791  18.495   1.099 -0.2452  0.0135  0.1237
25523W        W41657   9.933   6.609   3.371  0.0030  0.0059 -0.3110
25524W        W41658   7.544  14.856   3.642  0.1613  0.1089  0.0298
25525W        W41659   0.815  18.143   0.561  0.1050  0.1582 -0.0921
25526W        W41660  16.604  13.273   1.626 -0.1920  0.2407  0.4766
25527W        W41661   0.600  13.142  11.575  0.0559 -0.0385  0.1168
25528W        W41662  10.168  10.821   4.314 -0.5541 -0.3666 -0.1024
25529W        W41663   4.219  13.602  11.508  0.1617 -0.0209 -0.1206
25530W        W41664   9.045   0.455   4.568  0.0889  0.1414  0.1558
25531W        W41665  17.915   5.288  14.944  0.0402  0.1422 -0.0131
25532W        W41666   2.399   9.248   4.033  0.2733 -0.0835  0.0256
25533W        W41667   9.998  15.050  11.927 -0.2362  0.1611 -0.2424
25534W        W41668  19.243   6.644  12.965 -0.0920  0.0529 -0.2713
25535W        W41669   2.339  10.020  13.622  0.0697 -0.2485  0.3018
25536W        W41670   0.593   4.684   0.531 -0.1800 -0.0141  0.0132
25537W        W41671  11.994  10.667   0.726  0.5331  0.1783 -0.4445
25538W        W41672   4.600  11.224  10.928  0.2000  0.0553 -0.0733
25539W        W41673  14.129   9.681   3.917  0.2984  0.1934 -0.1375
25540W        W41674   6.758   1.943   4.360 -0.1573  0.0117  0.2331
25541W        W41675   2.564   2.977   0.094  0.0848 -0.1391 -0.0991
25542W        W41676   4.051  16.503   4.872 -0.0109 -0.0134  0.1068
25543W        W41677   3.834  15.970  12.549  0.0906  0.2614 -0.1770
25544W        W41678  14.338   9.285  13.933 -0.0114  0.1846  0.1375
25545W        W41679  18.579  16.420   3.913  0.0586 -0.0119 -0.2288
25546W        W41680  11.799  10.300  13.743  0.1399  0.1125  0.0334
25547W        W41681  16.292  17.710   0.409 -0.1921 -0.1348  0.0289
25548W        W41682  18.195  12.362   4.878  0.1129 -0.1189  0.1500
25549W        W41683  16.238  18.629  11.921 -0.3111  0.2305  0.3530
25550W        W41684   1.682  13.122  10.718  0.2719 -0.0334 -0.0107
25551W        W41685  14.501  15.066   0.938 -0.1707  0.0171 -0.4179
25552W        W41686  11.159   7.742   1.012  0.2061  0.0884  0.3493
25553W        W41687  15.341  10.306   0.106  0.2726  0.1447 -0.1370
25554W        W41688  10.493   4.090   5.109  0.0162  0.0754  0.1849
25555W        W41689  10.403  12.144  14.456 -0.0114  0.0722  0.2424
25556W        W41690   4.087  14.601   1.719  0.4151 -0.0543  0.1183
25557W        W41691  17.229  11.161  12.815  0.0125  0.1448  0.0454
25558W        W41692   3.378  17.230  12.016 -0.1120 -0.4192  0.2805
25559W        W41693   5.172  11.644  10.003  0.0154  0.3133 -0.0613
25560W        W41694  13.496   3.803  12.218  0.0475 -0.1471  0.2845
25561W        W41695  16.911   0.485  13.616  0.2273 -0.2290  0.2112
25562W        W41696   1.579   6.476   4.328 -0.1342 -0.0726 -0.0456
25563W        W41697   8.193   3.281  14.868 -0.2587 -0.2190  0.0743
25564W        W41698  18.381  16.322  14.153 -0.3316 -0.1281  0.2357
25565W        W41699  17.559   3.253   0.675  0.2469 -0.0048  0.0163
25566W        W41700  16.677   4.203  14.763  0.2464 -0.1327 -0.0209
25567W        W41701  16.449   7.345  13.306 -0.2425  0.0934  0.1882
25568W        W41702  15.767  13.470   4.998 -0.2568 -0.2857 -0.2030
25569W        W41703   0.670  18.850  14.211 -0.0143 -0.3091  0.1492
25570W        W41704  18.805  16.199   3.228  0.0413  0.3242 -0.0833
25571W        W41705  18.121  12.070   2.858  0.2639 -0.0994 -0.1228
25572W        W41706  11.442   9.036  12.700  0.2221  0.3299  0.1239
25573W        W41707   4.434   9.248  10.858  0.1521 -0.0344 -0.0160
25574W        W41708  12.387   1.777  11.968  0.1761 -0.1222  0.0879
25575W        W41709   0.920  16.088  10.459 -0.1434 -0.0565 -0.3505
25576W        W41710  10.328   7.866   3.936 -0.0066  0.0884  0.1806
25577W        W41711  17.241  12.666   1.204 -0.2156 -0.0413  0.2771
25578W        W41712   9.857   9.081   1.976  0.0423  0.3548  0.0176
25579W        W41713   3.954  15.358   1.613  0.2105 -0.0576  0.2715
25580W        W41714  16.123  15.277   0.649 -0.0213 -0.2559  0.0825
25581W        W41715   4.089   8.813  13.420  0.4148  0.4079 -0.3632
25582W        W41716   4.111   9.376   3.769 -0.0108  0.1136  0.1782
25583W        W41717  14.906  12.379   3.961 -0.1881 -0.0480 -0.2127
25584W        W41718  13.843  10.489   1.423 -0.3516  0.0535  0.2487
25585W        W41719   1.615  13.882   1.311 -0.1299  0.0625 -0.0797
25586W        W41720  18.381   9.616   1.843  0.0572  0.2976  0.1148
25587W        W41721  13.629  14.573  12.281 -0.1871 -0.1540 -0.0611
25588W        W41722   2.455  14.342  12.317 -0.3645  0.0111 -0.4391
25589W        W41723   7.321   1.519   0.620 -0.0220 -0.1359  0.2577
25590W        W41724   3.948  16.175   5.670 -0.3170  0.4897  0.2149
25591W        W41725  10.731   3.664   0.577  0.0740  0.3333 -0.1879
25592W        W41726   0.558  19.218   0.641 -0.0062 -0.0060 -0.3007
25593W        W41727   5.186  12.488   2.339  0.0305 -0.2822 -0.5165
25594W        W41728  18.025  11.106   2.975 -0.4633  0.0409 -0.0089
25595W        W41729   3.045   8.971   3.174  0.0589  0.2894 -0.4309
25596W        W41730  12.530   4.540   0.009 -0.0910  0.1239  0.2694
25597W        W41731   8.333  13.961  10.290  0.0000 -0.0492 -0.1394
25598W        W41732  17.831  13.727  10.220 -0.2014 -0.0525  0.2665
25599W        W41733   4.816   5.557   9.323 -0.1202  0.0366 -0.0212
25600W        W41734  17.086  16.711   2.249  0.1899  0.1124 -0.1748
25601W        W41735   7.646   2.383  14.833  0.3416  0.0638 -0.4066
25602W        W41736   0.649   6.658   0.332  0.1002  0.3022  0.1950
25603W        W41737   9.593  12.912  11.134 -0.0106  0.1643  0.3882
25604W        W41738   3.171   7.039  13.675 -0.1667  0.0034  0.3232
25605W        W41739  10.411  14.410  11.601  0.0674 -0.2966  0.5067
25606W        W41740   6.083  10.113  13.037  0.1148  0.0584 -0.1028
25607W        W41741  14.862   9.642   3.565  0.3543  0.0445 -0.1831
25608W        W41742  10.162   9.964   1.717  0.2663 -0.1786 -0.3371
25609W        W41743  15.460   3.003  12.236  0.0113  0.3545  0.2726
25610W        W41744   9.754  15.478   5.400 -0.4170 -0.0342  0.0730
25611W        W41745   9.407   8.335  11.099 -0.2972  0.2091 -0.2946
25612W        W41746   3.813   3.479   1.884 -0.1405  0.0944 -0.2463
25613W        W41747  15.364   2.049  12.495  0.2382 -0.2662  0.0796
25614W        W41748   5.193  18.595  13.863  0.1602 -0.1757  0.2004
25615W        W41749   2.716   6.511   2.146 -0.0239  0.0125 -0.0030
25616W        W41750   0.795  10.066  14.857 -0.2480 -0.0811  0.1044
25617W        W41751   8.444  16.210   4.606 -0.1501  0.1024 -0.1411
25618W        W41752  10.586   9.399  13.438 -0.3915  0.0202 -0.2561
25619W        W41753  16.855   8.765   2.812  0.0084  0.1142  0.0741
25620W        W41754  14.407  14.077   1.762 -0.1618  0.0834 -0.2929
25621W        W41755   4.781   4.997  10.651 -0.1985 -0.2485 -0.2408
25622W        W41756  18.394   2.682  13.761 -0.0067  0.1249  0.1277
25623W        W41757   8.110   1.882   1.872 -0.0958 -0.0988 -0.0085
25624W        W41758   4.802  16.817   1.039  0.0603 -0.1672 -0.2886
25625W        W41759  16.205   6.975  11.317 -0.1359 -0.0962 -0.2866
25626W        W41760  16.321  18.184   0.248  0.1370  0.5445  0.1135
25627W        W41761  18.920  10.301   4.594 -0.4184  0.0839 -0.0430
25628W        W41762   2.563   0.042   2.036 -0.0164  0.1403 -0.1011
25629W        W41763   4.883   7.817  13.864  0.1762 -0.0052  0.0633
25630W        W41764   2.791   6.547   0.068  0.1236  0.1598 -0.1408
25631W        W41765  18.132  18.656   5.595 -0.0865  0.1220  0.0899
25632W        W41766   4.579   7.243  14.915  0.2813 -0.0045  0.2976
25633W        W41767  15.097  11.770  12.098 -0.2131 -0.1383 -0.5033
25634W        W41768  18.103   6.633   1.415  0.4260  0.0255  0.3645
25635W        W41769   9.778  11.345  10.385  0.1784  0.0741  0.3236
25636W        W41770   8.973  11.704   2.031 -0.3094 -0.0730  0.1522
25637W        W41771  18.514  18.572   4.086  0.0592 -0.1223 -0.2574
25638W        W41772   3.677   7.314   3.402 -0.1891 -0.1139 -0.2760
25639W        W41773   0.166   4.984   0.377 -0.0495  0.1196 -0.1066
25640W        W41774   2.838  16.640  13.595 -0.2246  0.1504  0.0293
25641W        W41775  19.035  10.953   0.102  0.0361 -0.0047  0.0060
25642W        W41776   0.863  11.675   0.240 -0.0494  0.3837 -0.0124
25643W        W41777  16.175   0.597   9.923 -0.3994 -0.3186 -0.0972
25644W        W41778   9.958  19.006  11.196 -0.1340  0.0253 -0.0110
25645W        W41779   9.651   7.242   4.529  0.0866 -0.2785 -0.1085
25646W        W41780  19.303  15.941  10.685 -0.0533  0.0972  0.0804
25647W        W41781   6.789   3.880   3.844 -0.2289  0.3786 -0.1936
25648W        W41782  14.789   1.490   3.705 -0.3896  0.0672  0.1475
25649W        W41783   9.972  18.558  13.538 -0.0526 -0.2968  0.2445
25650W        W41784  10.992   6.397   5.365  0.1940 -0.2389 -0.0241
25651W        W41785   6.330   6.277  10.771  0.0501 -0.3740  0.1039
25652W        W41786  13.826   0.019   5.582  0.1477 -0.0676 -0.0301
25653W        W41787  13.301  17.485  10.898  0.0559  0.0513 -0.1397
25654W        W41788  10.495  16.902  14.113 -0.1230 -0.0001 -0.0939
25655W        W41789  15.687   3.687   2.131 -0.0634 -0.4297  0.1735
25656W        W41790  11.650   4.540   3.173  0.3758  0.1624  0.1595
25657W        W41791  12.728   6.604   0.066  0.1862  0.3634  0.3217
25658W        W41792   7.011   8.253   1.480 -0.2654  0.1155  0.3681
25659W        W41793  11.961  18.951   0.865 -0.1779  0.0233  0.2326
25660W        W41794  10.805  13.145  11.584  0.1577  0.2417  0.2343
25661W        W41795   7.424  17.244   5.019 -0.0277  0.0616  0.0543
25662W        W41796   2.840   8.422  10.007 -0.1627 -0.2746  0.1471
25663W        W41797  14.418   3.231   1.546  0.0181  0.3117  0.0635
25664W        W41798  10.713  11.044  14.164  0.0372  0.1444 -0.1071
25665W        W41799   8.355  14.380   1.427  0.0659 -0.1121  0.3884
25666W        W41800  10.783   9.268   4.942 -0.0376 -0.0014  0.0958
25667W        W41801  15.921  14.434  12.959 -0.4037 -0.1329 -0.0228
25668W        W41802   3.717  14.492  12.379 -0.1048  0.3496 -0.3145
25669W        W41803   8.265   7.092  13.796  0.0203 -0.2145 -0.2229
25670W        W41804   4.985   6.994   1.737 -0.0318 -0.2426 -0.0548
25671W        W41805  12.203  11.858   0.859  0.0774  0.0603  0.3561
25672W        W41806   9.709   8.252   1.708  0.1699  0.0303 -0.0619
25673W        W41807   2.137  10.166  14.696 -0.0814 -0.1099 -0.0644
25674W        W41808   0.918   3.820   9.684  0.3119  0.0761 -0.1681
25675W        W41809   6.823   7.390  11.948 -0.0089  0.0683  0.1033
25676W        W41810   7.111   8.523   2.333  0.3247 -0.1059  0.0563
25677W        W41811   0.922  17.925   4.536  0.4138  0.1031  0.1522
25678W        W41812   7.791  16.183  14.294  0.0760 -0.0090 -0.2391
25679W        W41813  14.323  12.621  13.651  0.4119 -0.2178 -0.1957
25680W        W41814  18.083   4.283   0.181  0.2490 -0.5764 -0.0061
25681W        W41815  18.888  17.147  10.049 -0.4267 -0.2057  0.1924
25682W        W41816   9.066   1.188   4.029  0.1682  0.0681  0.1635
25683W        W41817   2.856   7.724   0.459 -0.2316  0.1147 -0.3490
25684W        W41818  18.048  13.982   2.761 -0.0237 -0.0760  0.1557
25685W        W41819  17.555  15.583  10.165 -0.0252  0.2038  0.0614
25686W        W41820  10.088   7.988  11.678 -0.0030  0.1513 -0.0894
25687W        W41821   9.049   7.247  13.015 -0.0557 -0.1351 -0.1813
25688W        W41822  11.580  13.683  11.110 -0.0065  0.4911 -0.3071
25689W        W41823   4.863  14.962  13.133 -0.1103 -0.5294  0.1176
25690W        W41824   9.217  16.748   0.844  0.0806  0.0124 -0.3949
25691W        W41825   5.624   3.000  12.148 -0.3048 -0.3037  0.0592
25692W        W41826   6.249  16.717  11.767 -0.0913  0.4298 -0.0575
25693W        W41827  13.454   0.756   2.620 -0.1567 -0.2625 -0.0391
25694W        W41828  13.737   3.536   4.980  0.1075  0.3194 -0.2521
25695W        W41829  11.135  13.655  13.151  0.3480 -0.3946  0.0784
25696W        W41830  16.163   9.672  14.567  0.0470 -0.0177 -0.1331
25697W        W41831   6.383  17.783  12.718  0.1273  0.0798  0.0835
25698W        W41832   1.591   3.925   1.819 -0.0288 -0.0698 -0.0464
25699W        W41833   2.011   0.179   4.422 -0.1017 -0.1249  0.0535
25700W        W41834  12.549   0.546  11.589 -0.0508 -0.0771  0.1580
25701W        W41835   4.031  14.875  13.682  0.1219 -0.1981 -0.4334
25702W        W41836  10.201   8.064   0.448  0.0227  0.0635 -0.3010
25703W        W41837   3.225  13.251   2.271 -0.0873 -0.0142 -0.0400
25704W        W41838  10.213  11.126  12.268  0.2202  0.5107 -0.1274
25705W        W41839  10.326   3.743  11.076 -0.0186  0.3071 -0.1833
25706W        W41840   4.527  14.825  10.901 -0.1505  0.1673  0.2752
25707W        W41841   5.386   7.261  11.547 -0.1688 -0.0810  0.2119
25708W        W41842  12.529  18.482   2.842 -0.0669 -0.0048 -0.2683
25709W        W41843   6.955   6.233   9.458  0.0714 -0.1244 -0.1825
25710W        W41844   7.395   4.259   9.418 -0.0308  0.2404  0.0904
25711W        W41845   7.539   4.875   4.666  0.2954 -0.2069 -0.0310
25712W        W41846  17.875  13.455  13.702  0.1959 -0.0108  0.0846
25713W        W41847   0.364  12.998  14.658  0.0161  0.1990 -0.0743
25714W        W41848   3.521  13.311   0.609 -0.0740  0.0984 -0.0980
25715W        W41849   2.664   5.365  13.203  0.0017  0.1457  0.2584
25716W        W41850  19.307   6.665  10.581  0.1552 -0.0721  0.1078
25717W        W41851  16.230   6.484   1.852 -0.1606  0.0982  0.4542
25718W        W41852   5.392  11.828  13.100 -0.0024  0.3101  0.4895
25719W        W41853   9.649  15.718   2.549  0.1130  0.1698 -0.0044
25720W        W41854   9.868  15.504   4.342  0.1043  0.0817  0.0766
25721W        W41855  12.158  13.733   2.384 -0.0703 -0.1994 -0.0676
25722W        W41856  17.787  10.408   0.116  0.0006 -0.1616 -0.1099
25723W        W41857   6.163   0.725  11.668 -0.2255 -0.2615  0.0214
25724W        W41858   7.190  17.332   4.172 -0.1760 -0.0856 -0.2902
25725W        W41859   6.262   7.903  13.425  0.1031 -0.0876 -0.2369
25726W        W41860   9.705  13.497   4.759 -0.3040 -0.2059 -0.0204
25727W        W41861   7.962   8.664  10.362 -0.4279  0.0350  0.0552
25728W        W41862  11.544  10.545   9.615 -0.0231 -0.6467  0.0606
25729W        W41863  15.901   0.629   4.267  0.0660  0.2051  0.1737
25730W        W41864   4.925   6.498  11.606  0.1556 -0.1201 -0.2113
25731W        W41865  19.294  11.874  12.951  0.1612 -0.1385 -0.0075
25732W        W41866  11.647   8.186   5.275  0.1935 -0.1919 -0.0716
25733W        W41867  16.041   9.933   0.889  0.1713 -0.2078 -0.2599
25734W        W41868   2.043  17.157  12.735 -0.0661 -0.0607 -0.0110
25735W        W41869  11.700   1.703   5.441  0.0312  0.0541  0.1088
25736W        W41870   8.094   7.052  12.882 -0.1437  0.0396  0.0069
25737W        W41871   9.451   2.349   0.312 -0.2892  0.1278 -0.2155
25738W        W41872  19.067  14.014   1.717 -0.1128 -0.0090  0.0718
25739W        W41873  18.703  16.258   1.455  0.0841 -0.3600  0.0041
25740W        W41874  12.069   6.574  10.431 -0.2310  0.2395 -0.0497
25741W        W41875  14.575   4.351   1.107 -0.0877  0.2930  0.0407
25742W        W41876   8.190  17.228   1.690  0.1378 -0.2118  0.0287
25743W        W41877  10.620  18.914   5.184 -0.2422 -0.4905 -0.0721
25744W        W41878  13.639   9.781  11.082  0.5862 -0.0139 -0.2836
25745W        W41879   2.629  17.674  12.705  0.1476  0.1266 -0.2424
25746W        W41880   6.854   8.631  13.675 -0.0442 -0.1545 -0.0917
25747W        W41881  10.092  18.622   3.999  0.3008 -0.1961 -0.0955
25748W        W41882   2.793   6.259   9.760  0.3378  0.2766  0.0695
25749W        W41883   9.186   5.061  10.393 -0.1327  0.1005  0.1323
25750W        W41884  11.419   6.251   0.265  0.2545  0.0821  0.1941
25751W        W41885   3.775  14.789  14.123 -0.0468 -0.1535 -0.0489
25752W        W41886  14.009   7.536  11.653 -0.0586  0.1317  0.2481
25753W        W41887   7.321  15.511   3.600  0.0040  0.3293  0.2604
25754W        W41888  11.089   4.886  13.491  0.4047 -0.0905 -0.3897
25755W        W41889   3.632  18.990  11.061  0.0428 -0.0036  0.1950
25756W        W41890  14.509  18.552  12.755  0.3523 -0.3114 -0.1286
25757W        W41891  14.108  15.239   0.568  0.0370  0.2600  0.1660
25758W        W41892  17.776   0.460   0.224  0.0117 -0.0361  0.1920
25759W        W41893   7.059  18.918   5.966 -0.1009 -0.1119  0.0507
25760W        W41894  17.227  15.388   2.962  0.0184  0.0015 -0.2808
25761W        W41895   4.035   9.591   3.167  0.0964 -0.0691  0.1745
25762W        W41896  16.142  16.868  11.206 -0.0871 -0.2264 -0.0958
25763W        W41897   9.379   5.421  11.519  0.3721 -0.0949 -0.0821
25764W        W41898   6.000   7.417  12.112  0.1506  0.2953 -0.2212
25765W        W41899  18.622  15.430  13.472 -0.1689  0.0431 -0.1650
25766W        W41900  10.285   0.232  14.036 -0.0675 -0.0053 -0.3364
25767W        W41901  13.951   4.077   1.771 -0.1915  0.1712  0.0598
25768W        W41902  18.993  15.258   4.439  0.3471 -0.0155 -0.0268
25769W        W41903   5.088  12.075  13.403 -0.1418  0.3319  0.0024
25770W        W41904   6.951  11.134  10.800  0.3024 -0.1808  0.1746
25771W        W41905   5.392  17.547   1.123 -0.2853 -0.1068  0.1008
25772W        W41906   8.646   6.280   9.649  0.1046 -0.0691 -0.0477
25773W        W41907  10.001   6.656  12.972  0.0158 -0.1742 -0.2338
25774W        W41908  18.446  18.911   2.050  0.1025  0.2980 -0.1589
25775W        W41909  10.150   4.559  12.166 -0.0478  0.3903 -0.0632
25776W        W41910  12.381  10.444  11.417 -0.2431 -0.3498  0.1190
25777W        W41911  10.690   4.584  10.508  0.0152  0.1793 -0.0708
25778W        W41912   5.031  18.362  11.089 -0.0413 -0.0268  0.2145
25779W        W41913   2.093  11.390  10.910  0.2746  0.1956  0.0476
25780W        W41914  17.277  13.888   9.318  0.3355 -0.1201 -0.0101
25781W        W41915   6.961   5.551   2.389  0.2019 -0.1899 -0.2248
25782W        W41916   1.024   8.996   3.278 -0.0657  0.0664 -0.3474
25783W        W41917  14.537   3.827   1.736  0.4076 -0.1917 -0.0772
25784W        W41918  14.101  10.697  10.742 -0.0495  0.3411  0.2821
25785W        W41919   4.357  14.084  13.023  0.1612  0.1734 -0.3249
25786W        W41920   6.562   8.326   5.326  0.1490 -0.4562  0.2478
25787W        W41921   6.441   1.998  13.072 -0.0163  0.1538 -0.1576
25788W        W41922  18.504  10.750   0.888 -0.1727  0.0378 -0.1921
25789W        W41923  13.142   3.785  11.832  0.1558 -0.3401  0.1499
25790W        W41924  14.154  18.466  13.815 -0.2799 -0.0581 -0.2025
25791W        W41925  15.112  13.819  11.426  0.0033 -0.0043 -0.1478
25792W        W41926  13.675  16.859   3.571 -0.1711  0.1346  0.2943
25793W        W41927   3.427  13.818   2.200  0.0878  0.1385  0.3981
25794W        W41928   0.294  16.055   2.086 -0.1099  0.0551  0.1135
25795W        W41929   3.490   3.281   0.175 -0.0496 -0.1249  0.0595
25796W        W41930  17.385  18.953  14.840 -0.1587  0.1642  0.1632
25797W        W41931  12.598   8.043  13.812 -0.1534  0.0936  0.1426
25798W        W41932   3.402  17.231  12.960 -0.0916 -0.0543 -0.1584
25799W        W41933   6.662  18.286  14.756 -0.0770 -0.1745 -0.0609
25800W        W41934   6.398   1.215   1.743 -0.0872  0.1720  0.0584
25801W        W41935   9.607  10.324  13.978 -0.0184 -0.0383  0.0484
25802W        W41936   9.782   0.828   4.350  0.2755  0.2332 -0.0313
25803W        W41937  17.831   8.531  11.214  0.0605 -0.0320 -0.1705
25804W        W41938   7.684  10.426  11.817  0.2309 -0.1761 -0.1074
25805W        W41939   6.518   7.369   2.687  0.2816  0.1088 -0.1036
25806W        W41940  17.041  16.196  11.760  0.0710  0.2481 -0.2719
25807W        W41941  18.516   5.991   3.599  0.2207 -0.0815  0.3029
25808W        W41942   5.037  17.256   1.928 -0.0353 -0.2078 -0.0827
25809W        W41943  14.245   2.799  13.330 -0.0832 -0.1221 -0.2493
25810W        W41944  10.270  14.883  12.918 -0.0370  0.2673  0.4111
25811W        W41945  14.827  15.094  10.180  0.1237 -0.0644 -0.1839
25812W        W41946   1.913  13.820  13.721  0.1233  0.0792 -0.0196
25813W        W41947  16.545  13.581   0.269  0.3578 -0.0120  0.2470
25814W        W41948  17.742   2.315  11.823 -0.4764  0.1102 -0.6012
25815W        W41949  14.524  10.310   4.773  0.0612  0.2236 -0.0758
25816W        W41950   9.156   8.560   3.255  0.2185 -0.0505  0.0921
25817W        W41951  14.820   8.097   4.290 -0.2287  0.0243 -0.2480
25818W        W41952   9.868   0.501   1.107 -0.0467 -0.2611 -0.1114
25819W        W41953  12.778   0.364  11.093  0.0556  0.1043  0.2555
25820W        W41954  11.894  17.476   3.683  0.0508  0.0275 -0.1913
25821W        W41955   1.282  14.977   2.895 -0.2469 -0.0098 -0.0531
25822W        W41956  18.348  15.993   1.708 -0.1185  0.2287 -0.0492
25823W        W41957  12.038   6.771   3.954  0.3318 -0.0704 -0.2345
25824W        W41958   0.101  19.160   0.408  0.0412 -0.0810  0.0064
25825W        W41959   4.220  15.492   9.833 -0.2545 -0.0787 -0.0798
25826W        W41960  11.596  16.898  12.453  0.2609  0.0377  0.1550
25827W        W41961   2.747   0.280  11.920 -0.0894  0.2653 -0.2624
25828W        W41962   7.421  17.429  14.888  0.1697 -0.0918  0.3569
25829W        W41963   7.948   9.946   4.210 -0.4349  0.1199  0.1829
25830W        W41964   0.870  12.592  12.278  0.0449  0.2678 -0.2635
25831W        W41965  12.468   6.983  14.871 -0.0902  0.0879 -0.2477
25832W        W41966  16.032  18.268  12.375 -0.1101  0.1325 -0.1787
25833W        W41967  13.139   2.550   0.689  0.1640 -0.0944  0.0948
25834W        W41968   1.648   5.463   0.298 -0.1463 -0.2227  0.0585
25835W        W41969   6.878   6.278  10.570  0.1740 -0.3183 -0.0826
25836W        W41970  11.012   1.423  12.691 -0.2696 -0.0266  0.1395
25837W        W41971  17.579  11.893   2.576 -0.0869  0.1742  0.0949
25838W        W41972  10.935  10.337   3.345 -0.0768 -0.2456  0.1877
25839W        W41973   7.757  16.540   5.616  0.1352  0.1447  0.5207
25840W        W41974   2.041   1.216   2.260 -0.2903  0.0514  0.0671
25841W        W41975  15.857   2.898  11.457 -0.1482  0.1480  0.1573
25842W        W41976   1.111  15.427  10.728  0.2009 -0.2129  0.2223
25843W        W41977   9.806   9.221  13.195  0.0002 -0.3076 -0.4033
25844W        W41978  15.595  13.469  12.034  0.1048 -0.2348  0.0801
25845W        W41979  13.251   4.561   3.051 -0.2091 -0.0224 -0.1116
25846W        W41980   5.721   1.724   5.088 -0.1448 -0.0928  0.2933
25847W        W41981   5.957   7.424   2.843  0.1762 -0.1760  0.1516
25848W        W41982   4.675  17.873   3.446 -0.0876 -0.0223  0.4838
25849W        W41983   0.066   3.997   0.706 -0.1631 -0.1307  0.0962
25850W        W41984  15.520   4.827   1.714  0.1327  0.3521  0.1091
25851W        W41985  19.210   4.742  11.915 -0.0422  0.3368 -0.0854
25852W        W41986  11.707   9.383   9.633  0.1764  0.2032 -0.2196
25853W        W41987  14.628  17.053   0.819  0.2382 -0.2212  0.1461
25854W        W41988  11.962  11.794   5.297 -0.0507  0.0735 -0.2218
25855W        W41989   1.186  11.653  13.999  0.2348 -0.1945 -0.1516
25856W        W41990  13.497   8.932   0.782 -0.0236 -0.0742 -0.2265
25857W        W41991  13.020  15.448   2.193 -0.0892 -0.0678  0.1445
25858W        W41992  14.185  13.140   4.584  0.2604  0.1948 -0.1638
25859W        W41993  11.666  11.843   0.126  0.0177  0.1191 -0.2798
25860W        W41994   8.995  17.795  12.520  0.1501 -0.0972 -0.1107
25861W        W41995   4.773  11.735   0.607 -0.1441  0.0470  0.0271
25862W        W41996  14.702  13.507  14.719  0.1610 -0.0897 -0.0413
25863W        W41997   9.013  10.031   0.686 -0.1660  0.3312 -0.4398
25864W        W41998  16.999  11.293  10.962 -0.1551 -0.0075 -0.2358
25865W        W41999   0.670  13.357  14.823  0.0654  0.0727 -0.1194
25866W        W42000   1.578   1.295  13.636  0.0420  0.0746 -0.0877
25867W        W42001  18.488   2.147   2.947  0.2486 -0.0674  0.2269
25868W        W42002  13.615   2.359   3.272 -0.2208 -0.2271 -0.3224
25869W        W42003  16.778  16.674  12.440 -0.0254 -0.1219  0.0522
25870W        W42004   3.456  18.434   4.570  0.1265  0.1923 -0.1037
25871W        W42005  16.259  12.596   1.062  0.0712  0.0822 -0.0430
25872W        W42006  11.739  12.385   1.126 -0.0037  0.1939 -0.1031
25873W        W42007  16.425  16.198  13.095 -0.0162 -0.1839 -0.3395
25874W        W42008  19.092   2.002   9.894 -0.1340  0.1344  0.2682
25875W        W42009   7.271  10.990   5.030 -0.2967 -0.0965  0.1306
25876W        W42010  16.071   4.532   1.854 -0.0388 -0.2053  0.0598
25877W        W42011  19.205  13.621   2.296  0.4270 -0.0231 -0.0644
25878W        W42012   7.648  16.846   0.221  0.1607  0.1817  0.0346
25879W        W42013   1.853  17.559   2.981 -0.0277  0.1335 -0.0457
25880W        W42014  17.346   6.653   4.191  0.2178 -0.2839 -0.1926
25881W        W42015   6.140  12.844  13.465 -0.0144 -0.3035 -0.1093
25882W        W42016  10.513   6.927  13.786 -0.3091  0.2032 -0.0715
25883W        W42017   3.040  13.834   3.562 -0.0103  0.3704 -0.0444
25884W        W42018   7.321   7.888   4.929  0.1694  0.0480 -0.0059
25885W        W42019   1.317  12.108   4.254  0.2409 -0.2493 -0.1078
25886W        W42020   3.051  12.733   3.596  0.1640  0.2117  0.2597
25887W        W42021  12.312   4.023   2.000  0.0508  0.1315  0.1416
25888W        W42022  12.254   0.358   1.657 -0.2715 -0.1855  0.0139
25889W        W42023   4.024   2.708   4.454  0.1458  0.1006 -0.0237
25890W        W42024   7.222  10.908  12.349 -0.0076 -0.1848  0.1910
25891W        W42025   1.768   3.483  12.849  0.1317 -0.0908 -0.1061
25892W        W42026   5.521  10.588  13.423  0.1960 -0.1092  0.0311
25893W        W42027  18.529   3.910   4.937  0.3857  0.0027  0.3299
25894W        W42028  12.619  16.356   1.295 -0.1265 -0.0028 -0.0478
25895W        W42029   3.487   5.476   2.208  0.1983 -0.2445 -0.1619
25896W        W42030   0.345   1.342   4.764  0.1739  0.4791  0.1246
25897W        W42031   8.473   2.210   1.462 -0.0024 -0.1789 -0.1404
25898W        W42032  16.589   5.513   3.852  0.0080  0.1796  0.0522
25899W        W42033   6.725  11.314  10.233 -0.0314  0.1330  0.0400
25900W        W42034   2.378   8.359  10.200 -0.4307 -0.1131 -0.0356
25901W        W42035   0.189  15.152  12.505 -0.0533  0.0789 -0.2042
25902W        W42036   4.040   0.310  12.376  0.2065 -0.0038 -0.0116
25903W        W42037  17.003   2.038   4.313  0.0023  0.2676 -0.1302
25904W        W42038   5.440  14.103  13.187 -0.3927  0.0063 -0.1137
25905W        W42039  11.657  14.384   1.772 -0.0339 -0.0960 -0.3509
25906W        W42040   7.919   4.015   0.481  0.0228 -0.0572  0.0036
25907W        W42041  15.907   5.551  12.310  0.1279 -0.0826 -0.3209
25908W        W42042  16.329  14.178  11.719 -0.2896  0.0885  0.0323
25909W        W42043  15.185   6.123   4.528 -0.0239 -0.2455  0.1206
25910W        W42044  12.572  16.103  14.485 -0.0240  0.0777  0.1267
25911W        W42045   2.487   6.276   1.544 -0.0106 -0.1097 -0.1483
25912W        W42046   3.668  12.965   3.362  0.3067  0.2269 -0.2423
25913W        W42047   3.402   1.707  12.046 -0.0546 -0.0707  0.0499
25914W        W42048   5.361   7.790  11.608  0.0066 -0.0167 -0.2503
25915W        W42049   9.685  14.891   0.169 -0.0939  0.0234  0.0778
25916W        W42050   8.538  13.959  12.826  0.0237  0.1763 -0.0231
25917W        W42051  11.225  12.246  13.960  0.0124 -0.1804 -0.2408
25918W        W42052  17.070   5.480  11.400  0.0674  0.2130 -0.1636
25919W        W42053  12.518   9.672   1.951  0.1368 -0.1562  0.0262
25920W        W42054  14.389  13.174   2.204  0.0879  0.0923  0.1507
25921W        W42055  16.797  15.716   5.528  0.4147  0.0507  0.3416
25922W        W42056  12.929  15.763   4.940  0.3054  0.1413 -0.1849
25923W        W42057  17.294   0.208  11.599  0.0667  0.1424  0.1422
25924W        W42058  17.717   6.031  12.528  0.2993  0.0577  0.1700
25925W        W42059   9.074   2.464  14.474 -0.0180 -0.0303  0.3806
25926W        W42060  16.765  14.204   2.099  0.0945 -0.0623  0.0139
25927W        W42061   7.326   6.912  13.443  0.3582 -0.0572 -0.0741
25928W        W42062  12.563   9.745  12.985 -0.3246 -0.0958 -0.0182
25929W        W42063   5.840  19.026   5.367  0.1834  0.0496 -0.2389
25930W        W42064   0.686   9.467   3.937 -0.0956  0.4395  0.1857
25931W        W42065   2.037  16.197   5.350 -0.2812 -0.2600  0.2814
25932W        W42066  13.781   5.914  10.754  0.4391 -0.1087 -0.3324
25933W        W42067  12.487  16.807  12.759 -0.2345  0.0344 -0.3826
25934W        W42068   1.615   6.922   0.380 -0.2329 -0.1346 -0.1116
25935W        W42069  11.063   5.089   2.822 -0.1877 -0.1145  0.0194
25936W        W42070  11.035   1.874  11.242 -0.0730  0.0177  0.1349
25937W        W42071   3.573   3.919  11.402 -0.1711 -0.1158 -0.0742
25938W        W42072  17.968   7.893   2.601  0.5369  0.1049  0.0313
25939W        W42073   7.271   1.297   4.859 -0.0424  0.0861  0.0567
25940W        W42074   6.060  14.649  14.623  0.1730 -0.2354  0.1265
25941W        W42075  11.276   9.773  10.348  0.0117 -0.1472  0.0094
25942W        W42076  10.387  17.393   5.515 -0.1471 -0.0841  0.4077
25943W        W42077  13.096   2.556   4.476  0.0651  0.3589 -0.1949
25944W        W42078   9.622   9.711  10.888 -0.2014 -0.0728 -0.0228
25945W        W42079   2.901  15.001  14.722 -0.0070 -0.0776 -0.1720
25946W        W42080  11.941   4.327   0.912 -0.2362 -0.1125  0.1321
25947W        W42081   3.653  11.607  10.206  0.1325  0.2242 -0.1198
25948W        W42082  10.928   1.397  11.677  0.1493  0.3716 -0.1420
25949W        W42083  17.855  13.328  11.180  0.2293 -0.0201 -0.2845
25950W        W42084   5.980   9.834  11.353 -0.0390  0.2052 -0.2042
25951W        W42085  13.911   3.104   1.555  0.2241  0.1611 -0.0112
25952W        W42086   7.915   6.153  12.884  0.0845 -0.2873 -0.0176
25953W        W42087   6.221   6.949   2.559  0.2803 -0.2496  0.1788
25954W        W42088   3.839   9.712  11.702  0.3416 -0.0882  0.3358
25955W        W42089   8.735  10.401   2.806  0.3584  0.1572 -0.2564
25956W        W42090  13.918   9.228  14.509 -0.1921  0.2136 -0.3623
25957W        W42091  15.494  14.958   1.890 -0.3719 -0.2413  0.0082
25958W        W42092   9.417   4.123  14.505  0.1211  0.4840 -0.2357
25959W        W42093   4.410  14.808   4.217  0.1902 -0.0255  0.0318
25960W        W42094   2.247   0.912  11.762 -0.1275 -0.0588  0.0149
25961W        W42095  14.244  10.488   3.142 -0.1067  0.2340 -0.2187
25962W        W42096  17.388  13.515   0.765  0.1959 -0.0951 -0.0402
25963W        W42097  17.825   4.692  13.783 -0.1246  0.3054  0.1030
25964W        W42098   5.216  17.776   3.605  0.1571  0.1520 -0.2529
25965W        W42099   4.837  11.141  11.464  0.0891  0.1029 -0.0826
25966W        W42100   3.338   8.721   1.682  0.3232 -0.0111 -0.0644
25967W        W42101  14.502  12.861  12.285 -0.1620  0.0298 -0.1764
25968W        W42102   1.634   3.943  10.557  0.0107 -0.2774 -0.1308
25969W        W42103  19.256   3.390   1.779 -0.0118  0.0980  0.2433
25970W        W42104   2.116  18.368  13.736 -0.0063 -0.1284  0.1878
25971W        W42105   2.863  11.101   3.640  0.2483 -0.2510 -0.0483
25972W        W42106   7.089  11.703   5.043 -0.1958 -0.0614 -0.0763
25973W        W42107   1.212   5.715   1.677 -0.1799  0.1862  0.0899
25974W        W42108   5.606   4.368   2.056  0.0578  0.2380 -0.0196
25975W        W42109   2.199  14.240   2.733 -0.0114  0.4761 -0.2681
25976W        W42110  16.350  13.865  13.341 -0.1761 -0.3020 -0.2817
25977W        W42111   7.248   2.077   9.472  0.0963 -0.3460 -0.1877
25978W        W42112  12.700   4.376  13.643 -0.0355  0.3879 -0.2276
25979W        W42113   1.678  13.632  11.953 -0.2035  0.1072  0.2474
25980W        W42114  13.900   7.505  13.790 -0.2331 -0.3254  0.1008
25981W        W42115  17.557  14.303  12.015 -0.3905 -0.5340  0.2232
25982W        W42116  13.590   9.244   4.631  0.2247  0.1675 -0.0350
25983W        W42117   3.860  17.720   1.103 -0.2302  0.0915  0.0522
25984W        W42118  14.391   7.343   5.318  0.1708 -0.2901 -0.0120
25985W        W42119   0.383  15.239   5.869  0.2296 -0.4028  0.2563
25986W        W42120  12.778  16.434  12.993 -0.2395  0.1237 -0.2186
25987W        W42121   4.953  10.402  11.291  0.0544  0.0248  0.2373
25988W        W42122   8.980   0.983  11.739  0.1004  0.0700 -0.3553
25989W        W42123  19.162  19.279  14.649 -0.2709 -0.1852  0.1278
25990W        W42124   2.836   8.572  10.451 -0.3449  0.0789  0.0611
25991W        W42125   1.934   7.484  10.942  0.0697 -0.0561 -0.0291
25992W        W42126  12.809   4.961   0.740 -0.2045  0.0760  0.0714
25993W        W42127   1.172  17.806   4.976  0.3024  0.0431  0.0259
25994W        W42128  13.694  11.561  12.041  0.0537  0.0628 -0.1654
25995W        W42129  18.367  13.182  12.202  0.1688 -0.2879 -0.1026
25996W        W42130  15.067  11.492  14.244  0.0121 -0.1377  0.2485
25997W        W42131  17.301  14.796  12.496 -0.1017  0.1410 -0.0012
25998W        W42132   1.356  18.669   5.414  0.2438  0.0409  0.1112
25999W        W42133   7.866   1.838   4.811 -0.2126 -0.0113  0.4023
26000W        W42134   7.544  17.328  12.573  0.1134  0.0526  0.1513
26001W        W42135   5.409   5.996  10.923  0.2190 -0.0287 -0.2516
26002W        W42136   4.094  14.616   0.153 -0.2767 -0.2503 -0.0225
26003W        W42137   1.501  10.888  13.695  0.2371 -0.0703 -0.1110
26004W        W42138   6.123  15.562  13.632  0.1340  0.2403  0.0293
26005W        W42139  10.349   1.653  12.861  0.0524  0.0526  0.2757
26006W        W42140   2.590  13.588   1.638 -0.0613 -0.3081  0.2209
26007W        W42141  15.938  12.167  11.861  0.3694 -0.0342  0.2255
26008W        W42142   8.807   5.453   5.430 -0.1745  0.2521 -0.0047
26009W        W42143  16.201   9.569   3.098  0.1322 -0.2536 -0.4169
26010W        W42144   7.692  13.376  11.281  0.1838  0.1262 -0.1904
26011W        W42145   0.755  10.773  12.640 -0.0619 -0.2140 -0.1642
26012W        W42146  17.027   3.227   1.926  0.1361 -0.0224  0.1711
26013W        W42147  16.193  12.070   1.214 -0.1633 -0.3857 -0.0308
26014W        W42148  12.611   9.294  13.926  0.0750  0.1475  0.2128
26015W        W42149  18.880  15.514   2.196  0.0568  0.2166  0.1092
26016W        W42150  16.621   0.201  13.897 -0.1624 -0.0821  0.0132
26017W        W42151  14.165  18.254  12.420  0.0984 -0.1715 -0.0595
26018W        W42152   8.970   9.988   4.058  0.1486  0.2235 -0.0488
26019W        W42153  10.057   8.849   3.648 -0.0256 -0.0895  0.0694
26020W        W42154   2.586   8.392  13.319  0.0907  0.1615  0.1443
26021W        W42155  15.733   7.004  10.668  0.0393 -0.3371  0.0106
26022W        W42156   9.774  12.208   1.607  0.2013 -0.3149 -0.2259
26023W        W42157  10.323  11.197   0.896  0.1522  0.0937 -0.3696
26024W        W42158  18.991   0.851   4.404 -0.3071 -0.2382 -0.2640
26025W        W42159  11.182   7.309  14.948  0.2106 -0.1784  0.1148
26026W        W42160  15.115   5.810   4.050 -0.1023 -0.0283 -0.1775
26027W        W42161   0.952  11.039  12.274  0.3405  0.4338  0.0261
26028W        W42162   6.911  10.548  13.380  0.0429 -0.3034  0.2908
26029W        W42163  10.323  14.878   1.281 -0.2747 -0.3444 -0.3047
26030W        W42164   5.112  14.887  13.634 -0.0570  0.0743  0.0348
26031W        W42165   0.892   7.776  10.428  0.1146  0.1541 -0.1703
26032W        W42166   3.854   8.259   5.242  0.1861 -0.1077 -0.2565
26033W        W42167   7.431  16.921  12.928 -0.2190  0.2617  0.0720
26034W        W42168   3.821  14.603   4.798 -0.1944 -0.2697  0.0022
26035W        W42169   3.926  13.153  11.707  0.1089  0.0369 -0.0043
26036W        W42170   1.629   4.737   9.866 -0.0194  0.0167  0.0712
26037W        W42171  12.188   6.126  12.831  0.0043 -0.1052 -0.1002
26038W        W42172   1.556   8.636  12.359 -0.0671 -0.1428 -0.0383
26039W        W42173   6.991  11.638   2.812 -0.0979  0.1418 -0.1423
26040W        W42174   8.079  14.580   2.389 -0.1298 -0.3562  0.2759
26041W        W42175  14.723   7.718   2.739 -0.1136  0.0380 -0.2389
26042W        W42176   4.680  13.991   2.666 -0.1509 -0.3341  0.4014
26043W        W42177  18.204   0.241   5.563  0.2769 -0.0238 -0.7187
26044W        W42178   3.746  13.587  11.616 -0.1397 -0.2056 -0.0667
26045W        W42179   6.573  11.824  13.302 -0.2668  0.0432 -0.2398
26046W        W42180   6.773   2.887   3.185 -0.0087 -0.2435 -0.1881
26047W        W42181  14.222   7.517   4.333 -0.0078 -0.0545  0.3959
26048W        W42182  11.465  12.322   0.625  0.1380  0.0284  0.0711
26049W        W42183   2.341   2.811  10.203 -0.0920  0.1336 -0.3878
26050W        W42184  16.184   0.573   3.777 -0.1668 -0.1691 -0.1902
26051W        W42185   9.094   7.107   2.693 -0.2419  0.2565 -0.1859
26052W        W42186  14.661   5.689   1.269  0.2267 -0.1087  0.0686
26053W        W42187  12.932   3.776   3.973 -0.0659  0.1233 -0.1286
26054W        W42188   5.930  15.336  10.615  0.0552  0.1451 -0.1767
26055W        W42189   4.500   3.396  10.296  0.0939  0.1033  0.2066
26056W        W42190   3.047   1.455   1.150 -0.1513 -0.1814  0.2737
26057W        W42191   4.444  14.972   1.831 -0.3597 -0.4499  0.1815
26058W        W42192   3.981  18.678   2.530  0.0313  0.0865 -0.1691
26059W        W42193  18.587  13.676  12.322  0.1638  0.2317  0.0472
26060W        W42194  18.800   8.600  14.513 -0.0936 -0.1849 -0.0874
26061W        W42195  17.082   5.587   3.524  0.1820  0.0448  0.0032
26062W        W42196   4.523  18.262   4.606 -0.0323 -0.1610 -0.1258
26063W        W42197  18.880  15.882   1.752  0.3711 -0.1167 -0.2900
26064W        W42198  17.931  11.121   5.046 -0.3551 -0.0941 -0.0551
26065W        W42199   6.049  11.467  12.950  0.1822 -0.1567  0.2074
26066W        W42200  18.977   3.712   0.671 -0.0804 -0.0622 -0.2971
26067W        W42201  17.938   5.554  14.477 -0.2330 -0.1428  0.0091
26068W        W42202   3.843   4.458  11.286  0.0392 -0.0917  0.1681
26069W        W42203  10.496  10.290  12.773  0.1435 -0.0751 -0.0082
26070W        W42204  17.656  12.948  12.493 -0.0330 -0.3683  0.0786
26071W        W42205  14.464   9.282   0.807 -0.1598 -0.0824  0.4500
26072W        W42206   5.813   4.267   4.557 -0.3419 -0.0650 -0.2676
26073W        W42207  18.160   5.726  12.215 -0.1820  0.0009 -0.0108
26074W        W42208   8.737  14.313  11.413 -0.0001  0.1107  0.1413
26075W        W42209  12.311   2.379  11.171 -0.2877 -0.0392 -0.2763
26076W        W42210  13.386  10.833  12.561 -0.2669 -0.2546 -0.0450
26077W        W42211   7.077  13.419   5.297  0.1824  0.1060  0.0006
26078W        W42212  18.996   4.449   3.132  0.0607  0.1055  0.1107
26079W        W42213  18.474  11.259   3.962  0.1336  0.2026  0.1639
26080W        W42214  16.085   8.726  11.557  0.1945 -0.0918 -0.1074
26081W        W42215   5.294  10.295  12.239  0.0082  0.1339 -0.1199
26082W        W42216   8.303   3.248  12.545  0.0599  0.3440 -0.0654
26083W        W42217  10.484   5.418   1.016  0.1112 -0.1198  0.1023
26084W        W42218   9.496  18.502   1.938  0.0702 -0.4074  0.4052
26085W        W42219  15.279   2.013   5.186  0.1767 -0.0480  0.4340
26086W        W42220   9.700  17.036  11.627 -0.0955 -0.0764 -0.0355
26087W        W42221  18.139   5.486   0.354 -0.0242 -0.0676 -0.0144
26088W        W42222  15.912  16.040   3.639  0.1724 -0.0563 -0.2341
26089W        W42223  17.160   6.443  13.432  0.3686  0.0140 -0.0459
26090W        W42224   7.745  16.695  14.253  0.0550 -0.1002  0.1178
26091W        W42225   4.963   1.128  13.165 -0.1965 -0.3395 -0.1632
26092W        W42226   6.803   4.239  10.340  0.3117  0.0559  0.0336
26093W        W42227   5.344  12.014  11.848 -0.1604 -0.2789 -0.0910
26094W        W42228   3.609  15.020   3.067 -0.0754 -0.1271  0.0183
26095W        W42229  14.949   5.467   3.170 -0.0840 -0.1448  0.0265
26096W        W42230   2.257  16.476   4.012 -0.0870 -0.3350  0.1984
26097W        W42231  16.513  10.185   3.736 -0.1383  0.1904  0.0774
26098W        W42232  16.543  12.772   0.701 -0.1172 -0.0659 -0.1397
26099W        W42233   8.988  16.528   4.968 -0.0074  0.1427 -0.1377
26100W        W42234   0.524  18.898   2.137 -0.1613 -0.0794  0.1973
26101W        W42235  14.661  15.252   2.998  0.0333 -0.3833 -0.0450
26102W        W42236  12.885   9.857   1.497  0.0419 -0.0101  0.2482
26103W        W42237  16.845  12.481  10.324  0.3065  0.2704 -0.0146
26104W        W42238   8.359  12.632  13.079 -0.1643 -0.1554 -0.0843
26105W        W42239   1.033   1.746   4.363 -0.1302  0.1604  0.0922
26106W        W42240  14.995  15.639   0.427 -0.0132 -0.1696  0.0549
26107W        W42241   3.198  12.053  10.841 -0.0491  0.0489 -0.2697
26108W        W42242  13.262  10.656   2.331 -0.3710 -0.2141 -0.2379
26109W        W42243  13.960  17.244   3.797  0.1350  0.0978 -0.1761
26110W        W42244  14.349  15.724   2.049 -0.1516  0.1551  0.1253
26111W        W42245  18.741   9.896  11.974  0.4204 -0.0609 -0.0298
26112W        W42246   6.393  15.265  13.898 -0.0197  0.4430 -0.0300
26113W        W42247  10.481   2.572  13.781 -0.0301 -0.2460 -0.2658
26114W        W42248  19.128  17.188   4.849  0.0192 -0.1638  0.1475
26115W        W42249   2.180   5.177   4.018 -0.1372  0.0438  0.0244
26116W        W42250   0.843   5.474   4.759  0.0406  0.1680  0.1596
26117W        W42251  14.454   7.471  14.356 -0.3211  0.0828 -0.3055
26118W        W42252   7.088  13.395   3.278 -0.2195  0.0642 -0.0463
26119W        W42253   0.423   3.639  11.147  0.0203 -0.0392 -0.0041
26120W        W42254  14.821   4.288  12.198  0.0170  0.1117  0.0407
26121W        W42255  11.975   8.658  12.552  0.1704  0.4034 -0.1596
26122W        W42256  16.023  14.315  13.652  0.1031  0.0103  0.1827
26123W        W42257  18.792   3.813  10.416 -0.2401 -0.0415 -0.2867
26124W        W42258   8.218   4.337   3.671  0.2139  0.0782  0.0564
26125W        W42259   5.008   7.670   9.840 -0.0969 -0.1178  0.2374
26126W        W42260   9.059   5.478  13.281  0.3510  0.0205 -0.2217
26127W        W42261  15.114  16.094   0.215  0.0943  0.1263  0.2820
26128W        W42262  17.603   8.201  14.271  0.0823  0.3796  0.1512
26129W        W42263   9.836  11.397   9.892  0.2129 -0.3214  0.1838
26130W        W42264  17.881   1.123  12.224  0.1126  0.0446 -0.0451
26131W        W42265   9.028  14.342  12.275  0.1058  0.0247 -0.3512
26132W        W42266   4.207   8.046   3.191  0.0935  0.5706 -0.1037
26133W        W42267   7.987  14.590   6.172 -0.1493  0.0195  0.1773
26134W        W42268   5.737  11.922  10.702 -0.0447 -0.4018 -0.1429
26135W        W42269   1.326   5.788   5.449  0.0568 -0.2980  0.1298
26136W        W42270  13.706  17.719   1.243  0.0189  0.0879 -0.2277
26137W        W42271   5.955   0.836  10.983  0.1114  0.0383  0.4415
26138W        W42272   8.819  10.123  11.040  0.0405  0.4726  0.1665
26139W        W42273  15.082  14.946   1.143 -0.4481 -0.2669 -0.0659
26140W        W42274  11.545   8.864  10.875  0.1191 -0.0506  0.2236
26141W        W42275   7.259   7.574   3.275  0.3737 -0.2408  0.1688
26142W        W42276   9.621   3.729  14.855  0.1693 -0.1723 -0.2817
26143W        W42277   8.966  10.521   0.783  0.1355 -0.3666  0.2152
26144W        W42278   9.073   4.790  14.085 -0.0922 -0.2219  0.3164
26145W        W42279   9.768   8.946  12.105 -0.1369  0.4259 -0.1417
26146W        W42280  13.034  12.061  11.422 -0.0471  0.1287  0.0941
26147W        W42281  11.195  18.934  10.834 -0.2571  0.0668  0.0821
26148W        W42282  18.387  11.435  13.980  0.0866 -0.1829  0.0596
26149W        W42283   4.040  13.170   1.602  0.2265  0.1572 -0.0336
26150W        W42284   5.701   6.831  11.392  0.1080  0.0647  0.2181
26151W        W42285  18.814  13.324   2.425 -0.0806  0.0226  0.0065
26152W        W42286   9.520  16.810   0.400  0.2510 -0.1201  0.0987
26153W        W42287  15.586   2.467   3.464 -0.1764 -0.0507 -0.0741
26154W        W42288   6.312  15.900   2.961  0.1048  0.0680 -0.1766
26155W        W42289   4.766  10.281  12.426  0.0058 -0.0748  0.0728
26156W        W42290  13.254  13.999  13.614  0.0492  0.0765  0.1605
26157W        W42291  14.886  17.421  13.418 -0.2438  0.0679  0.1004
26158W        W42292   3.383   3.355   2.169 -0.2943 -0.1660  0.0025
26159W        W42293   4.724  10.520  13.926  0.1059  0.1939 -0.0058
26160W        W42294  15.646   5.025  12.234  0.0810 -0.3075 -0.1137
26161W        W42295  16.765  18.559   2.243 -0.0826  0.0368 -0.0363
26162W        W42296   0.708  15.456  12.410 -0.3979  0.5372 -0.2812
26163W        W42297  15.499  10.730  14.792 -0.1595 -0.1178  0.1059
26164W        W42298   5.240  13.347   3.801  0.3521  0.0299 -0.0803
26165W        W42299   6.591   7.603  14.463  0.0957  0.1704 -0.1083
26166W        W42300  12.240  12.048  14.113 -0.1748 -0.0914  0.0854
26167W        W42301   0.017   5.177   1.979 -0.1347  0.4715 -0.2682
26168W        W42302  16.698   6.063  10.088  0.1348 -0.2767  0.0495
26169W        W42303  17.436   8.170  10.678  0.3219 -0.1400  0.2005
26170W        W42304  11.775   8.983   3.584 -0.0007  0.1415 -0.3120
26171W        W42305  12.404   3.714  14.859 -0.0306 -0.1100 -0.1324
26172W        W42306   7.721   2.975  14.107  0.0220 -0.2765 -0.1457
26173W        W42307   7.373   7.599   9.843  0.0065 -0.3500 -0.0833
26174W        W42308  14.339  11.452   4.020 -0.2435  0.0058  0.0879
26175W        W42309   2.816   4.942  11.000  0.2925  0.2581  0.2753
26176W        W42310  18.276  16.327   2.869 -0.1318  0.0416 -0.1188
26177W        W42311   4.592   1.091   2.442 -0.0055  0.2893 -0.2394
26178W        W42312   1.131   8.569   4.027  0.1704  0.0648  0.2043
26179W        W42313   3.890  14.124   1.868 -0.0406 -0.1596 -0.0431
26180W        W42314  13.819  11.557  12.569  0.3920  0.3009 -0.0207
26181W        W42315   7.736   4.380   0.817  0.0751 -0.1027  0.2460
26182W        W42316  12.103   9.993   5.257 -0.0406  0.0486 -0.1764
26183W        W42317  11.127   9.312   5.294 -0.1387 -0.1706  0.1490
26184W        W42318   1.704  13.422   1.381 -0.0080  0.1449 -0.1169
26185W        W42319   1.379  13.259   9.693  0.1459  0.1023  0.2985
26186W        W42320  12.439  10.210  13.186  0.0408 -0.2014 -0.0320
26187W        W42321  12.874   7.200  11.594  0.1912  0.2312 -0.2390
26188W        W42322   0.131  11.187  11.892 -0.0936  0.0377  0.0403
26189W        W42323  16.758  14.046  14.674 -0.2044 -0.0668  0.1436
26190W        W42324   5.020   9.866   1.625  0.1276  0.3334  0.2622
26191W        W42325  13.964   1.383  11.124  0.3551  0.1198  0.1220
26192W        W42326  14.801   0.599   3.463 -0.2456  0.1885  0.2631
26193W        W42327   1.214   3.918  10.873 -0.2581 -0.1109  0.2368
26194W        W42328  13.093  18.278  13.225  0.2916  0.3026 -0.0961
26195W        W42329  14.953  10.476  13.819  0.0121  0.0439 -0.1522
26196W        W42330  11.907  10.843   5.565 -0.1630  0.2776 -0.3212
26197W        W42331  13.787  14.832   3.211 -0.0402  0.1658  0.1956
26198W        W42332  16.039   2.601   3.346 -0.0825  0.0064 -0.2079
26199W        W42333   8.782   9.726  12.481 -0.1272 -0.1212  0.0840
26200W        W42334   5.125  12.053  12.473 -0.0555  0.1822 -0.0713
26201W        W42335   6.808   3.750   1.967 -0.2798 -0.2035 -0.2867
26202W        W42336  15.989  12.736  13.837  0.1201 -0.0108  0.0567
26203W        W42337   1.706  19.039  11.366  0.0897  0.3847 -0.1239
26204W        W42338  15.519   1.347   0.052  0.0244 -0.1072  0.1344
26205W        W42339   7.691   5.173   9.669 -0.0675  0.0470  0.0406
26206W        W42340   7.327  16.310  11.795  0.1878 -0.0181 -0.0407
26207W        W42341   8.897  15.136  10.889  0.1578  0.2799 -0.0948
26208W        W42342   5.716  14.810  13.720  0.3183 -0.0667  0.0865
26209W        W42343   2.800   0.300   3.803  0.1235 -0.1855  0.1147
26210W        W42344  14.569   8.207   2.152 -0.1431 -0.1534 -0.0171
26211W        W42345   3.742   3.711  14.532 -0.1191  0.3130 -0.1508
26212W        W42346  10.967   6.076   4.615 -0.3311  0.2973 -0.2156
26213W        W42347   5.099   0.226  10.660  0.0907  0.1583 -0.0496
26214W        W42348   7.270   0.495  11.829 -0.3779  0.1894  0.1395
26215W        W42349   4.577  18.616  11.962  0.0838 -0.0131 -0.2423
26216W        W42350   5.079  16.635   5.497  0.1676  0.1767  0.0255
26217W        W42351   2.888   3.981   1.236  0.0065  0.1488 -0.2923
26218W        W42352   7.371  12.730  11.526 -0.0546 -0.1310  0.0291
26219W        W42353  14.480   2.752  13.854 -0.0367 -0.3181 -0.1043
26220W        W42354   1.744  13.262   4.509  0.1249  0.0435 -0.1774
26221W        W42355  18.818   2.385  12.857  0.3753 -0.2126 -0.1010
26222W        W42356  18.033   2.676  13.304  0.3381 -0.0278 -0.1081
26223W        W42357   5.708  13.213  13.398  0.1085 -0.1890 -0.0059
26224W        W42358  13.613   7.663   1.210  0.1320 -0.1489 -0.2106
26225W        W42359  13.788  15.775  11.458 -0.0950 -0.0168  0.1339
26226W        W42360  15.532  18.477   2.614  0.3227 -0.0337 -0.2636
26227W        W42361   6.956  18.232  13.586  0.0022  0.2909  0.0065
26228W        W42362  13.662  14.883   2.639  0.3925  0.1858  0.0171
26229W        W42363  18.668  14.024  11.863 -0.0625  0.0388 -0.1924
26230W        W42364   6.727  16.557   3.805 -0.0886  0.0737 -0.1341
26231W        W42365   5.016   7.165   9.773 -0.4589 -0.0668  0.1810
26232W        W42366   9.500   3.001  13.366  0.1523  0.1516  0.3683
26233W        W42367  13.313  16.751   1.789  0.2729 -0.1086 -0.0396
26234W        W42368   8.548  15.426  13.877  0.0786  0.3791  0.1715
26235W        W42369  13.731   5.284   2.597  0.1127  0.0030 -0.1503
26236W        W42370   5.465   2.438  12.937 -0.2766  0.0617  0.4230
26237W        W42371   8.296   6.092   4.289  0.0957 -0.0998  0.4759
26238W        W42372   1.020   9.796  12.619  0.5726  0.1180 -0.2249
26239W        W42373  12.139  16.379  13.852  0.1907  0.1332 -0.0842
26240W        W42374   6.071   2.761   3.425  0.0154 -0.0333 -0.1679
26241W        W42375   0.569   2.761  13.980  0.2243 -0.1237 -0.4117
26242W        W42376   3.410   2.923  12.914  0.2910  0.0038 -0.1909
26243W        W42377   7.907   6.467   4.122  0.2529 -0.0673 -0.3609
26244W        W42378   8.914   5.228  11.521  0.1670  0.0516 -0.0084
26245W        W42379  18.344   7.020   1.475  0.0380 -0.1190 -0.2039
26246W        W42380  18.851  14.815   1.678  0.0116  0.0845  0.3751
26247W        W42381   7.310   0.665  14.242  0.0614 -0.2333  0.1918
26248W        W42382  19.098   5.631   2.755  0.2825 -0.3873 -0.2367
26249W        W42383  19.228   7.860  13.265  0.0903  0.1159  0.1078
26250W        W42384  19.046   3.213  14.474 -0.0006  0.1674 -0.1339
26251W        W42385  10.020   4.914  13.594 -0.1703  0.3146 -0.2672
26252W        W42386  12.404   9.186   3.310 -0.0036 -0.0277 -0.0487
26253W        W42387   9.644   2.672   4.073  0.0237  0.2793 -0.0996
26254W        W42388  12.560   9.118   4.092  0.3719  0.0698  0.1109
26255W        W42389   2.923   2.305   1.074 -0.1353 -0.3232 -0.1136
26256W        W42390   3.611   8.437  11.935  0.0577  0.0870  0.1434
26257W        W42391   2.550   7.343   2.315 -0.1140 -0.2298  0.1251
26258W        W42392  15.041  18.988  11.080 -0.1006 -0.0302 -0.0640
26259W        W42393  18.633  18.710  13.429 -0.0788 -0.2469 -0.0511
26260W        W42394  12.011   6.060   5.304  0.3592 -0.0960  0.2248
26261W        W42395  17.754   6.280   1.340 -0.4985  0.1537 -0.0460
26262W        W42396   8.997  18.588  13.842 -0.2152  0.1301  0.2908
26263W        W42397   2.661  15.637   3.928  0.2160 -0.3403  0.1588
26264W        W42398  18.582  15.059   4.692 -0.3427  0.3624  0.0477
26265W        W42399   5.815   5.352  13.937  0.1723  0.1106 -0.1466
26266W        W42400  12.653   2.071   4.578 -0.3544 -0.2377  0.2520
26267W        W42401   8.481  10.843   2.304 -0.2269  0.0635  0.1448
26268W        W42402   9.925   8.992   5.607  0.0823  0.0167 -0.1731
26269W        W42403   1.709  16.768  14.714  0.0410 -0.1757 -0.1747
26270W        W42404   5.877   6.145   0.571 -0.0864  0.0116  0.3219
26271W        W42405  18.486   2.301  14.160 -0.0171 -0.1484 -0.0201
26272W        W42406  16.511   5.789   4.825  0.0609 -0.2516  0.1154
26273W        W42407   8.143   8.928  14.170 -0.1748  0.1676  0.0711
26274W        W42408   2.027   0.636  14.299 -0.0674  0.2553 -0.0228
26275W        W42409  17.813  17.057   2.563  0.0341 -0.1113 -0.1690
26276W        W42410  17.041  15.426   0.465 -0.1696 -0.0271  0.0413
26277W        W42411  11.208   2.898  13.269  0.1408  0.0294  0.0666
26278W        W42412   0.468  11.251   2.405 -0.1815 -0.1765  0.0558
26279W        W42413  10.967   1.945  13.583  0.1188  0.2415  0.1299
26280W        W42414  13.024   7.096   0.316  0.3990 -0.0135  0.1623
26281W        W42415   0.909   7.849  12.647  0.1494 -0.2826  0.1243
26282W        W42416   3.386  19.206  13.021 -0.0583  0.0795  0.3291
26283W        W42417   9.296  12.588  11.313  0.2228 -0.1449 -0.1462
26284W        W42418  16.066  13.588   1.859  0.0393  0.0691 -0.3184
26285W        W42419  19.165  13.342   9.948 -0.1119  0.1240 -0.1336
26286W        W42420   2.256  17.414  11.380  0.0336  0.0773  0.4024
26287W        W42421  15.453   9.344   1.708  0.3271  0.2598  0.3720
26288W        W42422   9.881  16.371  10.375 -0.3365  0.1332  0.1533
26289W        W42423   1.010   3.873  12.603  0.1338 -0.0871  0.0084
26290W        W42424   5.697  16.442   2.697  0.2129 -0.2047  0.1231
26291W        W42425  10.526   2.122  11.127  0.2085  0.2768 -0.3288
26292W        W42426   6.165   5.843  14.847  0.0841 -0.2673 -0.2806
26293W        W42427  14.091   9.778  14.510 -0.1376  0.0302 -0.3397
26294W        W42428   9.174   6.047  10.769  0.1644 -0.1148 -0.0038
26295W        W42429   0.970  11.624  12.487 -0.2255  0.1452  0.0944
26296W        W42430  18.390   8.312  10.572 -0.5127  0.0623 -0.0788
26297W        W42431  18.725  18.271  14.274  0.5198 -0.0540  0.0092
26298W        W42432   5.480   1.956  13.099  0.2289 -0.2782  0.0587
26299W        W42433  19.093   5.503  14.475 -0.4032 -0.3879 -0.0177
26300W        W42434   8.044   6.589   3.115  0.1169 -0.1270  0.4420
26301W        W42435   7.265  18.761   3.505 -0.2334  0.1640  0.2004
26302W        W42436   7.874   4.465  14.161 -0.4141  0.0003  0.3084
26303W        W42437  10.840  14.691   3.515  0.3449  0.0958 -0.0110
26304W        W42438   8.471   6.359   9.161 -0.0569 -0.1209  0.1938
26305W        W42439  13.074  10.531   4.162 -0.2710  0.2114 -0.2134
26306W        W42440   9.997   8.816   5.120  0.0667  0.0676  0.3980
26307W        W42441  17.295   8.879  10.046  0.0015 -0.0315 -0.1189
26308W        W42442   0.641  10.005  10.959 -0.0013 -0.1001  0.2811
26309W        W42443   5.565   6.676  14.187  0.1188  0.0270  0.1681
26310W        W42444   1.559  18.793   3.131 -0.2403  0.0638  0.0341
26311W        W42445   9.048  15.173   4.747 -0.2405  0.0806 -0.0548
26312W        W42446   8.678   2.613   4.915  0.3401  0.0939  0.2878
26313W        W42447  15.604  13.728   2.699 -0.0624 -0.1424  0.0335
26314W        W42448   3.345   8.034   2.928 -0.1490 -0.3628  0.0269
26315W        W42449   3.945   3.229  13.878  0.4424  0.2887  0.2841
26316W        W42450  14.424  12.519  11.837  0.0327  0.4697 -0.0205
26317W        W42451  16.999   5.105  13.981 -0.2211  0.0462 -0.4428
26318W        W42452   3.277   9.909   0.808 -0.1520 -0.2517 -0.1148
26319W        W42453  17.347  10.221   4.442  0.2036  0.0509 -0.3654
26320W        W42454  15.807  19.277   2.414  0.1883  0.1294  0.1550
26321W        W42455   7.430   4.602   0.141 -0.2716  0.3272 -0.1307
26322W        W42456  18.320  13.799  11.513 -0.1320 -0.2657  0.1040
26323W        W42457   2.704   7.968   2.312 -0.3932 -0.1135 -0.1540
26324W        W42458  14.708   4.625   3.184 -0.0338 -0.1313 -0.5676
26325W        W42459  17.151   4.346   1.190 -0.2694  0.1084  0.1965
26326W        W42460  12.497  12.385   3.625 -0.0837 -0.1557  0.0518
26327W        W42461   4.324   8.534   1.167 -0.0016  0.0611  0.2496
26328W        W42462  14.252   1.222   3.934  0.1665  0.1276  0.0209
26329W        W42463   6.837  10.214  11.772  0.5207 -0.3149  0.0927
26330W        W42464  18.726   9.324   3.412  0.0843 -0.3143  0.1499
26331W        W42465   5.586  18.228   5.109  0.0680  0.2711 -0.1197
26332W        W42466   7.657   0.801  13.160  0.0666 -0.2221 -0.0010
26333W        W42467  18.504  18.535   5.919 -0.2350  0.2600  0.1036
26334W        W42468   0.679   9.503  11.118  0.3321  0.1093  0.1329
26335W        W42469  12.797  14.903   0.147 -0.0833 -0.2203 -0.2396
26336W        W42470   8.720  14.832  11.648  0.1475  0.1858  0.0974
26337W        W42471  19.231   8.772   0.868  0.1298 -0.0968  0.2537
26338W        W42472   6.898  16.587   0.074  0.1817 -0.1044  0.0027
26339W        W42473  12.787   4.517   3.223  0.0926 -0.1741  0.0417
26340W        W42474   6.427   0.349   1.477 -0.0074 -0.0532  0.1744
26341W        W42475   9.377  11.617   5.164 -0.2842 -0.0494  0.1612
26342W        W42476   4.937  12.593  12.623 -0.2502 -0.2390 -0.0074
26343W        W42477   7.819   5.212  13.737  0.1524 -0.1592 -0.2337
26344W        W42478  18.185   0.581   9.971 -0.0908  0.3102  0.2362
26345W        W42479   2.572   2.326   2.113 -0.0428  0.1098  0.1666
26346W        W42480  19.056   0.211   2.172 -0.0039  0.0919  0.0314
26347W        W42481  19.321   0.238  11.834  0.0597 -0.3178 -0.2402
26348W        W42482  11.410  12.601   1.495 -0.0618  0.0697  0.1573
26349W        W42483   2.328  15.932  14.786  0.2623  0.2281  0.0499
26350W        W42484  16.817  11.788  10.702  0.1361 -0.0425  0.0782
26351W        W42485  11.923  14.023   5.357  0.1814 -0.0269  0.1980
26352W        W42486  16.933  12.450   2.710 -0.0212 -0.2671 -0.0147
26353W        W42487  11.738   6.621  13.502  0.0513  0.1137 -0.0214
26354W        W42488  18.641   5.398   2.475  0.2583 -0.4554  0.0638
26355W        W42489   7.726  16.235   3.697 -0.0250  0.0008 -0.2359
26356W        W42490  17.959  16.674   0.992  0.3022 -0.1885 -0.1823
26357W        W42491  13.648  12.027  12.311  0.1315  0.2756  0.1421
26358W        W42492   3.794  14.324   2.910 -0.1808  0.1818  0.2622
26359W        W42493   2.531  19.056  12.686  0.0435 -0.4289  0.2126
26360W        W42494   4.424   0.065  13.262  0.1815  0.1106 -0.0452
26361W        W42495  16.440  15.856   2.441  0.1356  0.2793 -0.1956
26362W        W42496  16.291   1.322  14.597  0.2537 -0.1880  0.0011
26363W        W42497  13.875  11.456   3.766 -0.2261  0.1177  0.0415
26364W        W42498  18.794  11.271   2.108 -0.7658  0.0602  0.1467
26365W        W42499  10.091  14.464  11.974 -0.0552  0.2747 -0.1146
26366W        W42500   0.704  18.015  13.619  0.0917 -0.0352  0.0126
26367W        W42501   8.408   9.432  13.704 -0.3664  0.2191 -0.0879
26368W        W42502   6.983  11.058  11.727 -0.0396  0.3920  0.0763
26369W        W42503   5.271  16.005   0.425 -0.1060  0.3724 -0.1560
26370W        W42504  13.145  18.945   3.399 -0.1263 -0.1645 -0.0178
26371W        W42505  16.171  12.811  10.496 -0.1462  0.0311  0.0108
26372W        W42506  14.785  14.630  12.255  0.0149 -0.0363 -0.2035
26373W        W42507  18.657  12.366   2.416  0.1877 -0.1332 -0.1231
26374W        W42508  14.091   4.207   0.465 -0.0825 -0.0671  0.4402
26375W        W42509  15.051  11.023   9.651 -0.0526  0.1393 -0.0365
26376W        W42510   2.796   5.957  13.142  0.0679 -0.0666  0.0145
26377W        W42511  17.440   6.088  14.814 -0.0709 -0.0519  0.1813
26378W        W42512  15.195  17.498  12.976 -0.0347 -0.0150 -0.0474
26379W        W42513   7.109   5.911   1.910 -0.2410  0.0623  0.1431
26380W        W42514   5.420   3.696  10.889 -0.2132 -0.1899  0.2708
26381W        W42515  12.902   0.014   2.722 -0.2653  0.1807  0.2870
26382W        W42516  12.845  12.564   2.794 -0.0534  0.1913 -0.0229
26383W        W42517   1.400   6.848   4.561  0.1552  0.1464  0.2786
26384W        W42518  13.652  13.032  12.304 -0.1359  0.4491  0.1404
26385W        W42519  13.725   4.306   2.261  0.0788 -0.3989  0.0775
26386W        W42520   8.371   8.506  14.863 -0.0289 -0.1851 -0.0471
26387W        W42521   4.377  16.052   3.877  0.1340  0.7050  0.0005
26388W        W42522  11.748  18.540   3.937  0.2344  0.2718  0.0726
26389W        W42523  13.385  18.765  14.534  0.0193 -0.0657  0.1783
26390W        W42524   1.058   1.011   4.009 -0.1021  0.2315 -0.0751
26391W        W42525   5.022   2.757   0.367  0.2248 -0.0635 -0.2429
26392W        W42526   9.022  18.988   2.530 -0.5072 -0.0893  0.0195
26393W        W42527  17.875   8.749   9.265 -0.2939 -0.0883 -0.3805
26394W        W42528   7.178   9.946  10.175  0.2164 -0.0002  0.1474
26395W        W42529  13.830  12.735   2.885 -0.0207 -0.0017 -0.0402
26396W        W42530   8.533   0.855   0.393  0.1358 -0.1869 -0.3071
26397W        W42531  15.547  10.975  11.232  0.2541 -0.0997 -0.3976
26398W        W42532   3.570  18.735   2.786 -0.1617 -0.3494  0.1072
26399W        W42533   4.467  10.526   4.832 -0.2648 -0.0395 -0.1759
26400W        W42534  11.969  13.670   4.265  0.1880 -0.2287  0.5475
26401W        W42535   5.932   5.388  10.372  0.3813 -0.1357 -0.1079
26402W        W42536   6.542   9.744   2.422  0.2926  0.1997 -0.0416
26403W        W42537  14.710  18.300  14.601  0.2326  0.1734  0.0871
26404W        W42538  10.133   8.014  11.019  0.3158 -0.0706 -0.2600
26405W        W42539   1.257  13.466   8.575 -0.1306 -0.2027 -0.1085
26406W        W42540   9.536   6.354   3.996 -0.1506  0.0373  0.0373
26407W        W42541  13.713   4.956   1.678 -0.1890 -0.0862 -0.0222
26408W        W42542  12.132  12.266   3.983  0.0607  0.0411 -0.0897
26409W        W42543   2.852   6.915  12.545 -0.0776 -0.2816 -0.0768
26410W        W42544   9.589   5.156   2.243 -0.3300 -0.0103  0.7172
26411W        W42545   2.955   3.364  14.303  0.3372  0.1479 -0.1589
26412W        W42546  19.251   8.735   4.422  0.0574  0.0077  0.1703
26413W        W42547   7.019  17.058  11.013 -0.0003  0.0517  0.0202
26414W        W42548  10.257  14.756   1.750 -0.4188 -0.0077 -0.3233
26415W        W42549  14.581  19.292  12.739 -0.3236  0.1567  0.1339
26416W        W42550  13.429  14.147   1.814  0.2584  0.2573  0.2515
26417W        W42551  13.354   1.813  12.069  0.2211 -0.4508 -0.1772
26418W        W42552   7.273   1.593  12.658  0.3445 -0.1119 -0.0919
26419W        W42553  13.950   0.849  14.706  0.0656 -0.5671  0.3189
26420W        W42554  14.408   2.131   5.619 -0.1956  0.2417  0.0218
26421W        W42555   7.641   2.035   1.334  0.0230  0.0222 -0.0552
26422W        W42556   7.518  16.462  14.708 -0.0806  0.0929 -0.2420
26423W        W42557   6.202   8.164   2.411 -0.3667  0.1009 -0.0987
26424W        W42558   1.725   2.661   2.593  0.1569 -0.3030 -0.1860
26425W        W42559   3.057  15.420  11.403 -0.0155  0.0908  0.0645
26426W        W42560  15.655   7.548   1.488  0.3045  0.1705 -0.0807
26427W        W42561   8.004   6.231   1.348 -0.1358  0.2216  0.0575
26428W        W42562  16.507  17.150   1.743 -0.0610 -0.0087  0.4203
26429W        W42563   4.608   7.478   3.701  0.0955  0.1179  0.1279
26430W        W42564  13.951   9.604  10.675 -0.1050  0.0457  0.3441
26431W        W42565   7.828  14.775  11.928 -0.2010  0.2827  0.1260
26432W        W42566  10.605  13.119   1.775 -0.1217 -0.1934 -0.0833
26433W        W42567   2.668   0.199   4.772  0.0494 -0.0269  0.1889
26434W        W42568  18.859   8.979   2.610 -0.2306  0.1085  0.3111
26435W        W42569   3.356  13.598  13.773 -0.0402  0.0744  0.1270
26436W        W42570  14.762  16.162   4.352  0.1140  0.3562  0.1056
26437W        W42571   9.676   6.554  11.520 -0.0286 -0.0310  0.1301
26438W        W42572   0.374   1.317   0.262  0.1246  0.1974 -0.1572
26439W        W42573   9.485   9.654   9.096  0.2306 -0.2197  0.1099
26440W        W42574  19.100  12.413  10.455 -0.2997 -0.0839 -0.1769
26441W        W42575  17.655  17.591  11.050  0.0329  0.0547  0.1586
26442W        W42576  12.452  11.319   4.165  0.0978 -0.0544 -0.0703
26443W        W42577  13.629   2.602   4.639  0.1533  0.0688 -0.1227
26444W        W42578  14.262  12.813  14.172 -0.3767  0.3006  0.0439
26445W        W42579  13.068   9.527  13.756 -0.0140  0.0628  0.1930
26446W        W42580  11.672  15.735   3.247  0.0835  0.1406  0.0562
26447W        W42581  17.392  14.124   4.102 -0.0112  0.1989 -0.1845
26448W        W42582  10.674   0.485   0.331  0.1874 -0.0380  0.0339
26449W        W42583   4.028  11.519  11.965 -0.1576  0.2444  0.1055
26450W        W42584   1.750   8.015   1.281  0.2781  0.1140 -0.3733
26451W        W42585  15.551  15.253   2.780  0.1511  0.1059  0.1235
26452W        W42586  12.568   7.918  11.962  0.2170  0.2215 -0.1900
26453W        W42587   9.316  14.251   0.643  0.0445  0.1562 -0.2730
26454W        W42588   7.659   9.809   2.544  0.0177 -0.3348 -0.0086
26455W        W42589   1.666   0.480  14.024 -0.2393  0.0562 -0.2372
26456W        W42590   7.765  16.681  13.233 -0.1390 -0.1331 -0.3045
26457W        W42591  15.113  17.523  14.916 -0.1312  0.1267  0.1149
26458W        W42592   9.739  15.609  13.001  0.1801 -0.1486  0.1986
26459W        W42593  17.148  13.461  13.263  0.0574 -0.1300  0.1053
26460W        W42594   4.939  11.766   0.083 -0.2198 -0.0979 -0.2286
26461W        W42595   6.211  18.995   4.857 -0.4299 -0.2066  0.3942
26462W        W42596  11.024  14.728   0.232  0.2624 -0.1453  0.1899
26463W        W42597  12.398   3.644   2.401  0.1591  0.0227  0.1857
26464W        W42598  18.401   7.144   8.934  0.1439 -0.0876 -0.0607
26465W        W42599   9.508   9.460   0.057 -0.1931  0.1070 -0.0134
26466W        W42600  12.130  10.341  14.715  0.1002 -0.1245  0.1799
26467W        W42601  11.298   2.586   0.975  0.2019 -0.2119  0.1430
26468W        W42602  13.918   2.200   1.027 -0.5737  0.2182  0.3843
26469W        W42603   2.311  18.771  10.528 -0.0312 -0.0452  0.0038
26470W        W42604  17.194  18.235   2.356  0.2285 -0.1488 -0.1364
26471W        W42605   5.270  14.181   3.471  0.0332  0.0005  0.1678
26472W        W42606  16.360  14.472  12.639  0.2537 -0.3243  0.0164
26473W        W42607   8.126   7.410   4.453 -0.1834  0.4310 -0.1887
26474W        W42608   4.390   3.704   3.485  0.0244 -0.1570 -0.0077
26475W        W42609   4.666  12.771   2.769 -0.1446 -0.0813 -0.3319
26476W        W42610  11.973   6.436   1.472  0.4972  0.0011 -0.2118
26477W        W42611  12.356  11.822   3.208  0.1200 -0.1483  0.3166
26478W        W42612   4.704   0.446  13.379 -0.0221  0.0070  0.1573
26479W        W42613   7.061   3.707   0.891  0.1140  0.1375  0.1094
26480W        W42614   8.516   3.656   2.905  0.2933 -0.1097 -0.2930
26481W        W42615  11.787   5.185   0.502  0.0657  0.2491 -0.1105
26482W        W42616   0.773   5.188   0.138  0.0788 -0.0040  0.1160
26483W        W42617  10.974   6.247  13.395 -0.0732  0.0731  0.2000
26484W        W42618  14.793  13.761   0.604  0.1118 -0.2038 -0.0286
26485W        W42619   1.814   4.895   2.721 -0.1403 -0.4816  0.0204
26486W        W42620   9.124  10.812  11.541  0.5302  0.0616 -0.0618
26487W        W42621   4.232   8.214   2.435  0.0675  0.1225  0.1724
26488W        W42622   9.939   6.665   1.087 -0.2288 -0.0497  0.0924
26489W        W42623   0.796  18.628  12.440  0.2113  0.1392 -0.1363
26490W        W42624  11.938   4.114   2.514  0.0778  0.1067  0.1542
26491W        W42625   0.119   8.525  10.229  0.1915 -0.1971  0.1251
26492W        W42626  13.906  10.937  11.239  0.1203 -0.1005  0.3930
26493W        W42627   7.056   2.200   4.617 -0.1299 -0.0294  0.0553
26494W        W42628  12.003   0.906   2.438 -0.0439 -0.1771 -0.4509
26495W        W42629   6.054  11.331  13.740  0.0615 -0.0836  0.0975
26496W        W42630   8.208   9.512   1.129 -0.0982 -0.3393 -0.2659
26497W        W42631  10.458  10.479   3.332 -0.1582 -0.0200  0.2181
26498W        W42632  12.343  18.104  12.646  0.4493  0.0040 -0.0825
26499W        W42633   4.093   3.922  11.347  0.1604 -0.0293 -0.2959
26500W        W42634   2.357   2.664  13.733 -0.1324 -0.0507 -0.0621
26501W        W42635   9.935  16.820  13.418 -0.1467 -0.0521 -0.0683
26502W        W42636  14.168   2.024   4.361 -0.1561  0.0613 -0.0155
26503W        W42637   0.102  13.560  12.922 -0.0467  0.2349  0.1661
26504W        W42638  16.613   0.926  12.265  0.0968  0.3285 -0.0448
26505W        W42639  15.666  10.508  12.002 -0.3628  0.0786 -0.0270
26506W        W42640  12.983   9.466   1.983 -0.2389  0.0682  0.2644
26507W        W42641  15.135   7.186   4.773  0.0103  0.3443  0.1566
26508W        W42642  17.708   9.177  11.521  0.2586  0.1407 -0.1103
26509W        W42643  10.692   3.479  10.426 -0.1827 -0.0316  0.4310
26510W        W42644   4.242   5.699   9.579  0.3059 -0.1398  0.2606
26511W        W42645  19.081  13.372   1.494  0.0455 -0.0848 -0.0414
26512W        W42646   9.343  16.036  13.889  0.1769  0.0789  0.0806
26513W        W42647  14.017  17.839  12.183 -0.0562  0.0950  0.1692
26514W        W42648  17.819  12.477  10.553 -0.1139  0.0317 -0.2671
26515W        W42649   9.636  15.273  14.115 -0.2809  0.0782  0.4915
26516W        W42650  13.156   0.302   2.352  0.2071  0.1043  0.0208
26517W        W42651  14.970   9.180  13.627 -0.0609  0.1229 -0.0811
26518W        W42652  17.423   4.100   1.624 -0.0511  0.2578  0.0564
26519W        W42653  13.904  12.536  13.327 -0.1223 -0.1107  0.1985
26520W        W42654   0.009  10.525   3.315  0.0790  0.1342  0.0223
26521W        W42655  15.356  12.929  11.797  0.0326 -0.0274  0.2352
26522W        W42656  15.258   6.401  10.561  0.1685  0.0240  0.0063
26523W        W42657   5.197  10.378   3.052  0.1027 -0.0791  0.1690
26524W        W42658   8.027  12.237  10.016  0.1952 -0.0496  0.4129
26525W        W42659   5.417   4.243   1.567  0.1934 -0.1670 -0.1348
26526W        W42660   9.782  17.741   4.820 -0.1236  0.0067  0.1635
26527W        W42661   0.865  17.415  11.281 -0.1628 -0.1008 -0.0520
26528W        W42662   4.281  16.074  13.510  0.0297  0.2589 -0.5203
26529W        W42663   2.233  16.703   2.248  0.4232  0.1440  0.1596
26530W        W42664  15.084  17.281   0.909  0.0310 -0.0773 -0.0992
26531W        W42665  14.727   6.355  13.783 -0.0894 -0.1709 -0.0492
26532W        W42666  11.189  15.247   5.145 -0.5413 -0.3767 -0.1615
26533W        W42667   0.774   6.226  13.487  0.0930  0.2643 -0.1537
26534W        W42668  13.669  12.656  12.732  0.5363 -0.0985 -0.1357
26535W        W42669   5.646  13.004  13.867  0.0000 -0.1446  0.2153
26536W        W42670   8.516  18.793  10.873 -0.0997 -0.3405  0.1258
26537W        W42671   7.218  10.612   0.979  0.3167 -0.2037  0.2312
26538W        W42672   0.838   3.428  12.751  0.0000 -0.2594 -0.0737
26539W        W42673  16.122   1.729   4.712 -0.2648  0.0901 -0.2603
26540W        W42674   4.720  13.518  11.253 -0.3662 -0.2731 -0.0109
26541W        W42675   4.301   0.352  12.879 -0.2185 -0.1727 -0.2415
26542W        W42676  17.787  13.451   4.158  0.4367  0.0249  0.0753
26543W        W42677  14.504  18.725  13.395 -0.1294  0.1397 -0.2728
26544W        W42678  15.246   8.461   2.320  0.0228 -0.3067  0.3196
26545W        W42679  11.996   7.734  12.185  0.2844 -0.0228 -0.0749
26546W        W42680  10.136  12.581  11.994 -0.1042 -0.4118 -0.0077
26547W        W42681  15.408   2.201  12.930 -0.0692  0.0209  0.3063
26548W        W42682   9.232   0.216  14.757  0.1324  0.1607 -0.2532
26549W        W42683  18.793  14.511   4.666 -0.3592  0.1028 -0.1534
26550W        W42684   5.787   6.599   1.865  0.2394 -0.3510 -0.0314
26551W        W42685   0.989   0.595   0.121  0.0098  0.0187  0.2008
26552W        W42686   9.737   3.268  12.346 -0.2346  0.0528 -0.0983
26553W        W42687   7.838   2.914  12.588 -0.1747  0.0751  0.1691
26554W        W42688  18.961  12.682  11.712 -0.1212 -0.0884  0.1178
26555W        W42689  17.689   2.010   3.594 -0.1144  0.1288  0.0558
26556W        W42690  17.649   7.059   4.068  0.1527  0.2547  0.0143
26557W        W42691  12.490   2.255  11.911 -0.0420  0.1108  0.1910
26558W        W42692   2.472   1.611  12.400 -0.1788  0.0956 -0.1124
26559W        W42693  13.152   1.446   4.278 -0.4630  0.1618  0.4409
26560W        W42694   3.262   5.707  14.154  0.4247  0.3092 -0.1561
26561W        W42695   8.416   1.742   2.329  0.3910  0.3793  0.2670
26562W        W42696   4.511  14.012  11.535  0.0720  0.1612 -0.0374
26563W        W42697   3.041  12.171   4.476  0.1091 -0.0336 -0.1610
26564W        W42698   1.349   7.904  13.563 -0.0704  0.0849  0.0977
26565W        W42699   1.773  15.729  10.017 -0.0561  0.3425  0.0366
26566W        W42700  18.845  18.199  11.796  0.0536 -0.0563 -0.0647
26567W        W42701  18.944   9.567   9.519 -0.2301 -0.0920  0.1417
26568W        W42702   2.634   1.737   0.422 -0.0438 -0.1363 -0.2202
26569W        W42703   7.262  17.909  14.967 -0.0968  0.1857 -0.2695
26570W        W42704  12.387   2.934  11.183 -0.3042 -0.3708 -0.2651
26571W        W42705  18.437   8.970  13.364  0.0176 -0.2207  0.0120
26572W        W42706   7.449  13.561   4.248  0.3851 -0.1027  0.2280
26573W        W42707  10.605  15.420  14.940  0.0463 -0.0450 -0.0707
26574W        W42708  17.287  18.230   5.755  0.1434  0.0651 -0.0355
26575W        W42709  11.739  15.235   6.161 -0.1906  0.0913  0.1625
26576W        W42710  14.291  14.581   4.589  0.1189 -0.2010 -0.0419
26577W        W42711   7.309   8.916   4.473 -0.1869  0.0923 -0.3258
26578W        W42712  12.570  15.711  14.161 -0.2154  0.2219 -0.1245
26579W        W42713  16.805  10.870  11.332 -0.2147  0.1674  0.2595
26580W        W42714   1.598   9.746   4.027  0.1302  0.1017 -0.2727
26581W        W42715  19.050   6.067  14.393  0.2405  0.1469  0.2776
26582W        W42716  15.640  17.370  14.928 -0.0821 -0.0298 -0.1995
26583W        W42717  11.750  16.943   3.681 -0.0185 -0.2678 -0.2209
26584W        W42718   3.996   2.781  14.139  0.0929  0.0376  0.1440
26585W        W42719   4.674  17.392   2.544  0.0043  0.1646 -0.1421
26586W        W42720   6.551   3.367   3.600 -0.1928 -0.1505 -0.0162
26587W        W42721   8.135  16.248   0.782 -0.3271 -0.0198  0.1628
26588W        W42722  13.096   0.547   2.867  0.0148  0.0300  0.3828
26589W        W42723  13.890  11.347  14.360 -0.1894  0.1243 -0.1301
26590W        W42724   6.230  14.917  10.290  0.0547 -0.4575 -0.0768
26591W        W42725  12.928   8.190  13.229  0.1912 -0.1573 -0.2688
26592W        W42726   5.106  12.608  11.177 -0.0345  0.1371 -0.2390
26593W        W42727   1.920  12.931  14.107 -0.2277  0.0726  0.0891
26594W        W42728  12.925   5.696  14.757 -0.1998 -0.1700  0.2826
26595W        W42729   0.746  13.780  10.791 -0.2642 -0.2353  0.0680
26596W        W42730  16.342  19.191   2.365  0.1247 -0.0479  0.1200
26597W        W42731  13.487  17.477  14.418 -0.1849 -0.1582 -0.1277
26598W        W42732   5.518  11.505  10.853  0.2750 -0.2246 -0.2092
26599W        W42733   7.075   6.544   0.954  0.3679 -0.2427  0.1198
26600W        W42734  13.609   1.835  13.817  0.1346  0.1097  0.0439
26601W        W42735  12.086   5.238   0.108 -0.3582  0.2757  0.1629
26602W        W42736   0.579  17.079   4.763  0.0399  0.1739  0.3735
26603W        W42737   2.893   9.072   5.309 -0.0934  0.1434 -0.1056
26604W        W42738   2.084   7.410   2.969  0.0078 -0.0457 -0.0131
26605W        W42739   2.177  16.953   4.213 -0.2750 -0.2560  0.1104
26606W        W42740   5.804   2.299  13.693 -0.0767  0.0198  0.5070
26607W        W42741  15.249   0.654   5.260 -0.1106  0.0966 -0.3730
26608W        W42742   1.958   0.160  11.354 -0.0602  0.2392 -0.1622
26609W        W42743  12.000  13.102   2.622 -0.2717 -0.0705 -0.0036
26610W        W42744   5.817  13.719  13.601  0.2190 -0.3121 -0.0901
26611W        W42745   0.370  11.591  12.927 -0.2089 -0.3217 -0.2852
26612W        W42746   9.829  10.892  13.237 -0.0568 -0.0130  0.0165
26613W        W42747  15.686  13.158   5.387  0.0737 -0.1289  0.1079
26614W        W42748   3.445  16.956  12.448 -0.3122 -0.0967  0.1889
26615W        W42749   1.606  14.016  10.520 -0.0239 -0.3046 -0.0037
26616W        W42750   2.804  17.731   1.785 -0.1230 -0.0153 -0.1338
26617W        W42751   5.269  12.068   3.222 -0.0529 -0.1428 -0.0275
26618W        W42752  14.418  15.021  12.329 -0.0015 -0.0141 -0.1031
26619W        W42753   4.655  14.306  12.512  0.1327 -0.1977 -0.0462
26620W        W42754   5.816   5.719   1.787 -0.0732  0.0468 -0.0317
26621W        W42755   8.917  17.493   3.955 -0.1337  0.2131  0.0388
26622W        W42756  10.438   2.111  11.632 -0.0523 -0.0255  0.2303
26623W        W42757   4.375   2.628  11.898 -0.5106  0.3657 -0.0210
26624W        W42758  18.196  14.528   2.703  0.2452  0.2532 -0.2850
26625W        W42759  17.071   3.504   4.089 -0.0549  0.0966  0.0665
26626W        W42760   9.455  14.331   4.221 -0.1941  0.1251  0.2158
26627W        W42761   5.737  14.203  12.790 -0.1349 -0.3107 -0.1503
26628W        W42762  16.625   7.087  11.771  0.0342  0.1727 -0.0085
26629W        W42763   9.347  19.282   5.239  0.2391 -0.0230 -0.0201
26630W        W42764  11.445   7.884   2.681  0.0241  0.1045  0.0167
26631W        W42765  17.647   8.414   5.172 -0.0941 -0.3657  0.0725
26632W        W42766   2.965   4.182   0.705 -0.1868 -0.1042  0.0653
26633W        W42767  14.241  12.256   0.343 -0.1447  0.3449  0.1148
26634W        W42768  10.960  17.518  14.825 -0.2488  0.1025 -0.1646
26635W        W42769   0.721  13.281  13.860  0.0159  0.2099  0.0112
26636W        W42770  17.098  17.621  11.722  0.0392  0.1225  0.0521
26637W        W42771  15.956  10.658   3.397  0.1582  0.0866  0.2005
26638W        W42772   7.158   0.385   3.043  0.5874 -0.3351 -0.1668
26639W        W42773   8.535  19.043   1.702  0.0093  0.3950  0.1143
26640W        W42774   3.631   8.797  13.048 -0.1444 -0.0553 -0.0608
26641W        W42775   9.817   3.955   5.577 -0.1708  0.1697  0.3434
26642W        W42776   3.330  15.521  10.982  0.1125 -0.0763  0.1768
26643W        W42777  13.072   4.511   0.968 -0.3945  0.0695 -0.2035
26644W        W42778   6.510  12.271   5.268 -0.1500  0.0312  0.3936
26645W        W42779  10.007   1.115   2.292 -0.1416 -0.0236  0.0043
26646W        W42780  11.324   3.545  11.886  0.1093 -0.0507  0.2862
26647W        W42781   7.866   1.534   5.695 -0.0641  0.3676  0.0951
26648W        W42782  12.088   1.608   1.276  0.1410 -0.1298  0.0982
26649W        W42783  17.673   7.833   0.906  0.1145  0.2006 -0.0105
26650W        W42784  15.133  10.122   3.504  0.0975  0.0256  0.0675
26651W        W42785  17.633  12.347  10.094 -0.1350  0.0334  0.0166
26652W        W42786  19.085  16.536   3.915  0.1361 -0.0778 -0.1124
26653W        W42787  10.096  15.743   0.654  0.2876  0.0422 -0.3530
26654W        W42788   4.033  16.529   0.733 -0.0325 -0.0205 -0.0516
26655W        W42789   9.748  13.828   2.058 -0.1775  0.2464  0.2403
26656W        W42790   3.868   7.838  10.293 -0.1034 -0.1597  0.1397
26657W        W42791  18.779   3.555   3.204  0.0722 -0.2300  0.1511
26658W        W42792  16.781   4.486   4.671 -0.2201 -0.1868 -0.0041
26659W        W42793  18.427  11.090   1.220  0.1549 -0.2626 -0.0657
26660W        W42794  13.187   3.861  12.784  0.1833  0.2742 -0.3031
26661W        W42795  18.126   9.967   3.790 -0.0838 -0.3496 -0.2015
26662W        W42796  18.421  13.560   3.015  0.0191 -0.0832  0.4127
26663W        W42797   1.161  17.298   1.688 -0.0270 -0.2260 -0.0430
26664W        W42798  18.818  15.916  14.849  0.2245  0.0956  0.0260
26665W        W42799  18.632  17.251   4.841 -0.0762  0.0029 -0.0169
26666W        W42800   7.890  16.815   2.926  0.2311 -0.2276 -0.0288
26667W        W42801   6.251   1.161   3.836 -0.0882  0.1122 -0.1054
26668W        W42802  19.349  17.502  11.555 -0.2909 -0.0698 -0.2901
26669W        W42803  13.210  18.516  10.717  0.2114 -0.1657 -0.0097
26670W        W42804   0.232  16.776   3.206 -0.2470 -0.0461 -0.4303
26671W        W42805  12.503  13.825   3.670  0.0161 -0.2308 -0.2461
26672W        W42806   1.341   4.332  14.297  0.2805 -0.0626 -0.1039
26673W        W42807  14.293   2.413   3.809  0.0659 -0.2844  0.2850
26674W        W42808  16.826   0.248  10.851  0.0212  0.2018 -0.0450
26675W        W42809  10.128   9.530  11.085  0.0403  0.2245 -0.1439
26676W        W42810   8.542  11.636  14.749  0.2813  0.2112 -0.0829
26677W        W42811  10.390   5.987  13.405 -0.0952  0.0882  0.0598
26678W        W42812  13.857  14.456  13.996  0.3645 -0.0605  0.3318
26679W        W42813   9.701   2.510  10.784 -0.0211 -0.0914 -0.0262
26680W        W42814   1.756  18.006   0.158 -0.0478  0.0064  0.0399
26681W        W42815  14.507   9.126   0.312 -0.0917 -0.1889 -0.0155
26682W        W42816   4.465  13.464   1.752  0.1143  0.1263 -0.0300
26683W        W42817  15.224   8.931   4.766 -0.2244 -0.0233  0.0437
26684W        W42818  12.445   1.828  10.928 -0.3484 -0.0438 -0.2174
26685W        W42819   7.617   0.964   4.673 -0.2472  0.2040  0.0833
26686W        W42820  19.086  11.355   9.453  0.0407 -0.1100  0.1100
26687W        W42821  11.109   5.613  10.616  0.0615  0.0819 -0.3375
26688W        W42822  13.962  16.622   6.114 -0.0039  0.2200 -0.2253
26689W        W42823   8.133  11.517   4.057 -0.1668  0.1087 -0.0501
26690W        W42824   1.867  11.026   9.162 -0.0891  0.0662  0.0938
26691W        W42825   4.009   4.537   1.817  0.1179 -0.2093  0.0802
26692W        W42826   6.784   7.981  13.156 -0.1467  0.3052 -0.0944
26693W        W42827  17.906  14.944  12.888  0.1813  0.2282  0.2264
26694W        W42828  17.545  18.637   5.584 -0.1228  0.0291  0.4298
26695W        W42829  18.105   9.239  10.350  0.2894  0.3612  0.0345
26696W        W42830  18.733   2.759   2.400  0.0766 -0.0125  0.1822
26697W        W42831   4.401  14.970  13.321 -0.0820  0.5180  0.1524
26698W        W42832  17.345   0.736   1.309  0.1243  0.3536  0.0469
26699W        W42833  11.054  17.226   5.960 -0.0038  0.2460 -0.0332
26700W        W42834   3.109  11.383   3.225  0.1833 -0.0759 -0.1702
26701W        W42835   4.389  14.040  10.198  0.1491  0.0634 -0.3454
26702W        W42836  17.628   4.030   1.166 -0.0576 -0.0853  0.3722
26703W        W42837   3.394  11.923   2.883 -0.0165  0.0883  0.2205
26704W        W42838  17.418  15.454  12.188 -0.2276  0.0048  0.1395
26705W        W42839   3.887  15.251  11.909 -0.1848 -0.0627  0.1544
26706W        W42840  19.184   7.675   0.178  0.1693  0.1404 -0.0763
26707W        W42841  13.491   1.932   1.034  0.0210  0.1998 -0.2212
26708W        W42842  19.298  11.430  12.642  0.0298 -0.2178 -0.2804
26709W        W42843  11.075  13.724   5.239 -0.0696  0.0815 -0.0063
26710W        W42844  11.435  10.059  12.344 -0.1395 -0.1536  0.1859
26711W        W42845   1.011  18.546   0.329  0.1822  0.0543  0.2801
26712W        W42846   1.354   0.935   1.339 -0.2271 -0.0278  0.0368
26713W        W42847  13.998  16.454  10.368 -0.0381  0.0594 -0.2438
26714W        W42848   6.672   3.745  10.038  0.1272  0.2512  0.0603
26715W        W42849   1.971  12.339  14.966 -0.0743  0.0574  0.0204
26716W        W42850  12.616  12.330   4.109  0.1516 -0.0728  0.2199
26717W        W42851   2.098  16.834   3.708 -0.2533  0.5551  0.0124
26718W        W42852   1.930   6.785   0.983  0.1829 -0.1622 -0.1249
26719W        W42853   3.017  13.807   1.331 -0.1219  0.3838  0.0066
26720W        W42854   1.812   7.466  14.326  0.2130 -0.1067  0.1140
26721W        W42855   0.989   0.624   1.594  0.2790  0.2217  0.0434
26722W        W42856   4.400  13.930   3.059  0.1075  0.1061 -0.0311
26723W        W42857  16.998   8.624   2.320 -0.0608 -0.0720  0.1757
26724W        W42858   7.150  11.035  10.322  0.0629  0.2167  0.4922
26725W        W42859   6.072  16.045   2.478 -0.0585 -0.0997 -0.1852
26726W        W42860   1.185  18.522  11.062  0.3772  0.1981 -0.0942
26727W        W42861  17.398  11.432  11.353  0.2001 -0.0372  0.0732
26728W        W42862  17.223   4.751   3.443  0.0760  0.2298  0.1182
26729W        W42863   4.951  14.205   2.139  0.2100 -0.1588  0.1262
26730W        W42864   2.871   5.858   1.523 -0.0787 -0.0954  0.1220
26731W        W42865   0.327  18.500   4.524  0.1505  0.0675  0.1593
26732W        W42866   8.704  12.850   0.200  0.0791 -0.0521  0.0397
26733W        W42867  14.350   5.599  12.270 -0.0144 -0.0136 -0.0049
26734W        W42868  12.375  11.646  13.380 -0.1444 -0.0381 -0.1134
26735W        W42869   1.864   4.989   1.541 -0.1272  0.2067 -0.1715
26736W        W42870  17.008   5.434   0.398 -0.3002  0.0356 -0.1742
26737W        W42871  13.107   3.852   1.203  0.2610  0.1599 -0.3317
26738W        W42872   8.218  14.520  13.422 -0.2483 -0.0061 -0.0464
26739W        W42873  12.821   7.271   4.335  0.1284  0.1821  0.3413
26740W        W42874   7.246  11.840  11.253 -0.1745  0.0035 -0.2333
26741W        W42875  16.304  18.709   2.190  0.1670  0.0677  0.0685
26742W        W42876   4.072   7.929  11.411 -0.3002  0.1541  0.1261
26743W        W42877   1.843  13.958   1.946  0.0117  0.1795  0.1930
26744W        W42878  15.674   2.191   2.735  0.2325  0.0493 -0.2379
26745W        W42879  11.926  12.548   4.784  0.0704  0.0480 -0.2275
26746W        W42880   2.729   8.724  13.764  0.2156 -0.2545  0.2032
26747W        W42881  10.904  18.871   0.071  0.2571 -0.1039  0.1129
26748W        W42882  16.528   2.368   0.848 -0.2372 -0.0703  0.1883
26749W        W42883   9.124  15.373   3.715  0.0737 -0.1155  0.2055
26750W        W42884  11.243  17.304   1.908 -0.0756  0.0171 -0.0293
26751W        W42885   6.081  17.625  11.529 -0.0383 -0.3161 -0.1058
26752W        W42886  15.569   1.183   2.705  0.1657 -0.2358 -0.2480
26753W        W42887   3.705   6.214  13.455  0.0145 -0.0313  0.1820
26754W        W42888  11.727  19.106   3.824  0.0227 -0.0681 -0.0982
26755W        W42889   6.467   2.759   9.831  0.0382 -0.2302 -0.0106
26756W        W42890  16.597  18.050  11.647  0.0170 -0.3283  0.0502
26757W        W42891  19.330   9.504   2.176  0.0080  0.0436  0.2402
26758W        W42892   3.815   4.916   3.942  0.1547  0.0636  0.0020
26759W        W42893   0.747   8.498   9.570 -0.2215  0.2254 -0.3030
26760W        W42894   1.937   4.856  14.204 -0.0761 -0.0303  0.1683
26761W        W42895   0.375   7.652  14.395  0.0999  0.1801 -0.1015
26762W        W42896   0.797  14.882   1.312 -0.1756 -0.0722  0.2890
26763W        W42897   1.743   7.602   9.936 -0.2414 -0.0106  0.2357
26764W        W42898  19.080  12.125   0.402 -0.0384 -0.0053  0.2383
26765W        W42899   0.568   7.457   3.310  0.0720 -0.0098  0.1543
26766W        W42900   1.574   6.738   1.756 -0.0525 -0.1128 -0.1501
26767W        W42901   7.643   0.457  10.682 -0.0087 -0.0115  0.0154
26768W        W42902   6.785   7.030   1.766 -0.3313 -0.2385  0.1577
26769W        W42903   7.231   3.406   1.804 -0.1141 -0.1604  0.1423
26770W        W42904   4.684   7.095  14.217  0.2407 -0.1983 -0.3140
26771W        W42905   7.134   3.586  11.322 -0.0119  0.3150 -0.3125
26772W        W42906  13.935  18.321   3.493  0.1608 -0.2468  0.1554
26773W        W42907   4.356   1.888   4.062  0.0669 -0.2048 -0.0875
26774W        W42908  17.158  14.655  11.266  0.4514 -0.0143 -0.1725
26775W        W42909  18.423   0.573  13.501  0.2980 -0.0823  0.4307
26776W        W42910  16.422   7.246  12.653  0.1435  0.3029  0.1727
26777W        W42911  15.062  18.513  14.226  0.0194 -0.0759 -0.1957
26778W        W42912  15.062   5.397   1.169  0.0836  0.0228  0.2197
26779W        W42913   4.231   2.416   0.967 -0.0964 -0.0052  0.2282
26780W        W42914   3.536   4.640   4.410  0.0248 -0.1010 -0.0738
26781W        W42915   0.204   9.196   3.302 -0.0386 -0.0975 -0.0365
26782W        W42916   1.328   2.749  10.238  0.4045 -0.0541 -0.2132
26783W        W42917  18.648  12.117   1.433 -0.0606  0.0041  0.0955
26784W        W42918  16.788   6.329   4.219  0.3026 -0.0223  0.3177
26785W        W42919   0.445  14.422  14.452  0.0159  0.2930  0.0349
26786W        W42920   4.665   5.686   8.802 -0.2353 -0.0472 -0.2199
26787W        W42921   6.205  11.026  14.400 -0.1266 -0.1345 -0.0456
26788W        W42922   7.529  17.777  12.816 -0.1531  0.3473 -0.3443
26789W        W42923  18.967  18.283  12.255 -0.0602  0.1221  0.0365
26790W        W42924  10.650   6.003  14.277 -0.2014 -0.0704 -0.1309
26791W        W42925   0.911   8.379   2.500  0.0601  0.0995  0.1012
26792W        W42926   0.449  16.483   1.882 -0.3880  0.1247  0.0163
26793W        W42927  18.426   5.573   5.306  0.0156  0.4427  0.0748
26794W        W42928   8.722   3.500  11.227 -0.0485  0.1315  0.2891
26795W        W42929  12.944  13.550   3.361 -0.1479  0.0268  0.1435
26796W        W42930  12.731   1.070   3.705 -0.1590  0.4563  0.0820
26797W        W42931   8.104  14.372  12.128  0.0855  0.0573 -0.0204
26798W        W42932  15.602  16.349  12.145  0.0332 -0.1112  0.2651
26799W        W42933   4.418   8.207  10.870 -0.1779  0.1799 -0.0540
26800W        W42934   0.101   7.820  10.939 -0.1273 -0.4673  0.2440
26801W        W42935   9.645   8.102  10.683 -0.3029  0.0853 -0.0215
26802W        W42936  11.603  11.404   2.603 -0.0645 -0.0082  0.1326
26803W        W42937   0.977   1.829   0.919  0.0148 -0.1016 -0.1037
26804W        W42938  12.647   7.287  10.656  0.3055 -0.0636 -0.0127
26805W        W42939   9.786  17.707   6.222  0.2970 -0.0135  0.1631
26806W        W42940  16.104  18.934  13.655 -0.1203  0.4099  0.0245
26807W        W42941  10.447  13.788   2.762  0.0026 -0.0282  0.2140
26808W        W42942  11.859   6.174   4.325  0.2258  0.0993  0.4520
26809W        W42943  18.080   9.998   2.693  0.4377 -0.0567  0.1028
26810W        W42944  16.913  15.688   0.102  0.0496 -0.0839 -0.3254
26811W        W42945  13.497  16.419   0.087  0.0601  0.1607  0.1315
26812W        W42946  13.727  16.372   4.322  0.1058 -0.1813 -0.1221
26813W        W42947   2.824   1.206   2.823  0.0695 -0.1589  0.0687
26814W        W42948   1.517  12.548  12.765 -0.0657 -0.0946  0.2743
26815W        W42949   1.930   2.181   2.205  0.3404 -0.1641  0.1315
26816W        W42950   2.425   0.963   2.125  0.0669 -0.0535  0.1369
26817W        W42951  10.425  11.057   3.922  0.1213  0.0129  0.2794
26818W        W42952   2.677   4.964   0.509  0.0895  0.1224  0.2613
26819W        W42953  11.819   2.288   4.687  0.1382 -0.0636  0.1225
26820W        W42954   9.268  17.001  14.423 -0.3527  0.2264  0.2335
26821W        W42955   4.635  12.752   1.060  0.1039 -0.1816 -0.0037
26822W        W42956  13.149  14.612  12.414  0.0812 -0.1875 -0.2694
26823W        W42957  18.076   2.387  12.864 -0.0913  0.1525  0.1456
26824W        W42958   1.577  17.139  11.874  0.3763  0.0160  0.0386
26825W        W42959   8.478   1.842   2.850  0.0266  0.1718  0.4085
26826W        W42960  11.726   3.740   1.629 -0.1199  0.0063  0.0022
26827W        W42961  10.685  14.924   4.037 -0.0126 -0.0202 -0.3509
26828W        W42962   4.635   7.811   1.413  0.0378 -0.0869 -0.3254
26829W        W42963   7.743  11.577  11.940 -0.0886  0.2873  0.0146
26830W        W42964  11.809   2.716   1.860  0.2743  0.3947 -0.1108
26831W        W42965  11.502   5.093  12.549  0.2842 -0.0531 -0.0700
26832W        W42966   7.000  16.081  13.350  0.1692 -0.0214  0.0951
26833W        W42967  16.412   6.077  14.801 -0.0716 -0.0790  0.1382
26834W        W42968   2.793   3.756  11.468 -0.3661 -0.2982  0.0133
26835W        W42969  18.075  16.060   4.690 -0.0844  0.0531  0.0947
26836W        W42970  13.124   5.261  10.971 -0.0223 -0.1575  0.0628
26837W        W42971   9.278   4.576  11.718 -0.2316  0.1550  0.0341
26838W        W42972  11.113   4.079   2.617 -0.1176  0.3292  0.1254
26839W        W42973   1.576  12.334   2.628  0.0797 -0.0572  0.0346
26840W        W42974   1.167   0.096  10.567  0.0695  0.3347  0.2441
26841W        W42975  12.637  12.929  12.951 -0.1426 -0.1987  0.4200
26842W        W42976  11.615  13.138  12.005 -0.1094  0.1064  0.1177
26843W        W42977   2.917   9.848  12.480 -0.2331 -0.2710  0.0432
26844W        W42978   4.758   8.114  14.260 -0.4660 -0.1339  0.0958
26845W        W42979   8.056  12.682   5.521 -0.3546 -0.2686  0.1066
26846W        W42980   9.173   5.588  10.623 -0.3696 -0.1991  0.0009
26847W        W42981  10.283   6.609   4.952 -0.1393  0.0535  0.0357
26848W        W42982   1.603  10.245   1.040 -0.0597  0.2074 -0.0801
26849W        W42983  13.816  12.584  11.884  0.0357 -0.2035  0.4081
26850W        W42984   6.067  14.114   2.887 -0.0784 -0.0357  0.1585
26851W        W42985  15.937  15.039   2.505  0.3219 -0.0206  0.2649
26852W        W42986  12.993   7.947  11.643  0.1628 -0.2125  0.1430
26853W        W42987   2.025   6.465   4.437  0.2964 -0.4849  0.0723
26854W        W42988  18.923   4.259   2.594  0.0113 -0.1147  0.1403
26855W        W42989   4.698  18.588   3.766 -0.2728 -0.1010 -0.0856
26856W        W42990  16.734  11.805  14.895  0.0337  0.1502 -0.0879
26857W        W42991   6.829  15.265   2.607  0.2616 -0.2043  0.1360
26858W        W42992   0.347   1.114  11.039  0.2040 -0.3067 -0.4013
26859W        W42993   4.254  14.007  13.984  0.0448  0.2807 -0.0328
26860W        W42994   7.431   3.018   2.510 -0.0046  0.0037 -0.1706
26861W        W42995   5.326  17.225   3.078 -0.0573 -0.1515 -0.2935
26862W        W42996  14.660   5.547   0.802 -0.2582 -0.1361 -0.0406
26863W        W42997   5.369  12.651  14.763  0.2260 -0.1732 -0.1804
26864W        W42998   5.681  12.847  10.196  0.1133 -0.0217  0.0665
26865W        W42999  13.887   9.307   2.786 -0.0052  0.1602  0.0224
26866W        W43000  15.156   7.820   4.901  0.1488  0.0275 -0.3498
26867W        W43001  12.606  15.233   2.057 -0.1429  0.0191  0.1759
26868W        W43002   8.503  15.395  14.864 -0.2006 -0.2776 -0.4763
26869W        W43003   4.867   3.005  14.536  0.0458  0.1391  0.2572
26870W        W43004  17.347  13.733  14.120 -0.2169 -0.0917  0.2496
26871W        W43005  19.318  16.540  13.544  0.0619 -0.2357  0.2730
26872W        W43006   4.790   0.397   1.967 -0.0333 -0.1042 -0.1464
26873W        W43007  18.146   2.791  14.190 -0.4415 -0.2493  0.0109
26874W        W43008   2.162  12.060   3.777 -0.0425  0.2397  0.2493
26875W        W43009   4.023   1.903   2.719  0.0479 -0.0769  0.0716
26876W        W43010  16.454   9.298   4.115  0.0019  0.0504 -0.1243
26877W        W43011   4.138   2.854  14.958  0.0386 -0.1532  0.1769
26878W        W43012  19.183   7.417  10.763 -0.1587 -0.0934  0.2292
26879W        W43013   1.381   8.226  12.059  0.0005 -0.1293  0.0486
26880W        W43014   8.955  12.097   3.854  0.1306  0.1514  0.1839
26881W        W43015   6.479   2.047  13.952 -0.0929  0.1852  0.0204
26882W        W43016   4.082   0.432   0.461 -0.0987  0.0384 -0.0103
26883W        W43017  11.805  14.701   4.825  0.0884 -0.2005 -0.0886
26884W        W43018  16.147   1.009  14.139  0.0176 -0.2163 -0.0857
26885W        W43019   9.111  12.690   1.662 -0.1018 -0.1940  0.3712
26886W        W43020   6.923   2.215   5.128 -0.0743  0.0510 -0.1153
26887W        W43021  13.586  18.896  12.389  0.1827  0.2124  0.3762
26888W        W43022   2.078   8.634   1.778 -0.0984  0.1958 -0.4825
26889W        W43023   2.355   1.132  12.293 -0.0332 -0.1332  0.0230
26890W        W43024  19.061   8.193   0.322  0.2885  0.0066  0.1250
26891W        W43025   5.822  17.562   3.046 -0.0962  0.0648  0.0582
26892W        W43026  18.291  17.285   5.312  0.0855  0.3451  0.2163
26893W        W43027  16.851  10.373   4.246  0.0380  0.2970 -0.0308
26894W        W43028  11.110  19.133  14.017  0.2931  0.0989 -0.3392
26895W        W43029  10.058   1.186  13.673  0.2463 -0.1724  0.3644
26896W        W43030   0.329   7.177  12.246 -0.3087 -0.2553 -0.0379
26897W        W43031  18.447  13.065  14.350  0.2476  0.1518  0.1570
26898W        W43032   5.241  15.036   0.925  0.1849  0.1455  0.0721
26899W        W43033   6.087  17.252   4.291  0.0091  0.1969 -0.1863
26900W        W43034   6.451   7.810   0.855 -0.2162  0.1195 -0.4363
26901W        W43035   6.848   5.654   0.858 -0.0176  0.0092  0.0272
26902W        W43036   8.215   7.274   3.657  0.6006  0.0361 -0.1203
26903W        W43037   8.965  10.904  13.525  0.2765  0.0127  0.2016
26904W        W43038   2.373   6.733  12.715  0.3009 -0.0572  0.0455
26905W        W43039  11.700  19.027  10.883 -0.0408  0.2469 -0.5859
26906W        W43040   4.324   7.118   2.498 -0.1673 -0.0805  0.0598
26907W        W43041   2.060  15.060   4.397  0.1974 -0.1347  0.0725
26908W        W43042  16.283  10.563   2.799  0.0534  0.0209  0.5644
26909W        W43043   6.261  13.740   4.740  0.1280  0.0164 -0.2188
26910W        W43044  12.943   9.203  14.655  0.0004  0.2269 -0.1924
26911W        W43045  11.310   1.641   0.378 -0.4874 -0.1836  0.3995
26912W        W43046  15.219  15.578   0.960  0.2187 -0.1598 -0.0368
26913W        W43047  10.901   4.518   4.425 -0.5268 -0.1750  0.1087
26914W        W43048  10.107  14.732   5.531 -0.0971  0.2010 -0.1812
26915W        W43049   6.742   9.838   3.030 -0.2310 -0.1242 -0.1521
26916W        W43050   7.315  12.193  14.407  0.0601  0.4019 -0.3587
26917W        W43051   6.499   6.535   0.810  0.4022  0.1670  0.1127
26918W        W43052   2.305  19.193   4.630 -0.0974 -0.3947  0.0773
26919W        W43053   9.672  13.240   3.383 -0.3184 -0.2576  0.0098
26920W        W43054  11.201   0.952   3.676 -0.0715 -0.1265  0.0175
26921W        W43055  12.082   5.095  13.048  0.3638 -0.0993 -0.2482
26922W        W43056  14.918   0.493   3.943  0.0981  0.1392 -0.1098
26923W        W43057  14.675   5.534   3.636  0.1069 -0.0773 -0.1829
26924W        W43058  14.881  16.293   1.192  0.1126 -0.0033  0.1170
26925W        W43059  17.305  11.568  12.554  0.2011 -0.1135  0.2686
26926W        W43060   7.166   2.911   1.111  0.2276  0.0256 -0.1963
26927W        W43061  18.286  13.644  10.041 -0.0627  0.0252  0.2730
26928W        W43062   2.659  13.868  12.121 -0.0375 -0.1009 -0.1981
26929W        W43063   2.198   6.361  13.603  0.0165 -0.2146  0.3193
26930W        W43064   1.075   9.163   0.057  0.2327  0.1249  0.0470
26931W        W43065   2.238  15.732  14.313  0.0672 -0.1008 -0.5410
26932W        W43066   9.720  14.863  12.317 -0.3337 -0.2976  0.0254
26933W        W43067   5.725  12.742   1.978 -0.1862  0.0837 -0.0947
26934W        W43068  16.367   6.117   1.139 -0.2790 -0.1466 -0.2357
26935W        W43069  17.057  17.857  14.036 -0.1676 -0.3808  0.0323
26936W        W43070   8.903  17.881   0.820  0.2072 -0.2474 -0.1041
26937W        W43071  12.838  17.930  13.966 -0.0545  0.0495 -0.2364
26938W        W43072   0.347  11.999   9.243 -0.1289  0.1836 -0.0378
26939W        W43073  12.178   3.823  12.229 -0.2318 -0.0078  0.2518
26940W        W43074   5.959   4.508  10.512 -0.3239 -0.2657  0.0386
26941W        W43075   6.755  10.557   4.348  0.0429  0.2628 -0.2442
26942W        W43076   7.135  10.780  14.730 -0.1522 -0.1774 -0.0087
26943W        W43077   3.613   7.520  10.680  0.1486 -0.1299  0.0719
26944W        W43078  14.957  14.755  14.120  0.0160  0.0363 -0.1324
26945W        W43079   2.620  15.973   2.029  0.1670 -0.4310  0.0148
26946W        W43080  13.250  13.686   1.875 -0.4223  0.0977  0.1091
26947W        W43081   6.616  18.785  12.980 -0.0624  0.1489 -0.3414
26948W        W43082  10.390  12.480  12.424  0.1852  0.0673 -0.0088
26949W        W43083  14.430  11.189  12.010  0.0041  0.0319  0.1125
26950W        W43084   5.813   9.709   0.440 -0.0667 -0.2602  0.1025
26951W        W43085  14.598   7.117   0.082  0.1559  0.1793  0.0469
26952W        W43086   9.101  11.144  12.855 -0.2270  0.4012 -0.0618
26953W        W43087   6.737  13.953  14.090  0.0155  0.1489 -0.6590
26954W        W43088  16.968  15.704   4.585  0.0849 -0.2913  0.3127
26955W        W43089  17.848  11.456  11.821 -0.0612 -0.1658  0.0159
26956W        W43090  18.674  13.124  14.820 -0.1560 -0.0762  0.5293
26957W        W43091  11.142   0.491   2.307 -0.0590 -0.0611  0.3127
26958W        W43092   2.100  15.786  13.803  0.0722  0.0337  0.0951
26959W        W43093   6.926  19.092  14.497  0.0339 -0.0117  0.0848
26960W        W43094   2.963   9.335   9.790  0.3788  0.1337  0.2075
26961W        W43095   8.863  14.495  14.865 -0.1138 -0.1230  0.0654
26962W        W43096   3.018  16.887   0.228 -0.2193  0.0031 -0.4213
26963W        W43097   0.434   9.215  14.854  0.3428  0.2565 -0.1483
26964W        W43098  15.141   5.200   2.747  0.0038  0.2851 -0.0801
26965W        W43099   5.323  14.561   2.187 -0.1177  0.3374  0.1374
26966W        W43100  19.044   5.742  12.566  0.2244 -0.1138  0.0053
26967W        W43101  12.150   7.573  12.648 -0.0516  0.0078 -0.0468
26968W        W43102   7.024   8.426  12.660 -0.0873 -0.0900 -0.0631
26969W        W43103  11.859  10.722  12.536  0.0551  0.1253  0.4463
26970W        W43104  12.431   5.948  14.369  0.0442  0.3025  0.2156
26971W        W43105  15.932  11.631  12.054 -0.0019 -0.3493 -0.2074
26972W        W43106  11.292  12.947  10.978 -0.2455  0.1734 -0.0161
26973W        W43107  15.137  18.647   5.759  0.2591 -0.2033  0.1261
26974W        W43108   1.715   4.466  14.005 -0.3866  0.0755  0.1353
26975W        W43109   1.890  13.444   1.991  0.0257  0.0344  0.0651
26976W        W43110  18.070  13.150   2.821  0.3378 -0.0475  0.2029
26977W        W43111   7.454   3.734  13.007  0.1761 -0.0360 -0.1440
26978W        W43112  12.845  11.106   2.595 -0.0091  0.2711  0.4385
26979W        W43113  17.125   6.612   1.372 -0.1538 -0.0186  0.0741
26980W        W43114   7.121  12.467   1.561 -0.3456  0.1049  0.0297
26981W        W43115   1.436   4.043   0.517  0.2065 -0.1044  0.1542
26982W        W43116  17.579  14.409   3.763  0.0548 -0.1012  0.0789
26983W        W43117   3.100   4.065   3.528 -0.0173 -0.0008 -0.1822
26984W        W43118  15.351   6.702   1.136 -0.1463 -0.2342 -0.0748
26985W        W43119   4.941  18.818   5.165 -0.0666  0.2910  0.0955
26986W        W43120  14.904  12.692  14.310 -0.1088  0.1495 -0.0289
26987W        W43121   8.699  10.841   1.069  0.1304  0.0501 -0.1852
26988W        W43122   2.216  11.886  11.626  0.2524 -0.0337 -0.0824
26989W        W43123   6.459  16.965   3.794  0.1894 -0.0441  0.2520
26990W        W43124  19.030   6.894  11.698 -0.2701  0.1027 -0.3281
26991W        W43125  16.936   6.026   1.604 -0.3509 -0.0506  0.2822
26992W        W43126  13.115   0.032   3.712  0.2613  0.1619 -0.1666
26993W        W43127   3.588   5.071   9.816  0.2057 -0.0070  0.0222
26994W        W43128  18.146  17.150   2.215 -0.2267 -0.0530 -0.2599
26995W        W43129   6.825  13.844   3.093  0.1050  0.1562 -0.2557
26996W        W43130   6.682   8.098  14.678 -0.1244  0.4165  0.0685
26997W        W43131  17.220   1.380   5.523  0.1191  0.0829  0.1435
26998W        W43132   0.828  17.193   0.387 -0.2345  0.1429  0.0312
26999W        W43133   6.034  16.586  14.649 -0.0642  0.1386 -0.3775
27000W        W43134   9.770   6.957  14.135  0.4588 -0.1134 -0.0625
27001W        W43135   7.087   7.220   4.294  0.0858  0.2639 -0.0598
27002W        W43136  13.956  11.780   4.274  0.0437  0.1419  0.0147
27003W        W43137   9.201  14.709  10.636  0.1752 -0.4054  0.0658
27004W        W43138  14.660   1.977  12.564 -0.1115  0.0449  0.1696
27005W        W43139   9.031   6.119   0.303 -0.2829 -0.2581 -0.2694
27006W        W43140   3.759   9.500   2.301  0.0054  0.0688 -0.2047
27007W        W43141  18.860  13.750   9.955 -0.1054 -0.1115  0.3057
27008W        W43142  14.226  16.340  14.930 -0.2775  0.0318  0.1087
27009W        W43143  17.321   4.233  12.013  0.2749  0.0806 -0.1242
27010W        W43144  11.590  12.999  14.483  0.3123  0.1196  0.1198
27011W        W43145   0.631  15.252   4.768 -0.2239 -0.0442 -0.1036
27012W        W43146  17.180  17.323  14.870  0.0242 -0.1210 -0.3184
27013W        W43147   5.669  16.838  11.037 -0.3175  0.1047  0.1184
27014W        W43148   1.103  11.720   2.045  0.0924 -0.0142  0.2557
27015W        W43149  18.756   4.169  10.750  0.1020 -0.2444 -0.1039
27016W        W43150   9.741  18.117  13.526  0.2542  0.0663 -0.1676
27017W        W43151  15.598   1.374   3.894  0.2156 -0.0425 -0.0682
27018W        W43152  15.105   6.939  14.484 -0.0554 -0.2104  0.3778
27019W        W43153  14.047  11.120  12.395  0.3789 -0.1303  0.1527
27020W        W43154  16.117  17.554  11.880  0.1434 -0.0221 -0.1162
27021W        W43155  17.718  14.611  14.367  0.3442  0.0817  0.0247
27022W        W43156   6.434  11.885   3.521  0.2307  0.1411 -0.0953
27023W        W43157   5.330   6.029   3.621  0.0741  0.0033  0.3448
27024W        W43158  18.778  11.940  14.267 -0.0872  0.1388 -0.3686
27025W        W43159   4.221   9.177   2.847 -0.0203 -0.1396 -0.2375
27026W        W43160  15.537   1.162  11.298 -0.2736  0.1446 -0.0120
27027W        W43161   8.995   0.823  14.495 -0.2420  0.2597 -0.0465
27028W        W43162  15.897   5.869   1.245 -0.3901 -0.3068 -0.1494
27029W        W43163  11.093   3.948  14.512  0.0141  0.1981  0.2743
27030W        W43164   9.373  18.301  13.972  0.0578  0.1395  0.1897
27031W        W43165   3.953  11.683   3.662 -0.3379 -0.0026  0.1637
27032W        W43166  16.776  13.254   5.821 -0.1183 -0.1841 -0.2101
27033W        W43167   2.399   0.697  13.706 -0.0662 -0.4685  0.1453
27034W        W43168   6.741   1.860   0.779 -0.2843  0.0695  0.1831
27035W        W43169  18.043  17.384  10.825  0.1607 -0.2997 -0.2151
27036W        W43170  16.454  12.458   5.497 -0.3066  0.1323  0.2091
27037W        W43171  19.004   2.932   1.622 -0.1168 -0.0880  0.2405
27038W        W43172   1.151   5.668  10.415  0.1259 -0.0920 -0.1893
27039W        W43173  10.509  13.977   4.060  0.1792  0.1096 -0.1474
27040W        W43174  16.934   4.836  12.601 -0.1553 -0.0937 -0.2738
27041W        W43175  16.599  17.826  10.632 -0.0563  0.5204 -0.3844
27042W        W43176  16.706  18.487   0.506 -0.1031  0.2225  0.0561
27043W        W43177  18.831   7.393   3.073 -0.0401 -0.1162 -0.0690
27044W        W43178  10.105   0.939  12.611  0.1429 -0.2814  0.1180
27045W        W43179  18.330   9.670  10.424  0.0306 -0.0217  0.2998
27046W        W43180   2.407   6.940   1.597  0.1008 -0.0286  0.0241
27047W        W43181   2.759   8.719   2.755 -0.0631  0.0402  0.0286
27048W        W43182  18.068  19.125   2.225 -0.1374  0.2120  0.1685
27049W        W43183   3.610   0.277  11.780 -0.0458  0.4849  0.2291
27050W        W43184  18.903   3.995   1.138  0.1261  0.2236 -0.1547
27051W        W43185   6.053   5.261  12.644  0.2378  0.0627  0.1435
27052W        W43186   8.334   6.985   4.784  0.1919  0.0759  0.1061
27053W        W43187  13.837  18.488   4.489  0.0990  0.4436 -0.1276
27054W        W43188  18.515   0.671   0.582  0.0045  0.1070 -0.1094
27055W        W43189  10.458  11.559  12.135 -0.0198 -0.0985 -0.2780
27056W        W43190   1.769   9.849   1.334  0.1335 -0.1353 -0.0943
27057W        W43191   2.214  12.763   0.056 -0.0019 -0.4356 -0.0593
27058W        W43192   8.975   8.537   2.042 -0.4011 -0.0519 -0.0418
27059W        W43193  11.325  13.763   2.985  0.1233  0.0123 -0.1955
27060W        W43194  10.882   9.569  14.467  0.1616  0.3266  0.1652
27061W        W43195  13.192  11.361  13.340  0.3232  0.0730 -0.0569
27062W        W43196   6.352  10.260  14.693  0.0134  0.1016 -0.0163
27063W        W43197  19.234   7.636   0.714  0.1346 -0.0776 -0.2271
27064W        W43198  15.743   7.041  11.659 -0.1371  0.3913 -0.2420
27065W        W43199   1.962   6.740   9.845 -0.2121  0.1334  0.1114
27066W        W43200   0.798   2.297   4.075 -0.1522 -0.0535  0.1165
27067W        W43201  16.379   9.227   9.651 -0.0218  0.3530  0.0613
27068W        W43202   7.354  15.207   6.230  0.0245 -0.1043  0.0704
27069W        W43203  11.918   7.282   1.121  0.4859  0.3240  0.0216
27070W        W43204   2.441   0.901   0.599 -0.3520 -0.1152 -0.0592
27071W        W43205  14.531  19.048  14.886  0.1374 -0.2300 -0.0236
27072W        W43206   5.129  11.389  11.163  0.0062  0.1724  0.1669
27073W        W43207   8.241  14.233   2.707  0.0611 -0.0565  0.1578
27074W        W43208   4.509   4.690   0.585 -0.0283  0.0950  0.0466
27075W        W43209   3.086  16.260   0.341 -0.1116 -0.0098 -0.0941
27076W        W43210  10.748   8.810  12.161  0.1401  0.2026  0.0439
27077W        W43211   5.370   5.019   2.326 -0.1725 -0.0898 -0.0488
27078W        W43212   6.825  10.666   0.197 -0.2401 -0.0375 -0.2192
27079W        W43213   0.854  17.473   4.791 -0.1347 -0.2112  0.1189
27080W        W43214   4.809  12.481  13.090  0.0219 -0.3304 -0.0183
27081W        W43215  18.192  13.745   1.659  0.0836  0.1660  0.3845
27082W        W43216   2.780  12.022  11.421  0.2061 -0.3240 -0.1914
27083W        W43217   3.828   2.677   3.716  0.0720  0.0842  0.1168
27084W        W43218  18.559   3.755  11.784 -0.1002  0.1063  0.1170
27085W        W43219  13.827   5.923   3.538 -0.1721 -0.1326  0.2578
27086W        W43220  18.471   2.409   0.488  0.3832 -0.1719  0.0570
27087W        W43221  18.303   5.078   2.985  0.1779  0.0679 -0.1051
27088W        W43222   8.939  13.421   3.355  0.0733  0.0256  0.1766
27089W        W43223   8.540   9.623   4.247  0.2220  0.1372 -0.1224
27090W        W43224  10.866   0.480   4.837 -0.0324  0.1594  0.0082
27091W        W43225  14.961  16.295  10.335  0.1657  0.0008 -0.0029
27092W        W43226  18.991  18.553  11.465 -0.1709  0.1913 -0.1317
27093W        W43227  13.009   2.110  10.330  0.0848  0.1367 -0.0072
27094W        W43228   3.121  11.962  10.386  0.1186  0.0489  0.0901
27095W        W43229  18.421   8.118   2.413 -0.1631  0.0079  0.0590
27096W        W43230  11.578  11.324   0.753 -0.1230 -0.1967 -0.1670
27097W        W43231   6.907  19.260  12.944  0.0358 -0.2467  0.2321
27098W        W43232   6.775   4.330   1.393 -0.1192  0.0450  0.1605
27099W        W43233  18.157   2.446  11.325  0.4281  0.0311 -0.1664
27100W        W43234  10.602   1.614  12.413 -0.1652 -0.2358  0.1027
27101W        W43235  14.749   6.528  14.262  0.0350  0.5469  0.0527
27102W        W43236  16.253   3.743   0.750  0.0758 -0.1025  0.0443
27103W        W43237  10.438   5.131  12.294 -0.2768  0.1975 -0.2126
27104W        W43238   7.688  14.613   4.299  0.1289 -0.0274 -0.0067
27105W        W43239   6.965  10.631  11.494 -0.0197 -0.1543  0.1898
27106W        W43240  18.738  11.131   0.486  0.0226  0.0886  0.2510
27107W        W43241  14.107   7.626  11.189  0.2549 -0.1337 -0.0574
27108W        W43242  13.579   9.271  10.667 -0.2339 -0.1514 -0.1253
27109W        W43243  12.754  10.483   5.024  0.1629  0.0601 -0.6562
27110W        W43244   4.737  19.333   4.592 -0.1397 -0.0605 -0.0486
27111W        W43245   4.524   7.094  11.893 -0.5111 -0.1404  0.2311
27112W        W43246   2.125   9.171   2.503  0.1631 -0.0007  0.0057
27113W        W43247  14.035   2.208   3.438  0.2305  0.2182 -0.1004
27114W        W43248  11.841   0.729   4.932  0.1013  0.0967  0.1057
27115W        W43249   7.592   9.028   0.733 -0.0339  0.0804  0.0426
27116W        W43250  17.022   2.028   2.459 -0.1750 -0.0103  0.3275
27117W        W43251   4.660  11.265  12.816  0.2194 -0.2058 -0.0325
27118W        W43252  12.542   7.657   3.111  0.0952  0.0199  0.0298
27119W        W43253  17.540  16.458  11.239  0.3771 -0.0966 -0.1479
27120W        W43254   6.447   3.555   4.539  0.4957 -0.0271  0.0223
27121W        W43255   1.517  13.269  14.054  0.1754 -0.0554  0.0761
27122W        W43256  17.650  18.027   1.721  0.2188 -0.2598  0.2701
27123W        W43257   2.122  16.224  12.926  0.3470 -0.3948 -0.2679
27124W        W43258  18.908  14.780   4.201 -0.1185 -0.1669 -0.2798
27125W        W43259   5.144  16.577  13.741 -0.0577 -0.0745 -0.1575
27126W        W43260   0.843  11.302  10.279 -0.0755  0.2468 -0.0455
27127W        W43261   3.798  11.561  14.100  0.2618 -0.1604  0.0681
27128W        W43262   6.708  15.703  13.929 -0.2487  0.2360  0.1674
27129W        W43263  16.258  11.639  12.441 -0.0433 -0.1675  0.1845
27130W        W43264   8.674  15.246  12.464  0.0970 -0.0094  0.2837
27131W        W43265  10.929   4.027  14.068  0.3874 -0.1645 -0.0197
27132W        W43266   9.418  12.624  13.506 -0.0768 -0.0453  0.2110
27133W        W43267  14.470  12.771   0.974  0.1567  0.0333  0.0924
27134W        W43268   2.631   5.949   0.458  0.1161 -0.1531  0.0992
27135W        W43269  10.463  16.759  14.596  0.1829 -0.1582  0.1348
27136W        W43270  19.202  12.977  10.277  0.0965 -0.5240  0.1425
27137W        W43271  11.786  13.079   0.199 -0.5111 -0.3404 -0.1497
27138W        W43272   8.716  12.545   0.884  0.1811  0.0355 -0.0491
27139W        W43273  19.148   4.819   1.075  0.0150  0.3090 -0.0137
27140W        W43274  17.140  12.655   3.705 -0.2021 -0.1861 -0.0208
27141W        W43275   0.555   2.000  12.474 -0.1547  0.2553  0.1901
27142W        W43276  17.429  17.406   1.630  0.0947  0.3716  0.0040
27143W        W43277  17.534  12.972  11.978  0.1116 -0.3042 -0.4393
27144W        W43278   4.123   2.203  13.633  0.0852 -0.1112  0.3808
27145W        W43279   0.437   2.473  11.234  0.2105  0.0071 -0.3261
27146W        W43280   4.578   6.107  11.619  0.1700  0.1414 -0.2011
27147W        W43281   1.636  18.382   0.969 -0.1253 -0.3592 -0.0797
27148W        W43282   1.568  10.260   0.036 -0.0422 -0.1385 -0.1032
27149W        W43283   4.062  11.489   3.104  0.1268  0.1517 -0.3605
27150W        W43284  13.137   1.641   0.527 -0.0212 -0.0516 -0.0341
27151W        W43285   6.153  10.480  12.563 -0.0290 -0.0086 -0.0308
27152W        W43286   5.830   6.536  13.230  0.3359  0.0969  0.0747
27153W        W43287  13.449   0.072  14.679  0.2044  0.0051 -0.0012
27154W        W43288  10.726  12.989   5.208  0.1236  0.1736 -0.1263
27155W        W43289  18.411  18.043   4.084  0.1079 -0.2021  0.1639
27156W        W43290   2.648  17.207   4.788  0.1017 -0.2582 -0.0474
27157W        W43291   1.413  17.686  10.483 -0.2208  0.1279 -0.1849
27158W        W43292   3.551   7.743   9.748 -0.0440 -0.0684 -0.0304
27159W        W43293  17.043   5.165  13.351  0.1374  0.1359  0.2288
27160W        W43294  13.429  11.872  13.394  0.0573  0.0149  0.2119
27161W        W43295   2.729  18.263  14.855  0.2210  0.1154  0.0359
27162W        W43296  10.733   2.121   2.153  0.0270 -0.0414  0.3861
27163W        W43297  14.945  12.835   9.720  0.0440  0.1641 -0.1468
27164W        W43298   9.834  18.551   2.414  0.0578  0.0843 -0.1975
27165W        W43299  16.083   5.050  13.257 -0.3721  0.2563  0.6538
27166W        W43300   8.010   8.101  11.938  0.4294 -0.0061 -0.3325
27167W        W43301   5.963  15.791   3.811 -0.1174 -0.1651 -0.5563
27168W        W43302  12.188  18.987   1.320  0.0384  0.0613  0.3553
27169W        W43303  14.862  14.806  14.644  0.1276 -0.0494  0.0944
27170W        W43304   9.703   6.843   3.832 -0.3720 -0.0913  0.0203
27171W        W43305  18.306   3.736   4.489  0.1626  0.3456 -0.0908
27172W        W43306   8.989  18.457   1.010 -0.2350 -0.0418  0.1984
27173W        W43307  13.243  12.157   5.162 -0.0464 -0.0541  0.0497
27174W        W43308  19.286   0.161  11.134  0.0985 -0.2546  0.1228
27175W        W43309  18.614   5.199   0.412 -0.0303  0.1329 -0.2553
27176W        W43310   5.992  13.048  12.159  0.1072  0.0299 -0.0160
27177W        W43311   2.345  15.808   5.144  0.1994  0.0200  0.0507
27178W        W43312  15.637  14.778  11.525  0.0574  0.2382 -0.0182
27179W        W43313   9.827   1.533   0.731  0.4236  0.0100 -0.1932
27180W        W43314   3.846   8.199  13.485 -0.2870  0.1395 -0.0812
27181W        W43315   6.539   2.991   2.344  0.1590 -0.1438 -0.2372
27182W        W43316   1.669  11.443   0.935 -0.0328 -0.3751  0.4463
27183W        W43317  14.867  16.695  13.413  0.0008  0.0543 -0.2728
27184W        W43318  15.843   6.931   4.829 -0.0772 -0.0655  0.0555
27185W        W43319   2.509   3.908  13.725 -0.2488 -0.2290  0.2180
27186W        W43320  12.293   6.082   0.255 -0.0364  0.3551  0.1930
27187W        W43321  17.960   7.637   9.110 -0.0628 -0.5296 -0.0248
27188W        W43322   5.199   6.814  11.341 -0.1218 -0.0612 -0.0724
27189W        W43323   1.245  15.206   1.447  0.0170 -0.1830  0.1535
27190W        W43324  17.376   1.124  12.036 -0.1162 -0.0803 -0.2844
27191W        W43325   0.682   7.908   5.157  0.1649  0.0132 -0.0734
27192W        W43326   8.570   8.233   1.961  0.0739  0.2130  0.0616
27193W        W43327  14.507   0.704   0.738 -0.2277 -0.0081  0.2441
27194W        W43328  18.412  10.949   2.210 -0.3177  0.1951  0.1969
27195W        W43329   9.278   6.878   4.288 -0.0380 -0.0293 -0.0564
27196W        W43330   2.680   9.871   4.466  0.0575  0.1275 -0.2575
27197W        W43331   5.880   7.245  12.640 -0.4037  0.2336  0.2891
27198W        W43332  13.460   2.175  14.851 -0.2087  0.2989  0.0250
27199W        W43333   2.134  10.571   4.075 -0.1281 -0.3239  0.1832
27200W        W43334  13.009  12.258   3.635 -0.3283  0.1148  0.0273
27201W        W43335   1.980   9.728  13.805  0.2459 -0.1359 -0.2643
27202W        W43336   0.996  17.038   5.033 -0.1621 -0.0064 -0.1114
27203W        W43337   3.165   7.233   3.918  0.0905  0.2956 -0.4211
27204W        W43338  19.280  10.323  12.851 -0.1491  0.2169  0.0277
27205W        W43339  14.384   9.065   3.210 -0.2467 -0.1788 -0.2376
27206W        W43340   8.709  10.290   0.310  0.4783  0.2990 -0.1942
27207W        W43341   6.798   3.537   2.479  0.2342 -0.4425 -0.0096
27208W        W43342   7.215   0.512  13.733  0.0857  0.3110  0.2411
27209W        W43343   3.415  16.586   1.575 -0.2262  0.1987  0.1693
27210W        W43344   8.380  15.773   2.057 -0.3043 -0.1220  0.1531
27211W        W43345  16.473   5.388  14.076 -0.1895 -0.2093  0.0690
27212W        W43346   0.334  10.330   1.617 -0.0344  0.1212  0.3307
27213W        W43347  18.773  15.757  11.401 -0.2587 -0.0155  0.2006
27214W        W43348   9.883  17.130  12.959 -0.0656 -0.0809  0.0857
27215W        W43349  10.633   0.033   4.066 -0.1502 -0.1676 -0.1103
27216W        W43350   9.317   9.031   5.399  0.0544 -0.1846  0.2604
27217W        W43351   0.581   5.297   3.457 -0.1169  0.2675  0.0943
27218W        W43352   8.565   1.830  13.391  0.3272 -0.2758 -0.1213
27219W        W43353  14.679   2.082   3.761 -0.0823 -0.1261 -0.1305
27220W        W43354   6.408   0.973  12.735 -0.0625  0.1308 -0.0778
27221W        W43355  10.533  13.211   2.810  0.0333  0.1417  0.0788
27222W        W43356  14.682  17.065  12.358 -0.2888  0.0035  0.0217
27223W        W43357   6.251   1.716   0.870  0.0360 -0.2516  0.0048
27224W        W43358   9.354   7.461   2.291 -0.0263  0.1412  0.0745
27225W        W43359   4.167  16.947   2.199  0.1105 -0.0030 -0.0852
27226W        W43360  13.616   6.189  13.640 -0.0213 -0.0572 -0.0075
27227W        W43361   1.005   8.130  14.571  0.1388  0.0185 -0.2722
27228W        W43362  15.518  11.873  13.013 -0.2956 -0.0902 -0.3442
27229W        W43363   4.149   2.208   3.785 -0.0123  0.1147  0.2508
27230W        W43364   3.554  18.807   4.873 -0.1355 -0.3475 -0.0512
27231W        W43365  14.607  18.117   4.240  0.1274  0.1356  0.0074
27232W        W43366  16.298  10.833   9.573  0.0545  0.1026  0.2128
27233W        W43367  14.746  18.568   4.084 -0.1755  0.0211  0.2880
27234W        W43368   4.316  11.751  13.209  0.2218  0.3307  0.1743
27235W        W43369   2.458   4.448   2.150 -0.1235  0.0679 -0.1148
27236W        W43370  17.138   4.404  12.941  0.0336 -0.0891  0.2297
27237W        W43371  12.516   4.713  10.779  0.0693 -0.0278 -0.0295
27238W        W43372   5.643  13.669  10.671  0.0282  0.1123 -0.2127
27239W        W43373  15.202   9.892  13.733  0.0212 -0.0557  0.1198
27240W        W43374  17.341   2.984  12.565 -0.1749  0.0531  0.2350
27241W        W43375   4.049  14.673   5.255  0.0156 -0.2532 -0.0554
27242W        W43376  11.897  10.025   0.083 -0.3602 -0.1155  0.1257
27243W        W43377  10.630  11.486   2.440  0.2430 -0.2124  0.3468
27244W        W43378  12.514   7.778  13.196  0.2743 -0.0504  0.3630
27245W        W43379  16.259   8.711   2.902  0.3177 -0.3354  0.0006
27246W        W43380   3.377  13.577  10.838  0.0218  0.3847  0.3717
27247W        W43381  16.020  16.884   2.851  0.1581 -0.0963 -0.0879
27248W        W43382   1.766   6.104  11.495  0.1796 -0.2421 -0.1380
27249W        W43383  12.251   7.004   4.524  0.2428 -0.3804 -0.2367
27250W        W43384   8.841  18.683   4.105  0.0613 -0.0610  0.2739
27251W        W43385  18.858   7.765  14.432 -0.0295 -0.3833 -0.0891
27252W        W43386   1.769  15.709   0.543  0.3063 -0.1383  0.3321
27253W        W43387  18.540  15.515   4.470  0.3779  0.0208  0.1282
27254W        W43388  12.501   1.785   1.985  0.0784  0.1665 -0.0952
27255W        W43389   2.811  11.982  12.897 -0.1407 -0.0598  0.0636
27256W        W43390  15.952  12.761   3.054 -0.0122  0.2153  0.2194
27257W        W43391   7.815   4.029   9.165  0.0232 -0.5277 -0.0898
27258W        W43392   1.167  11.568  10.755  0.1281 -0.0534  0.3974
27259W        W43393   0.644  13.661  13.575 -0.0687 -0.2375 -0.1201
27260W        W43394  13.688  10.610   3.941  0.1573 -0.0983  0.0458
27261W        W43395  14.669  11.607   0.007 -0.1489 -0.0229 -0.0062
27262W        W43396  15.324   9.649   4.989 -0.5678  0.0752 -0.1189
27263W        W43397   2.225  15.974   1.576  0.2210 -0.1218 -0.0300
27264W        W43398  13.909   6.969  11.798  0.3351  0.1705 -0.0973
27265W        W43399   7.745   2.429  11.228 -0.3170  0.2956  0.1799
27266W        W43400   7.573  18.612   4.673 -0.1312 -0.1134  0.1900
27267W        W43401  13.825  12.278   2.411 -0.0737 -0.4237 -0.3292
27268W        W43402  15.666   4.554   4.205 -0.1647 -0.2679  0.1928
27269W        W43403   7.266   5.724  11.285 -0.2388 -0.1860 -0.0789
27270W        W43404  15.313  16.542  13.282  0.1980  0.2793  0.2210
27271W        W43405  11.503  13.935  12.477  0.3009  0.2833 -0.3530
27272W        W43406  17.269   5.221  10.217  0.3327 -0.5315  0.1838
27273W        W43407  14.017  10.925   3.963 -0.1882 -0.0352 -0.0439
27274W        W43408  13.924   8.503  13.463 -0.2066  0.3144  0.0259
27275W        W43409  18.172  14.198  11.853  0.1905 -0.3472 -0.1349
27276W        W43410  15.592  10.933   5.578  0.0630 -0.0015 -0.1652
27277W        W43411   0.508  16.679  12.205 -0.1157  0.4987 -0.1166
27278W        W43412   7.850   4.112   3.340 -0.0968 -0.3184  0.1960
27279W        W43413   5.490   2.090   1.407 -0.3931  0.0867 -0.1670
27280W        W43414   8.874  11.022  11.909  0.3477 -0.0902 -0.0892
27281W        W43415   5.306   2.743  10.704  0.1309 -0.0687  0.0747
27282W        W43416  14.239   6.071   0.783  0.0081  0.0140 -0.0281
27283W        W43417   2.328   6.150   2.174 -0.0006  0.0423 -0.3417
27284W        W43418   8.971   4.809  12.085  0.0876  0.0597  0.2199
27285W        W43419  11.335  18.811   1.473  0.0034  0.0648  0.1967
27286W        W43420  14.358   7.541   0.960  0.0482 -0.3071 -0.0664
27287W        W43421  15.383   1.453  10.896 -0.2156  0.0980  0.4142
27288W        W43422   4.501  10.440   4.014  0.4555 -0.1844 -0.0177
27289W        W43423   4.141   7.169   3.756 -0.2917 -0.6299 -0.0789
27290W        W43424  17.071   4.468  11.595  0.0485  0.2616 -0.2446
27291W        W43425   4.515  16.568   0.569 -0.4723 -0.1398  0.0261
27292W        W43426  11.941  10.170   3.429 -0.0629  0.3483  0.4130
27293W        W43427  18.571   0.933   2.611 -0.0158  0.0775  0.1563
27294W        W43428  11.025  15.785   0.940 -0.0697  0.0811 -0.1787
27295W        W43429   1.096   7.561   3.431 -0.1048 -0.0387 -0.2558
27296W        W43430  14.384  16.249  12.615  0.2282  0.1694 -0.2393
27297W        W43431  14.789   9.179   2.659 -0.0654  0.2234  0.1441
27298W        W43432   3.873  15.838  13.716  0.1439  0.1005  0.0525
27299W        W43433  11.262  17.750   1.707 -0.1702 -0.2097  0.2939
27300W        W43434  11.787  17.131   1.084 -0.2402  0.0294  0.1795
27301W        W43435   6.530  10.879  13.478  0.1384 -0.1469 -0.2148
27302W        W43436  16.386  15.698   3.237  0.0262 -0.0229 -0.0032
27303W        W43437  15.999  17.830   3.524  0.2857  0.1249 -0.0460
27304W        W43438  14.144  13.860   4.941 -0.1590  0.2605  0.1496
27305W        W43439  18.358  16.623  12.323 -0.0312  0.1195  0.0502
27306W        W43440  16.886  11.339  11.500  0.0197  0.0654 -0.1469
27307W        W43441   5.413   6.833  10.907 -0.1370  0.0462 -0.1159
27308W        W43442   5.573   7.316  11.069 -0.0307  0.1303 -0.1142
27309W        W43443  18.598  16.190   0.351 -0.1979  0.1400 -0.1558
27310W        W43444  10.788  18.860  13.796  0.2472 -0.1821 -0.1932
27311W        W43445  11.958   9.155   0.242  0.3267  0.1304 -0.2161
27312W        W43446   1.851   3.651   4.625  0.1594  0.0554  0.0513
27313W        W43447  14.191  14.737  11.693 -0.0945 -0.2586  0.1238
27314W        W43448  14.033   3.638   4.532  0.0460 -0.1070  0.1918
27315W        W43449   0.106   6.878  11.442  0.2625  0.0395  0.4528
27316W        W43450   8.850  15.934   1.495 -0.0363 -0.4290  0.0076
27317W        W43451   3.326   4.640   0.417 -0.2170 -0.0344  0.3389
27318W        W43452   6.014   6.552   2.377  0.0714  0.1544  0.0176
27319W        W43453  18.530  14.872  11.607  0.1426  0.2406  0.0268
27320W        W43454   8.035   0.439   3.883  0.0734 -0.1506 -0.3841
27321W        W43455  17.513   7.146   2.177  0.2279  0.0364  0.1314
27322W        W43456  16.375   0.266  10.975 -0.1469  0.1750  0.0679
27323W        W43457   1.361   0.103   2.445 -0.0095 -0.1790 -0.3257
27324W        W43458   0.649  15.808  13.536 -0.2947 -0.3134  0.0909
27325W        W43459  10.325  18.875  12.900  0.1550 -0.3219  0.0962
27326W        W43460  17.510   1.058  14.539  0.5492  0.1072  0.1018
27327W        W43461   4.143  17.396  14.165  0.2477 -0.1110  0.0814
27328W        W43462   1.041   8.789  12.883 -0.1448 -0.1951 -0.1676
27329W        W43463   1.925  13.507   4.077  0.0902  0.0085 -0.5266
27330W        W43464   8.797  14.980  14.669  0.1013  0.0066 -0.0212
27331W        W43465   0.975  10.907   9.919 -0.2135  0.1145 -0.1218
27332W        W43466   1.815  16.292   0.045 -0.2300  0.1502 -0.0441
27333W        W43467   8.810   7.493   0.660 -0.1768  0.1692  0.1338
27334W        W43468   2.636   8.683  14.564 -0.1978 -0.1059  0.0383
27335W        W43469  13.454  15.671  10.252  0.1253 -0.0394 -0.0713
27336W        W43470  14.256  15.672  11.826 -0.0053 -0.1237 -0.0832
27337W        W43471   7.760   5.687  11.164  0.0921  0.1189  0.2140
27338W        W43472   2.886  11.246  13.804 -0.4122  0.0783 -0.2245
27339W        W43473   6.279   7.532   3.348  0.1417 -0.2206 -0.6282
27340W        W43474   2.174  15.212   3.047 -0.0097 -0.1986  0.0477
27341W        W43475   4.868  13.002  11.035  0.5010  0.0520 -0.2514
27342W        W43476   6.585   3.556   0.552  0.1645  0.2411 -0.1877
27343W        W43477   5.849   9.151  10.769 -0.1053  0.0833  0.5885
27344W        W43478  12.525  13.502  11.915 -0.1262 -0.0701  0.1350
27345W        W43479  18.484  14.006  11.009  0.4635 -0.3261 -0.1604
27346W        W43480  10.393   5.557  10.320 -0.1363  0.2868 -0.1667
27347W        W43481  10.123  12.155   0.004  0.3715 -0.2413 -0.1283
27348W        W43482  10.418   1.465   0.019 -0.1779 -0.1260 -0.1077
27349W        W43483   4.422  14.099   4.638  0.4071 -0.2947 -0.1450
27350W        W43484   6.332   3.128   0.772  0.0436  0.1351 -0.3099
27351W        W43485   7.184   2.965  10.562  0.0683  0.1270  0.1158
27352W        W43486   1.327   3.181  14.720  0.1656 -0.1844 -0.1307
27353W        W43487   2.699  14.020  13.132  0.0466 -0.1879  0.1611
27354W        W43488  13.698   4.498  11.584  0.1133  0.4674 -0.0445
27355W        W43489   3.297   8.857  11.722  0.3459 -0.0167  0.1237
27356W        W43490  18.357  10.369   2.339  0.1169 -0.1459 -0.2793
27357W        W43491   2.342   2.185  13.914 -0.0632 -0.0958  0.0132
27358W        W43492  16.529   0.720  13.043 -0.1686 -0.1600  0.0857
27359W        W43493  10.413   5.207   4.696 -0.0244  0.1264  0.0939
27360W        W43494  15.905   9.476   1.648 -0.1062  0.2648 -0.1659
27361W        W43495   3.695  16.725  10.904  0.2444  0.1709 -0.1333
27362W        W43496   9.333   8.711   4.399 -0.4169 -0.1036  0.2143
27363W        W43497  10.473  12.723   0.190  0.2358 -0.0984 -0.1036
27364W        W43498   0.454  12.414  14.170  0.1771 -0.0013  0.3133
27365W        W43499  10.890  12.491  13.660  0.2705  0.2389  0.2229
27366W        W43500  15.069   5.868   0.924 -0.0007  0.0018 -0.1699
27367W        W43501  13.043  12.802  10.769  0.3786  0.3867  0.0501
27368W        W43502  10.426  19.205  14.744 -0.0732 -0.0947  0.1893
27369W        W43503   5.428   7.505  12.536 -0.4626  0.0084 -0.1643
27370W        W43504  16.493  10.834   0.477 -0.0193 -0.2905  0.1139
27371W        W43505  12.937   7.548  11.952 -0.2749  0.0874 -0.1399
27372W        W43506   7.804  18.606  12.070  0.0481 -0.2539  0.1481
27373W        W43507  14.277   4.176  14.075  0.2769  0.0401  0.0264
27374W        W43508   6.952  11.440  11.170 -0.0482  0.1287 -0.0782
27375W        W43509   9.990   8.682   1.678  0.0297 -0.0599 -0.1470
27376W        W43510   0.848  17.992  11.780  0.0583  0.2287 -0.2660
27377W        W43511   0.711  12.128   3.436 -0.3396 -0.1265 -0.0763
27378W        W43512   5.691  11.383   0.311 -0.3860  0.0910 -0.3282
27379W        W43513  19.188  13.458   5.042  0.3531 -0.2288 -0.0584
27380W        W43514   7.801  19.181   1.052  0.1929  0.1320 -0.0782
27381W        W43515  17.797   8.284   3.770 -0.0102 -0.1635  0.5096
27382W        W43516   6.592   5.297   1.170  0.1927  0.0320 -0.0190
27383W        W43517  14.790   6.002   3.467 -0.2057 -0.3379  0.0929
27384W        W43518  11.336   4.742   5.437 -0.1490  0.1440 -0.0790
27385W        W43519   8.660  10.609  13.777 -0.2401  0.0830  0.1236
27386W        W43520   5.238  14.546   0.482  0.0066 -0.1759 -0.1742
27387W        W43521  16.690  18.316   4.487  0.0801 -0.1379  0.1926
27388W        W43522  10.712   8.302   1.522  0.3630  0.1370  0.1215
27389W        W43523   3.449   6.199  13.929 -0.1735 -0.0337 -0.1284
27390W        W43524  17.515  13.799  12.550 -0.0234  0.1744 -0.0899
27391W        W43525   8.673   5.765   4.972 -0.3973  0.1719 -0.1272
27392W        W43526  14.845   3.223  13.775  0.0884 -0.0669 -0.1333
27393W        W43527   4.219   1.630  10.680  0.0264 -0.0988  0.1625
27394W        W43528  14.487   6.456   0.184  0.0329 -0.0961  0.0417
27395W        W43529   4.277  13.078  12.230  0.2299 -0.1900 -0.1129
27396W        W43530  14.506   2.507  12.730 -0.2064 -0.4568  0.3666
27397W        W43531  17.934  10.806  12.601  0.0987  0.0061  0.3819
27398W        W43532   2.197  15.959   0.757  0.1951  0.0883 -0.0355
27399W        W43533   4.239  15.106   1.300  0.0608 -0.0235  0.1907
27400W        W43534  12.791   8.761  11.579  0.0141 -0.1409  0.1068
27401W        W43535   0.944   4.595  14.130  0.0050  0.1791  0.0795
27402W        W43536  11.886   0.808  10.962 -0.2551  0.0727 -0.2167
27403W        W43537   1.809   5.876   0.522  0.0207 -0.3443  0.0846
27404W        W43538  13.034   3.639  13.584  0.0521 -0.3652 -0.2678
27405W        W43539  12.855   8.556  14.596  0.3074  0.0153 -0.1769
27406W        W43540  15.228  17.424   1.494 -0.0816 -0.1996 -0.0619
27407W        W43541   0.857   9.258  13.872  0.3724  0.0487  0.1792
27408W        W43542  17.409  17.916   4.711  0.1013  0.2534  0.0021
27409W        W43543  10.692   1.287   3.610 -0.1131 -0.0336 -0.1280
27410W        W43544   3.442  15.952   0.700  0.2504 -0.1179  0.1172
27411W        W43545  16.313  14.039  11.190 -0.3160  0.2456  0.3787
27412W        W43546   4.331  17.429  13.689 -0.4917 -0.2066  0.1552
27413W        W43547   4.047   5.589  10.384  0.0246  0.2587 -0.2919
27414W        W43548   2.119   6.947  11.835 -0.1145 -0.2060 -0.0807
27415W        W43549  12.424   7.696  11.062  0.0466 -0.1101  0.3247
27416W        W43550  17.779  10.828  13.503 -0.3904 -0.4563 -0.1288
27417W        W43551  14.987  17.967   6.258 -0.0358  0.0655  0.0543
27418W        W43552  18.721   7.892  13.131  0.0908 -0.0455 -0.1413
27419W        W43553  18.614   4.104  12.195  0.2470 -0.0484 -0.4921
27420W        W43554  18.762   9.556  12.580 -0.0872  0.1331 -0.0958
27421W        W43555   1.590  15.619  11.029  0.0614 -0.1403  0.0519
27422W        W43556  11.159   0.894   2.754  0.1230 -0.1301  0.0145
27423W        W43557   3.480  18.606  11.786 -0.0088  0.0915 -0.3138
27424W        W43558  11.928  16.190   6.587 -0.0266  0.1981  0.0839
27425W        W43559  16.213  18.602   1.694  0.2677  0.3411  0.3420
27426W        W43560   3.112  18.610   2.435  0.0590  0.0375  0.4601
27427W        W43561  18.447  10.813   4.264 -0.3813 -0.1063  0.2340
27428W        W43562  19.176  12.012   1.403 -0.0205 -0.2536  0.0618
27429W        W43563  11.610   5.916   2.866 -0.3260  0.0569 -0.1878
27430W        W43564  18.189  18.204  14.340  0.2710 -0.1333  0.1858
27431W        W43565   7.775  16.840   2.441  0.1469 -0.0495 -0.5613
27432W        W43566  19.169   6.483   1.588 -0.3666 -0.0404 -0.1925
27433W        W43567   4.407   7.405   0.386  0.1417 -0.0624  0.0759
27434W        W43568  12.093   3.094  13.983 -0.2242 -0.1204 -0.0723
27435W        W43569   2.791  15.773  12.714  0.1299 -0.0586 -0.1771
27436W        W43570  16.030  14.428  14.466  0.0007  0.0755 -0.1218
27437W        W43571  12.148  17.089  11.334 -0.0956  0.2370 -0.3680
27438W        W43572  13.035  10.801  14.806 -0.4994  0.3537  0.0795
27439W        W43573   1.299   2.594   1.090  0.0139 -0.1049  0.3083
27440W        W43574  15.106  15.841  13.933 -0.1241 -0.0463  0.1528
27441W        W43575  15.305  16.358   4.184 -0.2052  0.1041 -0.0840
27442W        W43576   7.396   5.037  13.492 -0.1411 -0.3353  0.2289
27443W        W43577   3.052   5.332   0.959  0.0309 -0.0214  0.0747
27444W        W43578   3.925  11.931   3.215 -0.0520 -0.0910 -0.0016
27445W        W43579  17.233  17.639   3.326  0.1489  0.0095  0.1145
27446W        W43580  12.302   5.649   1.369 -0.2301 -0.0102 -0.1297
27447W        W43581   1.372  14.666  14.049 -0.4795  0.3052  0.1436
27448W        W43582   9.235   1.246   5.038  0.2033 -0.2550 -0.0380
27449W        W43583   4.264   6.363  12.598  0.3245  0.0371  0.1616
27450W        W43584  13.758   1.740  11.379  0.0220  0.0528  0.1180
27451W        W43585   2.353   9.453  13.583 -0.0905  0.1172  0.0501
27452W        W43586   6.240   8.778   0.699 -0.0582 -0.1070  0.2112
27453W        W43587   1.179  17.485   4.264 -0.2573 -0.0291 -0.0736
27454W        W43588  14.214   7.391   4.779  0.0567  0.2395 -0.0470
27455W        W43589  19.272  17.702  13.923 -0.0109  0.0835  0.0108
27456W        W43590   9.116   3.711  10.969  0.1846 -0.1997 -0.1921
27457W        W43591   8.756   9.096   1.611 -0.2889 -0.1181  0.3489
27458W        W43592  12.078  12.117   1.378 -0.2538  0.1384  0.1536
27459W        W43593   2.954  12.063  14.271 -0.2771 -0.2235  0.0480
27460W        W43594   2.530  13.717  13.940  0.3591  0.0546 -0.1005
27461W        W43595   4.251   8.788   1.994  0.1493 -0.0934  0.1410
27462W        W43596   8.884  15.930  11.976 -0.4522  0.4838  0.0241
27463W        W43597   1.145  18.127  13.527  0.4623 -0.1084 -0.3993
27464W        W43598   0.412   9.858   3.839  0.1847  0.1177 -0.0178
27465W        W43599  12.985  19.129  13.494 -0.0713  0.1682 -0.0022
27466W        W43600   8.558  16.594  14.013 -0.2076 -0.0878 -0.4432
27467W        W43601  10.450  15.022   3.595  0.0235  0.4274 -0.0347
27468W        W43602  10.006  10.876  14.662 -0.2788  0.2030 -0.0222
27469W        W43603   7.101   1.001   5.518 -0.1344 -0.1222 -0.1832
27470W        W43604  12.100   0.515  14.261 -0.1623  0.1607  0.1115
27471W        W43605   5.355   9.340  10.920  0.1379 -0.1433 -0.0761
27472W        W43606  11.245  12.617   3.045  0.2138  0.0442  0.4032
27473W        W43607   4.317   4.988   0.196 -0.0857 -0.0408 -0.1709
27474W        W43608  19.101   1.855   4.599  0.0352  0.0111 -0.2338
27475W        W43609   9.419   4.556   2.447 -0.0087  0.4931 -0.1087
27476W        W43610  15.748  14.271   1.023 -0.1233  0.0026  0.0416
27477W        W43611   3.142   0.728  12.077 -0.0905 -0.0148 -0.1298
27478W        W43612  13.589  16.347  11.981  0.2705 -0.0029  0.2332
27479W        W43613   6.705   8.381   3.659  0.0366  0.0721 -0.0979
27480W        W43614  13.179  10.094  14.253  0.3178  0.1395  0.0062
27481W        W43615   2.957  16.710  12.599  0.0999  0.3020  0.4890
27482W        W43616  14.621   5.008   3.530 -0.0409  0.0490  0.1412
27483W        W43617  10.651   6.994  10.595 -0.3043  0.2219 -0.1133
27484W        W43618   3.768   9.551  14.740 -0.0392  0.1225 -0.1893
27485W        W43619   7.303   2.630   4.543 -0.4996 -0.1902  0.0451
27486W        W43620  17.246   3.392   3.587  0.1896 -0.3415  0.2781
27487W        W43621   1.732   1.022  14.063  0.0403  0.0348  0.2142
27488W        W43622   5.783   0.223   0.193 -0.0374  0.0058 -0.0048
27489W        W43623   0.385  14.367   0.429  0.0077  0.1304  0.1273
27490W        W43624  10.798  17.685   1.949 -0.2042  0.1429  0.2909
27491W        W43625   4.170  14.310   3.429 -0.0444 -0.1033  0.1835
27492W        W43626  15.888  11.797   4.493  0.2763 -0.0027  0.1904
27493W        W43627   9.556   7.702   4.388 -0.2871  0.3170  0.1800
27494W        W43628   2.016  11.235  12.288  0.1015 -0.3419 -0.0987
27495W        W43629   4.689   2.030  14.337 -0.1886  0.1558 -0.1252
27496W        W43630   7.897   5.588   4.261 -0.0665  0.4059  0.0800
27497W        W43631   9.909  18.558  11.345  0.2434  0.2990  0.0059
27498W        W43632   0.608   2.662  13.382  0.1631 -0.1451  0.1073
27499W        W43633   3.564   6.722   3.259 -0.1205 -0.2758 -0.2373
27500W        W43634   0.106  14.624   3.454 -0.1604  0.0575 -0.0779
27501W        W43635   6.138  16.339  12.047 -0.1170 -0.0516 -0.1220
27502W        W43636  16.794  10.157   1.048 -0.3348 -0.1807 -0.0611
27503W        W43637  17.519   3.630  11.922 -0.0914  0.1672 -0.0597
27504W        W43638   9.145   3.333  12.546 -0.0636  0.0033  0.1407
27505W        W43639  17.457   3.877  13.695 -0.1829 -0.0485  0.1675
27506W        W43640   9.600  16.686   5.187  0.1693 -0.3567 -0.0155
27507W        W43641   0.843   3.926  13.690  0.0517  0.0774  0.0881
27508W        W43642   3.102   4.899   3.101  0.0030  0.0884 -0.0459
27509W        W43643   4.984  16.521  12.826 -0.2501 -0.0804  0.1194
27510W        W43644  16.732   4.140   1.372 -0.0645 -0.1972 -0.0525
27511W        W43645   4.697   6.825  14.688 -0.0159 -0.0790  0.0159
27512W        W43646  14.937  15.915   5.282 -0.2659 -0.1743 -0.0698
27513W        W43647   5.617   1.187  11.227  0.1913 -0.0940  0.0258
27514W        W43648   1.710   1.278   0.093  0.1265  0.3014 -0.2592
27515W        W43649   0.238  17.436   0.358 -0.0644 -0.1836  0.1094
27516W        W43650   9.669  18.201   1.567  0.0388 -0.0060  0.0291
27517W        W43651  17.463  18.089  10.922 -0.2414  0.2445  0.2775
27518W        W43652   3.642  12.691   3.921 -0.1356  0.2658  0.0868
27519W        W43653  17.323   6.346   0.382  0.1461  0.0287 -0.3340
27520W        W43654   5.825  13.176   1.779  0.1423  0.1164  0.2012
27521W        W43655  15.252   6.817  11.858  0.0132 -0.1777 -0.1493
27522W        W43656  17.619   7.715   1.516  0.1333 -0.0523 -0.0166
27523W        W43657   6.467   7.786  13.891 -0.0007  0.0335  0.0343
27524W        W43658  18.035  12.414   1.683 -0.1793  0.0558 -0.1953
27525W        W43659   7.297   4.732  11.223 -0.0566 -0.1541 -0.2329
27526W        W43660  17.304  10.314   0.941  0.1341 -0.0662 -0.2774
27527W        W43661  11.135   0.128   4.579  0.1364  0.1187 -0.0967
27528W        W43662  15.106  18.747   4.868  0.4232  0.2141 -0.0281
27529W        W43663  19.339   9.842   2.579 -0.1231  0.0794 -0.2980
27530W        W43664   5.953  12.163   3.582 -0.0216 -0.1642  0.0141
27531W        W43665  16.363  18.739   4.495  0.0623  0.3079  0.2091
27532W        W43666   7.031  13.143  14.934  0.2853  0.1940 -0.2866
27533W        W43667   9.438   9.709  11.643 -0.1108 -0.0080  0.0073
27534W        W43668   4.401   4.544  10.561  0.0413  0.2979  0.0389
27535W        W43669   7.186   4.647   2.843 -0.1585 -0.0000  0.1078
27536W        W43670  14.075  11.849   0.499  0.0009  0.1792  0.1238
27537W        W43671   3.599  17.356   4.393 -0.1127  0.0019  0.0354
27538W        W43672  15.795   3.262   3.794 -0.0393 -0.1034 -0.2809
27539W        W43673   3.893  14.306  14.168  0.0039  0.1987  0.0638
27540W        W43674   4.597  17.220   5.210 -0.1070 -0.1242 -0.0833
27541W        W43675  14.058  10.056   3.509 -0.0030  0.1014  0.0437
27542W        W43676   3.822   2.262  11.295 -0.0180 -0.0496 -0.0254
27543W        W43677   9.613  11.258  14.926  0.2964 -0.0438  0.0235
27544W        W43678   8.442   4.775   0.172 -0.0242 -0.0779  0.0144
27545W        W43679   2.348  17.310   3.004 -0.0578  0.2717 -0.0846
27546W        W43680   3.976   7.217   1.004 -0.3283  0.0124  0.3933
27547W        W43681  13.349   9.505  14.583 -0.0120  0.0523  0.0639
27548W        W43682   7.865  18.317   0.236 -0.1472 -0.2400  0.1527
27549W        W43683   8.934   8.367   4.216 -0.2361 -0.1606  0.0685
27550W        W43684  10.075  14.966   4.368 -0.1903  0.2105 -0.1538
27551W        W43685  12.129   0.318   2.986 -0.0741 -0.0594 -0.1210
27552W        W43686   1.157  14.039  10.707 -0.2218 -0.0105 -0.1723
27553W        W43687   5.934  12.259  13.606  0.0185 -0.1118 -0.2281
27554W        W43688  15.929   8.977   9.726 -0.0142 -0.2575 -0.0851
27555W        W43689   3.256   6.584  12.708 -0.0242  0.0362 -0.2385
27556W        W43690   0.524   9.142  12.977 -0.0241  0.1770 -0.3306
27557W        W43691  11.692   0.995  13.555 -0.0180 -0.3205  0.0653
27558W        W43692   3.345   6.496   4.312  0.2073 -0.1622 -0.2111
27559W        W43693  17.589  15.657   2.637  0.0519  0.0425  0.0353
27560W        W43694  16.573   5.042  13.553  0.2417  0.1318  0.2128
27561W        W43695  13.927  10.039   1.702 -0.0199  0.0534  0.1921
27562W        W43696  12.909  11.819  13.442  0.4156 -0.1765 -0.1364
27563W        W43697   1.650   9.333   4.291 -0.1971 -0.0649 -0.2716
27564W        W43698   8.960   1.369  13.596 -0.1728 -0.0231  0.0266
27565W        W43699   1.213   3.595   3.156  0.2861 -0.0118  0.0430
27566W        W43700   6.962   3.696   1.463  0.4893 -0.0076 -0.1833
27567W        W43701   5.386   6.613  13.080 -0.1507 -0.0645 -0.0962
27568W        W43702  15.824   3.084   4.328 -0.0314 -0.6267  0.0596
27569W        W43703   6.199   3.222  12.878  0.1251 -0.2560 -0.2822
27570W        W43704  11.623  18.089   4.389  0.0433 -0.3234  0.1942
27571W        W43705  14.020   6.231  13.087 -0.1824 -0.0442  0.1976
27572W        W43706   2.976  14.399  10.877 -0.0159  0.1344  0.1376
27573W        W43707   5.129  15.948  11.208  0.0661  0.0334  0.1458
27574W        W43708  12.965  15.784  14.656 -0.1719 -0.1751  0.1763
27575W        W43709  10.429  10.304   1.976 -0.4005 -0.1790 -0.1263
27576W        W43710   7.982   9.779   9.631  0.4346  0.0793  0.4770
27577W        W43711  14.586   5.686  11.803 -0.1153 -0.1573 -0.0787
27578W        W43712   0.875  13.370  14.304 -0.1792 -0.0525 -0.1554
27579W        W43713  14.704  17.616   0.783  0.4236  0.1298  0.2242
27580W        W43714  12.481  12.074   1.733 -0.0681  0.0431  0.2341
27581W        W43715  11.254  14.868  12.705  0.2444  0.2490 -0.1785
27582W        W43716   2.241   4.009  13.326 -0.0383 -0.2386  0.1709
27583W        W43717   4.546   1.561  11.847  0.2858  0.1705 -0.0421
27584W        W43718  18.675  10.527  10.971 -0.0657  0.1091  0.0688
27585W        W43719  10.582  10.148   0.942  0.0665  0.0717 -0.2758
27586W        W43720  10.133  12.179  10.562 -0.0116  0.2825 -0.0392
27587W        W43721   8.020  18.730   5.151  0.2437 -0.0952 -0.1461
27588W        W43722   0.539   7.634  11.807  0.0939 -0.0920  0.1897
27589W        W43723  18.891  12.201   4.290  0.0718 -0.1012  0.0171
27590W        W43724  15.719  14.366   5.129 -0.3463 -0.2069  0.1177
27591W        W43725  12.323  17.760   3.778 -0.0848  0.1579 -0.1223
27592W        W43726   3.382   7.821   8.825 -0.1131  0.0390 -0.1372
27593W        W43727   6.556  17.405  13.071 -0.0128 -0.1607 -0.0088
27594W        W43728  15.543  15.724   2.921  0.2673 -0.1500  0.1865
27595W        W43729   0.702  15.303  11.676  0.1239  0.3260 -0.0364
27596W        W43730   6.538  18.107   4.020  0.0796  0.0008  0.1494
27597W        W43731  10.388   3.412   2.568 -0.2371 -0.0205 -0.1009
27598W        W43732  13.918  11.595  13.801  0.2905  0.4893 -0.1644
27599W        W43733   9.489   4.639  10.161  0.1360 -0.0976  0.1042
27600W        W43734   1.479   3.236  13.597  0.2126  0.1200  0.1305
27601W        W43735   7.685  15.757  14.727  0.1656  0.1445  0.1490
27602W        W43736   6.824  11.420   1.533  0.0301 -0.1919 -0.2141
27603W        W43737   8.029  15.272   0.767 -0.3979 -0.2272  0.2817
27604W        W43738   1.771   6.873   2.280 -0.1002 -0.0022  0.3888
27605W        W43739  16.868  12.850   1.574 -0.0592 -0.1714  0.0145
27606W        W43740  13.366   6.018   2.807  0.1247  0.0356  0.0339
27607W        W43741  17.033  16.802   4.745 -0.1648 -0.1318  0.3282
27608W        W43742  15.078  18.007   2.198 -0.0397 -0.3928  0.3061
27609W        W43743   2.295  11.264   3.793 -0.1174  0.2508  0.3297
27610W        W43744   9.365   2.107   4.104 -0.1972  0.3381  0.0610
27611W        W43745  16.550   4.673   0.549 -0.2307  0.2074 -0.1100
27612W        W43746   4.141  17.212   4.526  0.0078 -0.0727 -0.0650
27613W        W43747   5.582   2.222  14.158 -0.0277 -0.1776 -0.0029
27614W        W43748  12.506  13.352   2.645 -0.1242  0.1321 -0.3695
27615W        W43749   2.730   1.779  13.931 -0.0406  0.1849 -0.3236
27616W        W43750   2.703   5.470   0.404 -0.1194 -0.0153 -0.1636
27617W        W43751  18.117  15.109  11.392 -0.2523 -0.3486 -0.1126
27618W        W43752   7.354  18.861   1.373  0.0395 -0.1563 -0.0611
27619W        W43753   5.969   5.329   9.815  0.3419  0.0592  0.0014
27620W        W43754  11.513  13.437   1.745 -0.0911 -0.2183 -0.4192
27621W        W43755   8.354  10.242  10.731  0.0564 -0.1059  0.1248
27622W        W43756  14.944  12.750   0.915  0.0588  0.0476  0.0740
27623W        W43757  15.957  17.830   9.522  0.0574  0.2481 -0.2498
27624W        W43758  13.599   8.320  10.902  0.3165 -0.0704 -0.0452
27625W        W43759  14.523  10.740  13.721 -0.1783  0.0965  0.0698
27626W        W43760  15.271   8.777   1.495  0.0820  0.1375  0.0389
27627W        W43761  18.388  16.811   0.595 -0.1275 -0.0231 -0.0075
27628W        W43762   8.238   8.299   1.610  0.0550  0.0435  0.0923
27629W        W43763  14.351  14.296   5.018 -0.1529  0.3507 -0.2173
27630W        W43764   7.875   2.260   3.518  0.1071  0.0048 -0.1005
27631W        W43765  17.578   0.585   3.383  0.1426 -0.0320 -0.2020
27632W        W43766   3.637  17.680   2.241  0.1541 -0.2020  0.1523
27633W        W43767   2.234   2.520   1.777  0.0421  0.2374 -0.3933
27634W        W43768  16.234   8.113   1.714 -0.0692 -0.2775  0.0858
27635W        W43769  18.888  13.384   2.956  0.0482  0.1259 -0.1045
27636W        W43770   5.546   8.801   2.962  0.1146  0.3802  0.0509
27637W        W43771   1.401  16.415   0.564  0.2293  0.0984  0.0237
27638W        W43772   6.162  10.853   2.807  0.2482  0.0554  0.0666
27639W        W43773   7.244   4.377   4.580  0.1549  0.1025 -0.0873
27640W        W43774  14.379   2.125   0.898  0.0996  0.0567  0.2577
27641W        W43775  17.286  18.512  11.086  0.0687  0.1183 -0.0548
27642W        W43776   7.856   6.339  14.405 -0.1556 -0.0405 -0.2161
27643W        W43777  17.471   8.073   2.377  0.0880 -0.0204 -0.0961
27644W        W43778   6.159  15.283  12.433  0.0094 -0.2762  0.0847
27645W        W43779  11.559  15.862  10.634 -0.1909  0.0910  0.3168
27646W        W43780  15.255  13.935  12.429  0.0343 -0.0418  0.2274
27647W        W43781   2.688  17.373   0.151 -0.0102 -0.2757 -0.1184
27648W        W43782  11.791   7.794   1.195 -0.2094 -0.1537  0.0048
27649W        W43783   0.377  10.165  14.089  0.1285 -0.4516  0.2438
27650W        W43784  14.414  13.892   4.516 -0.0263  0.1313  0.0503
27651W        W43785   2.571  14.166   1.411  0.0860 -0.0011  0.2392
27652W        W43786  16.946   1.927   1.547 -0.0997 -0.1090 -0.0186
27653W        W43787  17.332   8.469   4.799  0.1942  0.4086  0.0594
27654W        W43788  15.385   7.356  11.569 -0.3872  0.1177  0.1154
27655W        W43789   6.515  18.601  10.029 -0.0127  0.0707 -0.0412
27656W        W43790  12.454  17.530   1.865 -0.1163  0.0098 -0.0779
27657W        W43791   9.461   1.290  12.466  0.6814 -0.2598 -0.3111
27658W        W43792   4.888   3.735  10.008  0.0360 -0.1723 -0.3662
27659W        W43793  15.678  10.613  14.358 -0.0007 -0.0557  0.1259
27660W        W43794   1.203  13.436   3.857  0.0947  0.2215  0.0822
27661W        W43795   0.160   1.825   9.719  0.1846  0.3253  0.1685
27662W        W43796  18.404  16.380   3.463  0.2659 -0.0468  0.2429
27663W        W43797   2.760   8.164  12.352 -0.1828 -0.1843 -0.4106
27664W        W43798  17.326  19.183  14.374  0.0101  0.1119 -0.1522
27665W        W43799   2.096   7.758  12.770  0.3388  0.0922 -0.0997
27666W        W43800   2.646  16.403  14.316 -0.0230 -0.0614 -0.0105
27667W        W43801  15.025   6.083  13.105  0.2248  0.0414  0.0834
27668W        W43802   7.521   8.211  14.472 -0.1005 -0.1244  0.2820
27669W        W43803   2.515  12.862  14.659 -0.0544 -0.0590 -0.2056
27670W        W43804   4.061   6.238   1.543  0.2012  0.0237 -0.6327
27671W        W43805  17.394  16.717  13.530 -0.0101  0.3296  0.2129
27672W        W43806  17.633   6.636   3.830  0.0173  0.1291 -0.3353
27673W        W43807  18.442   4.073   1.410 -0.0914  0.0901 -0.1332
27674W        W43808   3.768   9.425   5.309 -0.0241 -0.0064  0.1044
27675W        W43809   5.610  11.437   0.779 -0.2681 -0.0479  0.0610
27676W        W43810   8.219   6.992  11.694 -0.2056  0.1333 -0.0966
27677W        W43811  17.481   9.383  10.116 -0.3477  0.1098 -0.0452
27678W        W43812  17.032   1.113   2.733  0.2236 -0.1048  0.2397
27679W        W43813   9.215   4.938   9.825  0.2347  0.0446  0.2203
27680W        W43814   3.400   0.022   0.926 -0.1007 -0.0482 -0.3126
27681W        W43815   8.354  13.293  14.866 -0.0900 -0.3070 -0.2855
27682W        W43816  18.903   2.777   3.720  0.0728  0.0596  0.2007
27683W        W43817  19.026  17.518   3.095  0.0416 -0.0224  0.0439
27684W        W43818   2.325  11.165   9.258 -0.0174  0.0314  0.3123
27685W        W43819  16.874   7.084  13.397 -0.0554 -0.3621 -0.0050
27686W        W43820  11.782   0.308   1.321  0.1278 -0.0185  0.2387
27687W        W43821   8.505  14.262  12.400  0.1045 -0.1594  0.1145
27688W        W43822  16.947  16.457   1.765 -0.0989 -0.5081  0.0369
27689W        W43823   8.908  11.522   2.996 -0.0062  0.0037  0.0005
27690W        W43824   2.948   9.253  12.905  0.0264 -0.2009 -0.2440
27691W        W43825  12.512  10.007  10.557 -0.1468  0.0480 -0.0185
27692W        W43826  11.377   5.352   2.165  0.1590 -0.1031  0.1278
27693W        W43827  14.812   6.594  14.829  0.0721  0.0916  0.1662
27694W        W43828  17.934   0.459   1.611  0.1601 -0.4189 -0.0046
27695W        W43829   7.430  18.184  13.629  0.1915  0.1117 -0.1135
27696W        W43830   9.635   3.742   1.263 -0.1233 -0.1000  0.0122
27697W        W43831  13.938   5.849  11.265  0.0049 -0.0220 -0.0142
27698W        W43832   4.639  13.820   5.629 -0.1351 -0.1048 -0.1304
27699W        W43833  14.402   6.880   1.988 -0.3501  0.0631  0.0806
27700W        W43834  12.108   3.035  12.755  0.2722 -0.1870 -0.0446
27701W        W43835   7.048  12.534  10.388  0.0157 -0.0501 -0.0694
27702W        W43836  17.423   5.215   3.377  0.2079 -0.0549  0.0916
27703W        W43837  15.142   8.566  12.582  0.0528 -0.1444 -0.0832
27704W        W43838  11.272   4.964  11.561  0.0268  0.3897  0.3162
27705W        W43839   7.495   9.476   4.955  0.2461 -0.2139  0.0477
27706W        W43840  12.339   0.303   0.600  0.0060 -0.3610 -0.1462
27707W        W43841  13.428  11.275  11.111 -0.1843  0.3740 -0.0121
27708W        W43842   1.813   6.556  14.823 -0.0757 -0.0835 -0.3229
27709W        W43843   4.639   6.999  13.662  0.0344  0.1377 -0.1101
27710W        W43844   9.322   6.478  10.607  0.0358 -0.0390  0.1317
27711W        W43845   7.114   5.743  12.868  0.0121 -0.1516 -0.1190
27712W        W43846  13.513   4.017   4.774 -0.2623 -0.0577 -0.1101
27713W        W43847   9.922   8.354  11.957 -0.0098 -0.0232 -0.1585
27714W        W43848  13.086   0.519  13.876  0.2555  0.0360 -0.0958
27715W        W43849   0.231  10.182  13.218  0.0880  0.1569  0.0448
27716W        W43850  13.174   6.277  13.888 -0.3350 -0.1177 -0.0010
27717W        W43851  13.371   3.597   0.883 -0.1544 -0.4191 -0.0995
27718W        W43852  11.573   5.549  13.506  0.0659  0.0122 -0.1807
27719W        W43853  16.648   2.098   5.992  0.1269 -0.3608 -0.1749
27720W        W43854  15.311   2.939   4.370  0.0341 -0.1314  0.0102
27721W        W43855  15.797  17.186  11.728  0.2480 -0.1543 -0.0627
27722W        W43856  17.863   6.489  14.191 -0.1591 -0.3536 -0.0550
27723W        W43857   7.474  14.142  12.866 -0.0790 -0.0052  0.2547
27724W        W43858   6.079   8.740   4.202 -0.0193 -0.1848  0.1297
27725W        W43859  15.268   8.999  11.250  0.3321  0.0775  0.0940
27726W        W43860   1.063  18.006  10.603 -0.0768  0.0143 -0.2830
27727W        W43861   2.701   7.298  10.011  0.2385  0.1032  0.0046
27728W        W43862   8.046   7.277  14.233 -0.3059 -0.0636 -0.1949
27729W        W43863   4.047   4.111   3.281 -0.0169  0.1149  0.0779
27730W        W43864  11.638   9.947   9.808  0.1885  0.2374  0.0316
27731W        W43865   1.827   6.166  12.278  0.5117  0.0297 -0.1929
27732W        W43866  15.927   0.401  13.407 -0.0317  0.3696  0.0259
27733W        W43867   7.653  15.275  13.940 -0.0062 -0.0495  0.0040
27734W        W43868   1.093   0.528  12.532 -0.2005  0.0110  0.3267
27735W        W43869   8.924   2.023  14.266 -0.0154  0.0094  0.0001
27736W        W43870  11.164  15.433  11.383  0.0253  0.0260 -0.0398
27737W        W43871  18.385  14.654   1.586 -0.0383 -0.0302 -0.1750
27738W        W43872  15.312   4.287  14.612 -0.2777  0.2162 -0.3288
27739W        W43873   2.169   9.608   3.223  0.3354  0.3754  0.1673
27740W        W43874  19.261   7.036   2.933  0.0642  0.1142  0.2686
27741W        W43875  17.224   9.886  12.772  0.3455 -0.1391 -0.3222
27742W        W43876  18.117  13.691  10.977 -0.2800 -0.2427  0.1104
27743W        W43877   8.142  16.570   4.378 -0.1896 -0.1659 -0.2186
27744W        W43878   8.184   9.146  10.473 -0.2975 -0.0995  0.0932
27745W        W43879   3.928  17.407   0.730  0.3146  0.0042 -0.0640
27746W        W43880   7.536   5.002   0.967 -0.0361 -0.1366  0.0238
27747W        W43881   2.206   0.161  11.852 -0.1395  0.0596  0.1379
27748W        W43882   3.739  13.172  12.954  0.1807  0.1102  0.2108
27749W        W43883  12.270   6.711   9.584 -0.3994  0.0764  0.1031
27750W        W43884   6.043  11.855   2.275 -0.0389  0.2734  0.0960
27751W        W43885   9.501   3.165   3.840 -0.0906 -0.1525  0.2950
27752W        W43886   4.222   1.863   1.004 -0.0591 -0.0754 -0.3586
27753W        W43887  13.139  14.287   0.359  0.3111  0.0806 -0.2777
27754W        W43888  13.540  13.009   0.071 -0.1722  0.0373  0.1579
27755W        W43889   5.161   5.091  14.874 -0.1913 -0.1936  0.1119
27756W        W43890  15.424   6.599   4.593 -0.0640  0.0992  0.0669
27757W        W43891  13.866  15.305   3.376 -0.1788  0.0976  0.2477
27758W        W43892   9.995   8.459  10.654  0.1117 -0.1734  0.0053
27759W        W43893   4.100   7.353  12.842  0.1721  0.0145  0.0277
27760W        W43894   4.567   9.852  10.900  0.2901  0.0349  0.1068
27761W        W43895   1.348  15.466   0.521 -0.0410  0.1718  0.0047
27762W        W43896  10.397   3.602   0.931  0.1641 -0.1944  0.2621
27763W        W43897  15.426   1.067   0.496 -0.0235  0.1911  0.2342
27764W        W43898   1.321  17.168   1.263  0.0811  0.1356  0.3981
27765W        W43899   3.301   1.910  10.754  0.2253  0.1709  0.0626
27766W        W43900  16.840  14.621  14.023 -0.1440 -0.1833 -0.1911
27767W        W43901   8.607  13.575   4.911 -0.0180  0.0650  0.2213
27768W        W43902   0.965   0.376   2.258 -0.0045  0.1715 -0.2946
27769W        W43903  18.448   5.267  12.124  0.1391 -0.0780  0.0516
27770W        W43904   1.440  19.008   3.800  0.1054 -0.4924 -0.2557
27771W        W43905  15.224  12.297  12.108 -0.1992  0.2731  0.0593
27772W        W43906  13.705   9.487  11.502 -0.0567  0.2104 -0.3031
27773W        W43907  10.669   7.422  10.296  0.2363 -0.1872  0.1404
27774W        W43908  16.561   5.250   0.353  0.0866  0.1821  0.0054
27775W        W43909   5.218  17.811   4.996 -0.0017 -0.1572 -0.3343
27776W        W43910   7.788   2.342   0.970  0.0888  0.1689 -0.0765
27777W        W43911   7.974  12.624  14.317  0.2065  0.1212  0.3246
27778W        W43912  10.106   5.030  10.960  0.0675  0.1939  0.0665
27779W        W43913   0.961  13.104   0.283 -0.0997  0.0011 -0.0597
27780W        W43914   9.665  18.592  10.692 -0.0756 -0.0508  0.2203
27781W        W43915  16.679   6.490   3.347 -0.2957 -0.0649 -0.0974
27782W        W43916  19.113   4.707   0.187 -0.2349 -0.2657 -0.3508
27783W        W43917  18.347   4.450  14.583 -0.0444  0.0211 -0.1447
27784W        W43918   0.563  12.124  10.152  0.0714  0.0160  0.1274
27785W        W43919  14.301   2.320  12.179 -0.0907  0.0032  0.1553
27786W        W43920   3.934  11.035  12.117 -0.3307  0.2179  0.2309
27787W        W43921   2.311  17.084   2.522 -0.3443  0.1175  0.3542
27788W        W43922   0.634   2.204  10.171  0.0823  0.0137 -0.1280
27789W        W43923   7.269   7.402  13.339  0.0019  0.1656  0.0320
27790W        W43924   6.392   1.031   5.142 -0.0650 -0.0708  0.3699
27791W        W43925  12.029  11.794   4.380 -0.2577 -0.3214  0.1381
27792W        W43926  14.736   1.643   0.449 -0.1316 -0.0239  0.1111
27793W        W43927  13.866   7.003  10.044  0.2158 -0.1890 -0.0374
27794W        W43928  11.767   8.563  11.775  0.2265  0.0933  0.0176
27795W        W43929   0.758  12.517   3.793  0.1416 -0.1072  0.2183
27796W        W43930   3.729   6.989  12.648 -0.1381  0.0763 -0.0315
27797W        W43931  13.618  11.734  10.829 -0.4215  0.0057  0.1293
27798W        W43932   8.318   4.314   4.183  0.2986 -0.2158  0.0558
27799W        W43933   6.546   9.296   1.825  0.2079 -0.0613  0.3909
27800W        W43934  17.041  10.280   5.521 -0.0862 -0.0884 -0.2495
27801W        W43935   9.260  11.803   2.687  0.0905  0.0233  0.1176
27802W        W43936   6.493  11.396   3.909  0.3040  0.1914 -0.3650
27803W        W43937  11.541   0.525  12.467 -0.1286  0.0719  0.0936
27804W        W43938  13.172   8.497  11.144 -0.0899 -0.0060 -0.0816
27805W        W43939   3.737   4.844   2.474  0.1616 -0.3288 -0.2519
27806W        W43940   6.087  11.528   9.003  0.0682 -0.1491 -0.3669
27807W        W43941   4.872   1.582   2.536  0.3324 -0.2712  0.0524
27808W        W43942  12.495   8.402  11.919 -0.0523  0.0434  0.0997
27809W        W43943   5.117  17.550  14.395 -0.1767  0.0268  0.1796
27810W        W43944   6.712   2.791   4.196 -0.0566  0.0093  0.0486
27811W        W43945  14.730  17.641   1.331  0.0510  0.0279  0.0201
27812W        W43946   0.969   2.589   2.086  0.1622 -0.0760  0.5129
27813W        W43947  13.544  12.718   4.195  0.3221 -0.1093  0.2374
27814W        W43948  11.019  18.309   3.014 -0.0877 -0.4148  0.1791
27815W        W43949  13.865  19.225  13.244 -0.0292  0.3114 -0.0125
27816W        W43950   9.624   6.001  10.436  0.1013  0.0626  0.1002
27817W        W43951  17.062  11.814  13.481  0.2125 -0.3497 -0.2244
27818W        W43952  14.954  17.838   4.516  0.1680  0.0738  0.0216
27819W        W43953  19.032  12.243  11.499  0.1553 -0.2472  0.0786
27820W        W43954   8.106  13.714   9.905 -0.1407  0.0452 -0.0460
27821W        W43955  10.855   3.390  12.806 -0.3537 -0.0213 -0.0556
27822W        W43956   0.460   2.939  10.230  0.1796 -0.1873 -0.0193
27823W        W43957  13.691   3.469   3.012 -0.0072 -0.2375 -0.1458
27824W        W43958  10.074   3.973   3.653  0.2535  0.0480 -0.1564
27825W        W43959  14.896   2.850  12.668 -0.5803  0.2758  0.0665
27826W        W43960  12.325  14.760   4.145 -0.1027  0.0679 -0.0784
27827W        W43961   0.139  13.560   1.885  0.2651 -0.0325 -0.0111
27828W        W43962   9.029   3.320   0.757  0.3055 -0.0967  0.2222
27829W        W43963  15.951  18.323   5.830  0.2342 -0.1642 -0.3057
27830W        W43964   2.150   0.777  11.302 -0.0272  0.1739  0.4071
27831W        W43965   8.469  12.029  13.067  0.0444  0.1107  0.0003
27832W        W43966  16.188  13.886   2.234  0.1815  0.0600  0.2380
27833W        W43967   7.130  11.797   4.171  0.1287  0.1420 -0.0194
27834W        W43968   2.367  15.467   2.059 -0.2983 -0.2553 -0.2959
27835W        W43969   4.010   4.927  11.520  0.0712  0.2534  0.1220
27836W        W43970   1.703  17.496  13.586 -0.1062  0.0724 -0.1248
27837W        W43971   9.971  13.777   2.713  0.0328  0.2887 -0.0944
27838W        W43972  16.686  19.050  13.758  0.0700 -0.2930 -0.4900
27839W        W43973   3.087   8.867   0.569  0.0846  0.0544  0.1107
27840W        W43974  12.709  17.475  13.688 -0.2077 -0.0945 -0.1074
27841W        W43975   5.984   1.861  12.837  0.1054  0.0184 -0.2035
27842W        W43976  15.662  13.170  12.777 -0.0037  0.1481 -0.3272
27843W        W43977  11.421  14.811  14.379  0.0267  0.0164  0.1149
27844W        W43978  11.926   7.058   0.627 -0.1424  0.1144 -0.1879
27845W        W43979  14.341   0.364   1.556  0.2211  0.2124 -0.0860
27846W        W43980  10.935  12.153   0.798  0.2151  0.0086 -0.1887
27847W        W43981   2.436   6.988   9.730  0.1223 -0.2539  0.2577
27848W        W43982   3.413  14.148  12.018 -0.0770  0.0762  0.1312
27849W        W43983   1.023  12.540   2.701 -0.1450 -0.1935 -0.1548
27850W        W43984  16.364  12.759  12.470 -0.0024 -0.0897  0.2157
27851W        W43985   6.091   5.887  13.833 -0.0973 -0.1841  0.0563
27852W        W43986   4.198  13.961  10.647 -0.0177 -0.0139 -0.2001
27853W        W43987  14.726  15.723  11.953 -0.1282 -0.2581 -0.2225
27854W        W43988  12.886   5.748  11.793  0.0351 -0.4111  0.0509
27855W        W43989  14.422  16.064   1.526 -0.3414  0.1069 -0.1112
27856W        W43990   4.525   9.579   2.945  0.0307 -0.1154 -0.2136
27857W        W43991  11.592   9.858   3.037 -0.2471 -0.0870  0.1396
27858W        W43992   1.888  14.424  12.219  0.1700  0.2661  0.1777
27859W        W43993  15.716   5.378   0.609 -0.0000 -0.2135 -0.0655
27860W        W43994  17.612  13.275   5.045  0.0713 -0.0173 -0.2038
27861W        W43995   2.538  12.425  11.224  0.2465 -0.2828 -0.1067
27862W        W43996   9.575  12.666   3.457  0.1554  0.4296 -0.2579
27863W        W43997   0.393   3.983  12.863 -0.0799 -0.3829  0.3045
27864W        W43998  15.143   0.693  13.815  0.3018 -0.0613  0.0218
27865W        W43999  15.538  14.564   3.715  0.2142 -0.0178 -0.0164
27866W        W44000   0.536   4.083  10.411  0.3012  0.0309 -0.3039
27867W        W44001   0.054  10.715  12.053 -0.2700  0.1281  0.0579
27868W        W44002   1.579  19.116  14.935 -0.3356 -0.1350 -0.1070
27869W        W44003   9.984  10.563   3.235  0.0219 -0.3351 -0.1922
27870W        W44004  12.769  16.607  12.195  0.0941 -0.0110  0.1009
27871W        W44005  18.189  18.222   3.205 -0.4090  0.2296 -0.0055
27872W        W44006   5.326   7.047   2.087  0.0389 -0.1161  0.4143
27873W        W44007   4.690  11.645  13.491 -0.2332 -0.1789  0.0626
27874W        W44008  12.313  18.682   0.452  0.0156  0.3530  0.0955
27875W        W44009   5.070  12.228  14.844 -0.2248  0.1398  0.0735
27876W        W44010   8.349  13.863   3.134  0.0258  0.2767 -0.2766
27877W        W44011   1.143   1.821   1.492 -0.4367 -0.0203 -0.1328
27878W        W44012   6.342  10.763   4.462 -0.1421  0.0745 -0.0238
27879W        W44013  18.060   1.261  10.624  0.4194  0.2329  0.6315
27880W        W44014   7.178   1.557  11.340  0.4220 -0.0933 -0.1498
27881W        W44015  11.270   5.905  13.698  0.0147 -0.3288 -0.3228
27882W        W44016   6.672   5.771  13.949 -0.4226  0.1229 -0.1094
27883W        W44017   4.775   3.012  11.777 -0.2547  0.2173 -0.2383
27884W        W44018  14.524  11.930  12.874  0.3166 -0.0456 -0.2746
27885W        W44019  13.155   1.124  10.640 -0.3724  0.1359  0.1082
27886W        W44020   1.734   5.833  10.969  0.0945 -0.0038 -0.3252
27887W        W44021   4.681  16.255   2.661 -0.1150  0.2505 -0.1063
27888W        W44022   8.234   3.870   3.895 -0.0688 -0.2915 -0.2254
27889W        W44023  14.566  17.464  13.985 -0.1202  0.0098  0.1973
27890W        W44024   4.282  15.755  10.823  0.3498  0.1299  0.0288
27891W        W44025   6.207  10.292   3.630 -0.1016 -0.0558  0.0511
27892W        W44026   6.510   9.805  14.563 -0.2348 -0.0606  0.3439
27893W        W44027  10.643  11.634  14.573 -0.2298 -0.2601  0.1378
27894W        W44028  14.671   5.560   2.666  0.0712  0.1397  0.1236
27895W        W44029   6.827  14.445   2.437  0.2906  0.3863 -0.0155
27896W        W44030  16.867  13.294  10.948 -0.1356  0.0095 -0.0646
27897W        W44031  16.251   0.007  13.384 -0.2447  0.0333 -0.1202
27898W        W44032   3.770   1.819  10.965 -0.0395 -0.3575  0.3217
27899W        W44033   9.518   2.132  11.937 -0.2254  0.0039  0.2455
27900W        W44034   6.081  10.565  13.502 -0.3040  0.0940  0.1241
27901W        W44035   5.552  13.191  14.884  0.3200  0.0908 -0.0308
27902W        W44036   3.044   2.482   4.374  0.1161  0.2767 -0.0835
27903W        W44037   4.815  13.273  14.354 -0.2132 -0.0746 -0.0432
27904W        W44038  18.938   4.202  11.703 -0.0129  0.2121  0.0208
27905W        W44039  15.091  15.745   5.721  0.2059 -0.1700  0.1768
27906W        W44040  11.586   6.582   2.369  0.1604  0.1889 -0.0205
27907W        W44041   6.246  12.244  11.287  0.1561  0.1997  0.0183
27908W        W44042   0.931   9.507  14.737  0.0161  0.0691 -0.1385
27909W        W44043  10.092   3.526  14.575 -0.0850 -0.2394  0.3090
27910W        W44044   0.236   9.416  12.125 -0.1098  0.1493  0.2586
27911W        W44045  13.258   5.211   3.850  0.5039  0.1435  0.2826
27912W        W44046  13.988   2.468   4.238  0.3422 -0.1231 -0.0163
27913W        W44047  18.286   9.110   9.903  0.0150  0.0344 -0.0162
27914W        W44048  16.067   5.081   2.936 -0.2774 -0.2490  0.1300
27915W        W44049  12.297   5.478   2.486  0.2056 -0.2433  0.1751
27916W        W44050   0.352   6.330  12.173  0.0892  0.0521 -0.0636
27917W        W44051  17.294  15.543   0.877 -0.2051 -0.0629  0.2732
27918W        W44052   9.565   0.128  12.376 -0.1618  0.1808  0.2435
27919W        W44053  18.578   9.985   1.552  0.4365  0.1808 -0.3462
27920W        W44054   8.706  13.504   4.409  0.0427  0.0256 -0.3042
27921W        W44055  16.551  16.067  11.416  0.0230  0.2980  0.1270
27922W        W44056  17.276   9.516   5.084 -0.3272  0.0428 -0.0668
27923W        W44057   7.683   7.812  12.170 -0.3615  0.3381  0.3724
27924W        W44058   4.243  13.455   1.006  0.2561  0.2130 -0.3249
27925W        W44059   2.991   3.681   1.694 -0.3903  0.2295  0.1070
27926W        W44060   5.812   8.300   0.791  0.1831 -0.5488  0.3640
27927W        W44061  15.419   9.713  10.690  0.0409  0.3017  0.2019
27928W        W44062   2.431   2.007  11.627  0.2274  0.1220  0.1450
27929W        W44063  15.960   1.472   1.372  0.2143  0.3934  0.0494
27930W        W44064   6.844   1.989   2.914  0.0361  0.1093 -0.1340
27931W        W44065   9.533   8.677  14.969 -0.1254 -0.0391  0.0487
27932W        W44066  13.244  12.395   9.858  0.1323 -0.0975 -0.0067
27933W        W44067  12.377  15.540   0.714 -0.0480  0.2128 -0.1188
27934W        W44068   3.472  10.363   0.879 -0.2189  0.1464 -0.2228
27935W        W44069  18.649  18.590   1.273  0.0870 -0.1686  0.3274
27936W        W44070   8.463   2.563  13.534  0.1374  0.2616 -0.0133
27937W        W44071   4.129  10.143  13.025  0.2777 -0.1798 -0.0540
27938W        W44072  11.888  14.269   3.551  0.2103 -0.2525  0.1543
27939W        W44073   3.768   1.687  10.433 -0.2551  0.0214  0.2934
27940W        W44074   9.301  17.632   0.891  0.0025 -0.1147  0.3685
27941W        W44075  14.872  15.918   4.791  0.2414 -0.1598  0.1306
27942W        W44076  10.173   6.684  14.067  0.2508 -0.2640  0.0360
27943W        W44077  13.390  12.597  14.669  0.0696  0.3402 -0.0927
27944W        W44078   3.532   8.018   1.127  0.0408 -0.0019 -0.1229
27945W        W44079  16.410   9.304  14.256  0.0632 -0.1380 -0.2792
27946W        W44080   2.131   1.911   4.431  0.2513  0.3154 -0.1227
27947W        W44081   1.168  16.695  14.488  0.1152 -0.1912  0.1854
27948W        W44082   2.838   3.619  12.933  0.1303 -0.0929  0.1667
27949W        W44083  16.842  10.344  12.976  0.3064 -0.1896  0.0644
27950W        W44084   9.325   0.751   2.923  0.2768 -0.2243 -0.1317
27951W        W44085   3.622  15.761   1.748  0.2200 -0.1829 -0.0161
27952W        W44086  17.577   4.629  11.362  0.1348 -0.1450 -0.0787
27953W        W44087  13.836  10.174   3.041 -0.2315 -0.3767 -0.0637
27954W        W44088  14.011  16.217   3.431  0.0260 -0.0362  0.3668
27955W        W44089   6.015  17.695  13.892  0.4497 -0.2152  0.2187
27956W        W44090   4.860   0.789   3.842  0.3803  0.1599  0.0755
27957W        W44091   6.743  12.080   4.414 -0.1621 -0.1097 -0.1246
27958W        W44092   8.721   9.608  14.370  0.0206  0.0311 -0.0629
27959W        W44093   1.659  15.351   3.780  0.2837  0.1745  0.1355
27960W        W44094   4.876   1.375   2.044  0.1130  0.2499 -0.3255
27961W        W44095   1.770   1.315  10.253  0.3475  0.0503  0.0836
27962W        W44096  16.843   0.731   0.239 -0.1050  0.2491  0.1399
27963W        W44097  12.884  11.154  11.174  0.4426 -0.1735  0.0607
27964W        W44098  11.935  17.568   5.635  0.3266 -0.0542 -0.0061
27965W        W44099   8.754  13.944  14.653  0.2459  0.0265 -0.1113
27966W        W44100  11.884   2.790   4.527 -0.0009 -0.1750  0.0558
27967W        W44101  13.052  12.702   4.891 -0.0140  0.2775 -0.0080
27968W        W44102   9.075  12.001   3.121  0.1557 -0.1979  0.2996
27969W        W44103   0.606   6.041  13.928  0.1114  0.0991  0.0243
27970W        W44104  13.852  11.811   3.392  0.0887  0.0539  0.0853
27971W        W44105  14.729  10.799  13.253  0.0252  0.0944  0.0753
27972W        W44106   5.845   7.509  11.581  0.0309 -0.1882  0.1128
27973W        W44107   0.032   7.171  14.296  0.1667 -0.0578 -0.0131
27974W        W44108   1.718  18.611   4.006 -0.0574 -0.4221  0.3339
27975W        W44109   6.887   7.570  13.574 -0.3856 -0.1862 -0.1784
27976W        W44110  17.176   0.398   4.564 -0.0127 -0.2740 -0.0748
27977W        W44111  19.196   5.045   3.089 -0.1690 -0.2618 -0.1072
27978W        W44112  11.078   7.201  10.433  0.1473  0.1509  0.1426
27979W        W44113   5.166   2.865  13.402 -0.3162  0.0700  0.2203
27980W        W44114   5.751   5.277  13.070 -0.0582 -0.2058 -0.2808
27981W        W44115   5.370  10.764  11.359 -0.1081 -0.1669  0.2400
27982W        W44116   7.731   0.593   4.381  0.2180  0.5482  0.0018
27983W        W44117  16.557   9.730  12.097 -0.2216  0.2980  0.0507
27984W        W44118   6.353   5.833  13.317 -0.0934 -0.3298  0.1171
27985W        W44119   1.735   0.536  13.186 -0.1117 -0.2440  0.0383
27986W        W44120  10.446  18.404   4.818  0.0858 -0.4097 -0.0943
27987W        W44121   6.199   4.673  12.490 -0.1119 -0.3601 -0.1581
27988W        W44122   2.333   9.963   3.592  0.0138  0.0337  0.2620
27989W        W44123  12.199   4.204   4.391  0.1215  0.4612 -0.0733
27990W        W44124   5.319   5.267   3.139  0.1099  0.0627 -0.0828
27991W        W44125   5.777  18.252  10.679 -0.2068 -0.2467  0.1831
27992W        W44126   1.263  13.559   0.274  0.1969 -0.0062  0.0057
27993W        W44127  16.260  14.958   5.710 -0.1501  0.1786  0.1657
27994W        W44128  16.894  10.751  12.631 -0.1358 -0.2418 -0.2323
27995W        W44129  11.702   6.977   2.837 -0.2700 -0.0903 -0.1537
27996W        W44130   7.829  18.939   3.490 -0.2399  0.2730 -0.1211
27997W        W44131  17.398   5.553  12.245  0.0623 -0.1237 -0.2091
27998W        W44132   7.886  10.608  13.188 -0.1766 -0.1493  0.1913
27999W        W44133  13.581  19.331  12.599  0.1818 -0.3946 -0.2639
28000W        W44134  14.986   7.706  11.306 -0.1065 -0.3560 -0.0209
28001W        W44135  13.144  15.100  14.115  0.3135  0.0083 -0.0568
28002W        W44136  17.238   1.193  13.379  0.0869  0.0958  0.1601
28003W        W44137  10.540   0.343  12.773  0.3000  0.3098  0.3243
28004W        W44138  16.617   4.644  11.754 -0.2326  0.0498 -0.0847
28005W        W44139  12.738   1.585   4.584 -0.1693  0.3099 -0.2312
28006W        W44140   6.399  16.522  13.760 -0.0859 -0.0250  0.0722
28007W        W44141  19.280   2.152  12.015  0.1950 -0.3651  0.0086
28008W        W44142  12.027   2.176  14.967  0.0729  0.0289  0.2841
28009W        W44143   9.457  18.572  14.879 -0.1321 -0.1257 -0.1142
28010W        W44144   9.531   1.983  10.049 -0.1253  0.0246 -0.1941
28011W        W44145   0.190   2.082  10.571  0.3288  0.0147 -0.3149
28012W        W44146  10.951   5.680   4.185 -0.0636 -0.1507 -0.2989
28013W        W44147   0.243  14.756  12.868  0.2253 -0.1418  0.0944
28014W        W44148   2.480  11.498   4.729  0.1320  0.0374 -0.1827
28015W        W44149   1.927  13.213  14.976  0.0717 -0.0150  0.2173
28016W        W44150  12.885  14.127   5.051 -0.3096 -0.0501  0.0622
28017W        W44151   3.492   7.624  13.713  0.3417  0.0579  0.0307
28018W        W44152   6.143  13.886  13.984  0.1318  0.0991 -0.1300
28019W        W44153   1.380  14.505   2.609 -0.0924  0.0644  0.4671
28020W        W44154  15.426  14.166  12.841 -0.1717  0.0750  0.0560
28021W        W44155  13.316   7.707   5.332  0.0439 -0.1081 -0.0714
28022W        W44156  13.282   4.769  11.214 -0.0857 -0.2057  0.1085
28023W        W44157   7.706  10.615   0.806 -0.0962 -0.1404  0.0557
28024W        W44158  11.908   0.098   0.513 -0.1317  0.3418 -0.0366
28025W        W44159   8.676  18.815   0.332 -0.3234  0.0477  0.0287
28026W        W44160   5.476   3.621   0.941 -0.1403  0.0468 -0.3930
28027W        W44161  12.055  12.180  12.173 -0.0214  0.1229 -0.0882
28028W        W44162  14.148  12.093  10.717  0.1040  0.1301 -0.2922
28029W        W44163   9.499   0.867   3.951  0.1133  0.0963  0.3655
28030W        W44164   3.986   3.018   1.189 -0.4296 -0.0436 -0.0311
28031W        W44165  10.685   5.030   3.548  0.1412  0.0153 -0.0609
28032W        W44166   1.262   3.611   4.629 -0.2124  0.3082  0.1471
28033W        W44167   9.851  15.965  12.199 -0.1046 -0.2745  0.2420
28034W        W44168   3.324   0.755   2.048  0.0368  0.4042 -0.2000
28035W        W44169   5.078   5.272  11.503 -0.0109  0.2936  0.2897
28036W        W44170   9.536   1.293   4.114  0.2280  0.3850 -0.0579
28037W        W44171  18.187  10.061  14.900  0.2100 -0.0092  0.2115
28038W        W44172  15.246  16.056  13.260 -0.0516  0.1361  0.2261
28039W        W44173   6.913   6.494  12.980 -0.0891  0.0466 -0.0838
28040W        W44174  12.981  10.999  13.591 -0.1544  0.2122  0.1034
28041W        W44175  17.964   5.338   4.572 -0.1810 -0.1112 -0.0366
28042W        W44176  10.653   6.472  12.446  0.2306 -0.1573 -0.0082
28043W        W44177   9.704  12.746   0.811 -0.0934  0.0406  0.0932
28044W        W44178   2.957  13.987   9.977 -0.0147  0.0738  0.0339
28045W        W44179  17.893   2.988   5.822  0.1733  0.1363  0.4856
28046W        W44180  17.514  18.156   4.031 -0.3073  0.2190 -0.1151
28047W        W44181  14.081   4.653   0.391  0.4266  0.1234  0.0096
28048W        W44182  18.569  12.940  13.821  0.0634  0.1924 -0.0802
28049W        W44183  11.535  15.105   4.042  0.1047  0.0507 -0.2557
28050W        W44184   5.305  11.914  14.030  0.2967 -0.2371 -0.1906
28051W        W44185  16.331  14.068   4.746 -0.0759  0.1699  0.0853
28052W        W44186  10.858  13.805   2.143 -0.0717  0.2277 -0.4288
28053W        W44187   3.790  10.359   0.491 -0.1510 -0.3930  0.1608
28054W        W44188  17.234  10.639   0.276  0.2078 -0.2031 -0.0059
28055W        W44189   1.115   4.922  10.619 -0.0351  0.1257  0.1359
28056W        W44190  18.844  14.363   1.460  0.1538  0.0289 -0.0193
28057W        W44191   7.145   2.114   1.594 -0.2055 -0.0332 -0.2832
28058W        W44192  16.238   8.369  13.744  0.1329 -0.1745  0.0640
28059W        W44193   5.231   2.417   4.116 -0.3449 -0.2415  0.1528
28060W        W44194   7.917  18.436   2.445 -0.0629 -0.3124  0.0187
28061W        W44195  15.364  11.387   1.459  0.0638 -0.2240 -0.0064
28062W        W44196   7.268   8.926  11.054 -0.0763 -0.3004 -0.1080
28063W        W44197  18.073   5.780   4.920  0.0019 -0.2738  0.4559
28064W        W44198   9.849  13.673  13.272  0.0971  0.0744 -0.1788
28065W        W44199  11.448  14.817   4.440  0.0723 -0.1744  0.2080
28066W        W44200   4.536   4.136   0.423  0.2328  0.1519 -0.2188
28067W        W44201  11.369   1.501   5.066 -0.0292 -0.3254  0.0508
28068W        W44202  16.190   8.684   1.079  0.0482  0.1950  0.1906
28069W        W44203   6.068  12.411   4.465  0.2593 -0.1320 -0.2350
28070W        W44204   7.330  15.470  11.961  0.0050 -0.1775  0.4983
28071W        W44205   1.444  18.602   2.260  0.0186  0.1025  0.0785
28072W        W44206  14.296  17.276   1.112  0.0748  0.0328 -0.2049
28073W        W44207  18.938   0.623  12.633  0.0068  0.3113  0.0424
28074W        W44208   9.491   7.580   0.969 -0.1124  0.0348 -0.2737
28075W        W44209  13.017   4.313   4.889  0.2830  0.0566  0.2043
28076W        W44210   0.136  12.086  10.909  0.1389  0.2825 -0.1058
28077W        W44211   8.583  16.298   0.679 -0.0888  0.2312 -0.0338
28078W        W44212   7.419   0.137  12.222  0.4464  0.0371  0.0514
28079W        W44213  13.430   6.793   1.494 -0.3075 -0.1786  0.1338
28080W        W44214  10.521   4.471   2.121  0.0245  0.3055  0.0262
28081W        W44215  11.882  17.203   2.536  0.5124 -0.1232 -0.2665
28082W        W44216  12.591   7.037   1.638  0.0927 -0.1800  0.1414
28083W        W44217   1.339   5.675   9.965 -0.2698  0.4374  0.0490
28084W        W44218   9.824   2.228   3.906 -0.2431 -0.4368 -0.0505
28085W        W44219  10.705  14.848   1.890  0.0208  0.0411  0.0490
28086W        W44220   4.166  10.357  10.106 -0.0690 -0.2437  0.1832
28087W        W44221   2.202  12.557   3.964  0.2151  0.0154 -0.3011
28088W        W44222   6.332  11.289   1.120 -0.0121  0.1292  0.1966
28089W        W44223   9.156  17.579   2.903  0.0554 -0.0637 -0.3642
28090W        W44224  11.546  15.338   5.544 -0.2569 -0.0160  0.1555
28091W        W44225   8.262  18.211  11.737  0.0507  0.1004 -0.0095
28092W        W44226   6.705  16.320   4.542 -0.1282  0.3004 -0.0241
28093W        W44227   8.346  15.101  12.846 -0.4711  0.3225 -0.3402
28094W        W44228   1.971   1.327  12.512 -0.2203  0.0675  0.3708
28095W        W44229  17.415   8.360   0.302 -0.1872 -0.0341  0.1080
28096W        W44230   4.346  10.217  12.132 -0.1373  0.1051 -0.2450
28097W        W44231   3.058  13.753  12.521 -0.1673 -0.0400 -0.1050
28098W        W44232   4.465   5.793   2.020  0.0149 -0.1915 -0.1739
28099W        W44233  19.004   1.903  13.618 -0.0941  0.0774 -0.1356
28100W        W44234  17.986  10.618  14.596 -0.3804  0.4195  0.0535
28101W        W44235  18.466   2.661   0.901 -0.0579 -0.2355  0.0434
28102W        W44236  13.644   0.645   3.467  0.0589 -0.0254 -0.0364
28103W        W44237  10.234  13.752   0.769 -0.1102  0.0174  0.0977
28104W        W44238   5.883  12.637  11.246 -0.1630 -0.2287 -0.0993
28105W        W44239  17.363   1.334   0.350  0.2497 -0.1723 -0.2406
28106W        W44240   0.695  17.632   3.279  0.0585 -0.0057  0.0472
28107W        W44241  18.942  14.689   2.600 -0.0001 -0.0645 -0.0580
28108W        W44242   4.218   9.562   0.073 -0.3693 -0.1995 -0.4222
28109W        W44243   8.108  15.014   2.081  0.0991 -0.0211 -0.2769
28110W        W44244   3.429  11.157  10.371 -0.0467 -0.2928 -0.0884
28111W        W44245   7.275  13.569  11.979 -0.1476  0.1510  0.2929
28112W        W44246   2.559  16.342   2.334  0.0838  0.1308  0.1086
28113W        W44247   4.898   3.464   0.281  0.1811 -0.3893  0.5269
28114W        W44248   3.811   5.698  14.776 -0.2039  0.0882  0.0362
28115W        W44249  15.233  10.207  12.874 -0.0871 -0.1786 -0.0493
28116W        W44250  13.626   9.335  13.064  0.3381 -0.0387  0.0198
28117W        W44251  14.805   8.154   4.787  0.0536  0.3205  0.0925
28118W        W44252   2.949   8.541   1.362 -0.4296  0.1241 -0.0058
28119W        W44253  16.341   5.382   3.179  0.0635  0.0311 -0.1573
28120W        W44254  10.525   1.625   2.518 -0.3414  0.0906 -0.2898
28121W        W44255   1.473  11.474  12.575  0.0218 -0.2364  0.1946
28122W        W44256   4.528  11.432   4.554 -0.1720  0.1690  0.0204
28123W        W44257  17.286   0.201   4.091  0.1370  0.1221 -0.2353
28124W        W44258   7.095  17.908   2.096  0.1202  0.2332  0.3753
28125W        W44259   5.948  17.550   1.611 -0.1193 -0.1655  0.0495
28126W        W44260   6.942   6.126   3.186  0.1390 -0.2142  0.0308
28127W        W44261   5.412   3.140  14.514  0.2232 -0.2097  0.1643
28128W        W44262   0.236   8.012   0.986  0.4127  0.2496  0.0935
28129W        W44263   5.215  17.440   0.617 -0.3113 -0.0030 -0.2434
28130W        W44264  18.905   0.836  14.771  0.0748  0.0635 -0.1500
28131W        W44265   3.791  16.348  13.476 -0.4239 -0.0314 -0.3245
28132W        W44266  14.866   6.666  10.904 -0.2849  0.1935  0.1907
28133W        W44267   3.447  10.867  12.990  0.0640 -0.2704 -0.1636
28134W        W44268  18.144  16.131   3.898  0.1534 -0.1124 -0.0180
28135W        W44269   4.101  11.379   5.131  0.0891  0.4476 -0.0805
28136W        W44270   8.565  15.249   1.910 -0.1376  0.0564  0.0586
28137W        W44271  17.735   1.212  13.421  0.2484 -0.1044  0.2860
28138W        W44272  14.811  15.932  11.359  0.1550  0.0241 -0.3089
28139W        W44273  12.142  11.201  12.608 -0.3027  0.3146 -0.0135
28140W        W44274  10.371  17.016   1.393  0.2641  0.2693 -0.0127
28141W        W44275   5.079  12.595   4.186  0.2906  0.0346 -0.2048
28142W        W44276   8.197  11.054  13.207 -0.5084  0.2054  0.2194
28143W        W44277  13.379  10.117  10.798 -0.2377 -0.2147 -0.0096
28144W        W44278   8.978  15.389   1.629 -0.2721  0.0881 -0.3555
28145W        W44279   6.400   7.955  12.843 -0.1937  0.2112  0.2676
28146W        W44280  15.837  10.090  14.932 -0.0750 -0.1771 -0.0304
28147W        W44281   0.290  11.446   0.339  0.1529  0.1060  0.0020
28148W        W44282  14.920  16.413   3.819 -0.2825  0.0038  0.1262
28149W        W44283   7.341  10.925   1.922 -0.2025 -0.1488 -0.0945
28150W        W44284  15.666  14.695  12.056  0.0072  0.1366  0.0002
28151W        W44285  12.370  16.836  13.773 -0.0969  0.0681  0.0167
28152W        W44286  11.319  10.408  13.727 -0.1681  0.0151 -0.3086
28153W        W44287  17.767   4.897  12.547  0.4593  0.3714 -0.1593
28154W        W44288   9.513   8.087  12.609  0.2741 -0.0625 -0.2766
28155W        W44289  18.912  13.279  11.360  0.0953 -0.0913 -0.1157
28156W        W44290  10.395   7.904   1.682 -0.1275  0.3033  0.2616
28157W        W44291  18.986  19.105  13.410 -0.0242  0.1002 -0.1445
28158W        W44292   7.310  10.362  11.223 -0.5501 -0.1258  0.3326
28159W        W44293   6.353  17.571  10.637  0.1834 -0.0934  0.0471
28160W        W44294  12.753   5.732  12.268 -0.2178 -0.2224  0.1263
28161W        W44295  16.759   1.014  13.461  0.0316  0.3380  0.1004
28162W        W44296   9.888   0.547  12.859 -0.2359 -0.3926  0.0884
28163W        W44297   0.834   7.604  12.177  0.1261  0.1681  0.1130
28164W        W44298   9.732  10.366  13.439 -0.2471 -0.1592 -0.2022
28165W        W44299  16.663   9.767   1.401  0.0383  0.1587 -0.1721
28166W        W44300   3.046   8.117   0.140  0.0177 -0.2529 -0.1156
28167W        W44301  16.121  18.911  11.466 -0.0669  0.2226 -0.0350
28168W        W44302   2.520  13.132  10.389  0.0523  0.0382  0.0123
28169W        W44303  12.278   5.058   3.608 -0.1901 -0.1169 -0.2001
28170W        W44304  13.482  12.734   2.300 -0.3093  0.1391  0.0857
28171W        W44305   1.061  10.962   8.876  0.1322  0.3757 -0.1534
28172W        W44306   2.893   3.409  14.780 -0.1330  0.0541 -0.1475
28173W        W44307  14.056  14.119  14.334 -0.0202  0.5803 -0.0874
28174W        W44308   9.334  11.647  14.289 -0.1559 -0.1692 -0.0374
28175W        W44309  15.971   3.719   3.621 -0.0830  0.2540  0.3296
28176W        W44310   1.658  12.973  12.664  0.0118  0.0036  0.0276
28177W        W44311  14.464   8.011   0.815 -0.0477  0.1110 -0.2901
28178W        W44312   7.390   2.541  12.288  0.1657  0.3016 -0.0146
28179W        W44313   7.236  18.698   4.291  0.3907  0.1072 -0.0561
28180W        W44314  18.492  15.800  10.389 -0.1608 -0.4012 -0.1500
28181W        W44315  12.316  15.272  14.303  0.0875  0.0324 -0.1047
28182W        W44316  14.530  15.212  14.804 -0.1373  0.1340  0.0771
28183W        W44317  13.176   1.306  14.901  0.4768 -0.1375 -0.2652
28184W        W44318   8.945   6.122   3.172 -0.1074 -0.0775 -0.2067
28185W        W44319  12.811   9.299   1.525  0.2318  0.1219  0.0038
28186W        W44320   7.326  18.626   5.614  0.0327 -0.2036  0.2235
28187W        W44321   5.699   9.622  13.540 -0.1478  0.0524  0.3617
28188W        W44322   3.204  11.874   2.394  0.1304  0.1713 -0.2499
28189W        W44323   9.353  10.516   4.326 -0.1377 -0.0197 -0.0457
28190W        W44324  16.534  18.664   0.008  0.0925  0.0267  0.2269
28191W        W44325  17.462   6.551  10.559  0.1363 -0.2508 -0.0213
28192W        W44326  13.016   3.243   2.049 -0.1729  0.0212  0.1855
28193W        W44327   8.821  18.538  12.189 -0.1013  0.1354  0.3702
28194W        W44328   2.965  19.309  12.778  0.2339 -0.1874 -0.0127
28195W        W44329  16.828  17.124  12.741  0.0839  0.0757 -0.1849
28196W        W44330   9.292   3.522  14.405 -0.3173 -0.1799  0.0012
28197W        W44331   7.846  10.866  10.454 -0.2825  0.2294 -0.0589
28198W        W44332  18.042  12.058  10.361 -0.5843  0.1296  0.0229
28199W        W44333  18.366   1.645   3.304 -0.2231  0.0035  0.0304
28200W        W44334  17.534  18.086   3.207 -0.0291 -0.0840  0.0617
28201W        W44335  15.149   2.842   2.685  0.2943  0.1107 -0.0667
28202W        W44336  17.559  14.213   2.823 -0.1501  0.3891  0.0304
28203W        W44337   1.427   4.708   2.482  0.2909 -0.2827  0.0454
28204W        W44338   3.271  16.518  12.117  0.0834 -0.1694  0.0274
28205W        W44339   5.591   5.139  11.337  0.2919  0.0118 -0.0214
28206W        W44340  11.039   8.674  14.935  0.0134 -0.1236  0.3768
28207W        W44341   1.561   8.291   9.982  0.2397 -0.0268  0.0290
28208W        W44342   1.361  12.380   3.875 -0.2172 -0.3633  0.0396
28209W        W44343  16.861   5.385  10.970 -0.1167  0.2554  0.0135
28210W        W44344  15.676  10.973  13.587  0.1335 -0.1782  0.0197
28211W        W44345  17.849  10.035  13.156 -0.1271 -0.2667 -0.0722
28212W        W44346   3.673  16.108  14.590  0.2261  0.0396  0.1666
28213W        W44347   4.827  18.204  12.014  0.0700  0.0466 -0.5945
28214W        W44348  15.459   7.149   9.233 -0.1874 -0.2661 -0.2017
28215W        W44349  14.918   3.468   1.603 -0.2596 -0.1397  0.2365
28216W        W44350  12.451   7.930  14.301  0.0049 -0.1945 -0.2078
28217W        W44351   4.778   2.643  14.876 -0.1193  0.3356  0.0166
28218W        W44352   3.828   2.609  13.708  0.0413  0.0630  0.1752
28219W        W44353   3.444  10.316   4.511  0.6669  0.0087 -0.1097
28220W        W44354   8.027   0.430   1.507  0.3131 -0.0304  0.1455
28221W        W44355  12.859  16.570   2.200 -0.0191  0.0225 -0.0286
28222W        W44356  10.583   1.067  12.637  0.2179 -0.1567 -0.1258
28223W        W44357  13.841  16.253  13.914 -0.1052 -0.1321 -0.0257
28224W        W44358  15.303  13.130   3.880  0.0734 -0.0690 -0.2294
28225W        W44359   6.230   7.934  14.329 -0.2784  0.1608  0.1742
28226W        W44360   1.131  13.254  10.664 -0.0419  0.0386 -0.1318
28227W        W44361  14.598  11.473  13.133 -0.2655 -0.0588 -0.3113
28228W        W44362  15.479   8.338   0.710 -0.0563  0.1648 -0.1088
28229W        W44363  17.343  15.359  14.533 -0.1163 -0.1825 -0.1080
28230W        W44364  18.246  14.646   4.552 -0.1280  0.0293  0.0641
28231W        W44365  12.484   7.010   4.024 -0.1885 -0.0030  0.1715
28232W        W44366   7.189  11.402   1.186  0.0010 -0.0588  0.1779
28233W        W44367   1.747   7.843   3.031 -0.3972  0.1573  0.0911
28234W        W44368  13.352  19.294   5.429 -0.3312  0.0827  0.1391
28235W        W44369   7.821  11.719   4.479  0.1489  0.2701 -0.4438
28236W        W44370  12.902   6.175  14.899  0.0069  0.2226  0.2836
28237W        W44371  12.692  14.829  14.026  0.3440 -0.0562 -0.1173
28238W        W44372   8.921   7.884  10.384  0.0518  0.0223 -0.1410
28239W        W44373  12.547  19.024  13.719 -0.0906  0.0820  0.0103
28240W        W44374   3.270  18.035  10.422 -0.2146 -0.1135 -0.0570
28241W        W44375   3.202  10.749   4.506 -0.1226  0.3450  0.1750
28242W        W44376  15.509   8.782  14.371  0.1310 -0.0661  0.1500
28243W        W44377   1.290   4.430   2.083  0.0368  0.2680 -0.0387
28244W        W44378  17.751   7.888   0.074  0.1849  0.1842 -0.0861
28245W        W44379   2.336   6.733   3.425 -0.2421  0.0250  0.0894
28246W        W44380   3.904   2.283   0.054  0.0067 -0.2847  0.0996
28247W        W44381   8.480  18.593   4.964 -0.1063 -0.0509 -0.0196
28248W        W44382  17.200   7.146  14.234 -0.5360 -0.0931  0.0871
28249W        W44383  16.733   6.932   1.363 -0.2070  0.0565 -0.1314
28250W        W44384   1.569  15.353   4.532 -0.1701  0.3036  0.2013
28251W        W44385   4.154   6.810  12.881 -0.0339  0.0653 -0.5336
28252W        W44386   0.358   0.474  13.593  0.1732 -0.1793 -0.1758
28253W        W44387   1.660  10.338   2.011  0.1892  0.0104 -0.0844
28254W        W44388  10.614   7.922   4.399 -0.1957 -0.1295  0.2818
28255W        W44389  18.336  17.220  13.506 -0.0581 -0.1098  0.2613
28256W        W44390   8.545   8.600  11.169  0.3660 -0.3289  0.1584
28257W        W44391  13.034  19.284  10.815  0.0157  0.1548  0.0269
28258W        W44392   0.043  10.439   0.359  0.0694 -0.0220  0.2468
28259W        W44393   2.472   8.583  12.309 -0.0132  0.0884  0.2527
28260W        W44394  18.610   4.819  13.199  0.0442 -0.0155  0.0289
28261W        W44395  11.742   0.481   2.707  0.1712 -0.1246 -0.3093
28262W        W44396   7.720   5.104   3.653 -0.3566  0.0933  0.1144
28263W        W44397   4.745  13.659   5.169 -0.0002  0.2264  0.0005
28264W        W44398  17.898   7.655  10.115  0.0966  0.2277  0.2549
28265W        W44399  11.348  19.086  12.093  0.0913 -0.1293  0.1686
28266W        W44400   0.886  19.116  12.833  0.1757  0.1174  0.3217
28267W        W44401  17.020   9.657   3.498  0.1831 -0.1098  0.0074
28268W        W44402  12.532  13.529   3.171 -0.5173  0.2840 -0.0974
28269W        W44403   9.511  12.201   3.362 -0.1105 -0.0158  0.3476
28270W        W44404   9.520   0.704   0.846 -0.0265 -0.5909 -0.1463
28271W        W44405   7.118  18.213  12.093 -0.1244 -0.3465 -0.1256
28272W        W44406   6.417   2.521   3.143  0.0278  0.0147  0.1146
28273W        W44407  17.038   1.698   0.708 -0.1679 -0.0559  0.0955
28274W        W44408   5.026  11.311   3.368  0.0530 -0.2294 -0.2328
28275W        W44409   1.137  12.867  13.461  0.0082  0.0718 -0.2943
28276W        W44410  17.234   8.703   0.933 -0.0592  0.2893 -0.1124
28277W        W44411   6.977  14.729  12.860  0.0313 -0.1030 -0.1210
28278W        W44412   7.066  14.683   0.983  0.1829 -0.4185  0.3284
28279W        W44413  10.314   9.038  13.691 -0.1998 -0.4200 -0.1506
28280W        W44414  12.828   6.658  11.622 -0.0306 -0.2245 -0.1010
28281W        W44415   8.019   4.124  14.787  0.0580  0.0325 -0.1116
28282W        W44416   8.908   5.833  13.863  0.1019  0.0038 -0.1060
28283W        W44417  11.486   9.812  11.538  0.1172 -0.5276 -0.1318
28284W        W44418   3.875   8.919   3.665  0.0761  0.1575  0.0307
28285W        W44419   6.929   7.892   3.590 -0.1667 -0.0590  0.0814
28286W        W44420  14.057  17.146   0.053 -0.0938  0.1306  0.0296
28287W        W44421  15.040   1.234   5.062 -0.0157  0.0430 -0.1280
28288W        W44422  12.749  14.779   3.776 -0.0552 -0.0198 -0.1479
28289W        W44423  10.857   0.961  14.573 -0.0280  0.0872 -0.1656
28290W        W44424   0.241   5.992   1.407  0.3615  0.4069  0.3913
28291W        W44425   9.221   2.949  12.099  0.3018 -0.0251 -0.2528
28292W        W44426   4.018   6.278  13.850 -0.1452  0.0756  0.0032
28293W        W44427   1.349  14.732  11.220  0.0277 -0.2400 -0.1395
28294W        W44428   4.075  12.620  14.062  0.0894  0.1052  0.1296
28295W        W44429   6.812   6.594  11.396 -0.0735  0.1156 -0.3755
28296W        W44430  16.966  19.287   4.710 -0.1318  0.2481  0.0030
28297W        W44431  10.756   2.703   2.066  0.1221  0.1135  0.1312
28298W        W44432   4.536  17.249   2.070  0.0382  0.0727  0.2891
28299W        W44433  10.719  17.371  13.755  0.2666  0.2607  0.1210
28300W        W44434  13.531   7.958   1.830 -0.2163  0.0959  0.1287
28301W        W44435   9.943  12.056  11.344 -0.1076  0.2910  0.3253
28302W        W44436   1.191  16.496   3.215 -0.0934 -0.0646 -0.3649
28303W        W44437   3.263  13.171  11.176 -0.0577  0.0810 -0.2632
28304W        W44438  12.424   9.614   4.104 -0.0758  0.2862  0.1298
28305W        W44439   3.852   6.644  11.420 -0.1339 -0.0764 -0.1808
28306W        W44440  14.363   6.099   3.643  0.1009 -0.2907  0.2202
28307W        W44441   1.502   8.023   4.678  0.0951  0.1838 -0.0314
28308W        W44442   7.826  15.419   3.676 -0.0696 -0.3472  0.1572
28309W        W44443   1.968  12.873   2.142  0.2065 -0.1524  0.0217
28310W        W44444  11.891   7.913   0.424 -0.2221 -0.2315  0.0395
28311W        W44445   1.524  12.257   1.006 -0.2272 -0.1649 -0.3580
28312W        W44446   7.750   7.371   0.869 -0.0759 -0.0803 -0.1540
28313W        W44447  17.262   8.778   4.294 -0.3258  0.0849 -0.2693
28314W        W44448   6.702   2.113   2.481  0.1188 -0.2079  0.0251
28315W        W44449  11.519   3.705  11.323  0.0694  0.3015 -0.0235
28316W        W44450   3.270   7.794   4.165  0.3651 -0.0318  0.3598
28317W        W44451   9.061   4.277  13.300  0.2608  0.5278 -0.1084
28318W        W44452   4.766  18.635  14.390 -0.1040 -0.0985  0.0791
28319W        W44453  15.344  11.441  11.573  0.2454 -0.3061 -0.1132
28320W        W44454   2.147   5.753  13.837  0.0660  0.2721  0.3117
28321W        W44455  17.896   6.181   2.235  0.3657 -0.0148  0.2440
28322W        W44456  11.877   6.819  11.248  0.0334 -0.0210 -0.0338
28323W        W44457   3.331  12.717  11.434 -0.0454  0.0227 -0.2736
28324W        W44458  15.080   5.973  13.613  0.1672  0.0306 -0.2102
28325W        W44459   5.141   9.353   2.139 -0.2701 -0.1423  0.3385
28326W        W44460   6.341   8.977  13.055  0.0089  0.3489 -0.2072
28327W        W44461  17.998  15.887  12.432 -0.2221  0.3096  0.2029
28328W        W44462  14.007  18.146  11.590  0.1254 -0.2085 -0.2986
28329W        W44463  13.524  14.851   5.474 -0.0780  0.3218 -0.0264
28330W        W44464   9.195  19.310  12.626 -0.1024 -0.0897 -0.1434
28331W        W44465   7.780  12.981   3.063  0.1373 -0.1795  0.1282
28332W        W44466  17.179   3.892  11.051  0.0600 -0.0801 -0.3568
28333W        W44467   9.180   1.666  14.534  0.0152 -0.1963 -0.2356
28334W        W44468  15.779   7.060   1.215 -0.2388  0.3324  0.0938
28335W        W44469  14.363   4.186  14.571  0.3056  0.3056  0.2817
28336W        W44470  13.692   8.145   1.384 -0.4113 -0.2614 -0.2517
28337W        W44471   6.171   8.830   1.198 -0.1398  0.0754 -0.1719
28338W        W44472   0.190   8.339   0.560  0.0664 -0.0854  0.3172
28339W        W44473  17.505   3.096  11.847  0.2562 -0.2335  0.2763
28340W        W44474   3.059  12.796  13.937 -0.1621  0.0529 -0.2147
28341W        W44475   1.806  11.837   1.177  0.1015 -0.0053 -0.3035
28342W        W44476  15.222   4.234   3.866  0.0183 -0.0063 -0.1290
28343W        W44477  11.035   1.095   1.099 -0.0992 -0.0331  0.0535
28344W        W44478  11.945   1.845   3.247 -0.3469 -0.3212 -0.0598
28345W        W44479  18.426   7.139  12.456 -0.0641 -0.3988 -0.1172
28346W        W44480   7.916  10.010   2.986  0.1534  0.2157  0.2554
28347W        W44481   4.565  11.528  14.743 -0.1613 -0.1773  0.1621
28348W        W44482   6.947  16.818   0.799  0.3890  0.0854 -0.2615
28349W        W44483  10.399  15.816  14.630  0.0191  0.1440 -0.1139
28350W        W44484  18.241  13.765  13.982  0.5500  0.2391  0.0408
28351W        W44485  11.927  18.228  10.884  0.2949 -0.1471  0.2224
28352W        W44486  13.045   7.210   1.704  0.1439  0.0047 -0.1583
28353W        W44487  10.676   3.082  12.317  0.0521  0.0478 -0.0721
28354W        W44488  12.889  13.195  12.035  0.2004  0.1215  0.3614
28355W        W44489   8.778   4.525  12.935  0.1518  0.1466 -0.0312
28356W        W44490   3.393   4.338  14.721 -0.3175 -0.0181  0.0273
28357W        W44491  11.849  10.065   4.811 -0.1655 -0.1901 -0.2019
28358W        W44492  18.529  15.901   2.167  0.0175  0.1527 -0.2223
28359W        W44493  16.680   8.076  12.142  0.2395  0.1359 -0.0425
28360W        W44494  14.090  16.679  11.360  0.0587  0.0211 -0.0772
28361W        W44495  14.226  12.129  13.891  0.0867  0.1587  0.0486
28362W        W44496   3.892  18.130  13.188  0.0489  0.0583 -0.2324
28363W        W44497   4.435   4.465  12.928 -0.0166  0.0780  0.0433
28364W        W44498   6.839  11.770   1.109  0.0883 -0.0466 -0.2221
28365W        W44499  18.605   0.028   4.697 -0.2736  0.2678  0.0817
28366W        W44500  14.226  14.576   1.052  0.0934 -0.0530  0.1043
28367W        W44501  15.355  10.879  12.299 -0.0715  0.2261 -0.0282
28368W        W44502   2.942  17.867   1.111 -0.0118 -0.1427 -0.4535
28369W        W44503   8.518   5.620  12.995 -0.1991 -0.0317 -0.0452
28370W        W44504  18.298   8.382  11.602  0.1042  0.3790  0.0180
28371W        W44505  18.240   5.507   3.986  0.2334 -0.1245 -0.1235
28372W        W44506  10.337  10.882   2.185 -0.1352  0.0759 -0.3424
28373W        W44507  12.587   5.909  13.272 -0.1344  0.0838 -0.0765
28374W        W44508   8.619   4.476  12.054  0.1480 -0.4400 -0.2170
28375W        W44509  12.408  15.002  13.344 -0.1923 -0.2068  0.1394
28376W        W44510   0.026   9.918   1.191 -0.1565  0.0644 -0.1588
28377W        W44511  13.838  11.691   0.918 -0.3000 -0.2586  0.3761
28378W        W44512   3.102  10.219  11.760 -0.1131  0.0939 -0.1252
28379W        W44513   2.789   2.200   3.899 -0.1439  0.2660 -0.0461
28380W        W44514  19.099  12.335  14.480 -0.0229  0.0460  0.2054
28381W        W44515   6.652  12.088  13.710 -0.1686  0.2698 -0.2348
28382W        W44516   9.584   7.257  13.772 -0.2859 -0.1359 -0.0164
28383W        W44517  10.183   6.564   2.919  0.1815  0.1633 -0.2773
28384W        W44518  18.059   3.485  13.508 -0.1465  0.2252  0.1175
28385W        W44519  13.313  12.898   2.764 -0.0136 -0.1463 -0.4908
28386W        W44520   0.131   5.879   4.035  0.0829  0.0738  0.2008
28387W        W44521  13.429   9.535   4.264  0.0023 -0.0775  0.1043
28388W        W44522  19.352   5.048  10.778  0.1200 -0.1202  0.2416
28389W        W44523   1.960   2.411   4.815  0.2385 -0.0577  0.3419
28390W        W44524   4.875  14.722   4.008 -0.1717  0.4071  0.0567
28391W        W44525  18.529  16.307  13.060  0.5008  0.2147  0.0426
28392W        W44526   0.541   4.083   9.860 -0.0009 -0.0756  0.2336
28393W        W44527   5.307  11.789   0.518  0.1100 -0.4482 -0.0610
28394W        W44528   0.831   7.497   4.507  0.1592 -0.1224  0.1438
28395W        W44529  18.600  19.338   2.190  0.1622 -0.0505  0.1623
28396W        W44530  15.760  11.819   0.910  0.0897 -0.2141  0.0249
28397W        W44531   1.923  13.129  11.710  0.0963  0.1999  0.2974
28398W        W44532  10.481   6.572  10.318 -0.0142  0.0015  0.0057
28399W        W44533   9.981   1.783   2.484 -0.0017  0.0313  0.2337
28400W        W44534   3.850  15.283  11.382 -0.2614  0.0068  0.4579
28401W        W44535  11.702  16.467   1.617 -0.1174 -0.0879 -0.1048
28402W        W44536  11.291   9.179   3.655 -0.0318 -0.0716 -0.1437
28403W        W44537  10.908   3.003  11.453 -0.2015 -0.0351 -0.1628
28404W        W44538   6.863  11.677   3.728  0.4046  0.0857  0.2963
28405W        W44539  11.192   5.237  14.418  0.1484 -0.0121  0.2544
28406W        W44540  11.383  17.143   3.316  0.1375 -0.1997  0.1813
28407W        W44541   5.478   7.022  12.777  0.1129  0.0526  0.0170
28408W        W44542  13.719  15.498   1.421 -0.0906  0.2788 -0.0150
28409W        W44543   8.515  15.394   2.377 -0.1072 -0.0827  0.0074
28410W        W44544   4.700  11.348  14.247 -0.3441 -0.0997  0.1718
28411W        W44545   9.103  10.965  10.866 -0.0452 -0.0825 -0.0903
28412W        W44546  13.366   7.956   4.898  0.0989  0.1328  0.0936
28413W        W44547  13.854  17.981   1.635  0.1516  0.1632  0.2090
28414W        W44548  19.107   6.636   0.205 -0.2224 -0.2308  0.1283
28415W        W44549  13.376   7.001  11.704 -0.1363 -0.2610  0.2302
28416W        W44550  11.051   3.307   0.438 -0.1780 -0.1378  0.1551
28417W        W44551   8.698   9.383   1.140 -0.0862 -0.3537  0.0599
28418W        W44552   7.205   5.842  14.199  0.0430 -0.1458 -0.1224
28419W        W44553  10.073   3.189   0.378  0.4590 -0.0411  0.3086
28420W        W44554   4.139  13.286   0.192  0.0046  0.1591  0.1062
28421W        W44555   0.502   9.819  12.216  0.2659  0.1054 -0.2204
28422W        W44556  15.498   8.162   3.234  0.4966  0.0528 -0.0774
28423W        W44557   2.205  10.322  13.136 -0.0964 -0.0105  0.2902
28424W        W44558   6.640  13.318   9.433  0.0133  0.0758  0.1127
28425W        W44559  12.426   7.644   5.243  0.1594 -0.2767  0.4052
28426W        W44560   2.186   7.560  10.090 -0.0467  0.4447  0.2550
28427W        W44561  12.630   5.340   0.479  0.0712  0.2776  0.1684
28428W        W44562  10.539   1.080  13.901  0.0597 -0.0095 -0.0607
28429W        W44563   1.120  12.342   1.680  0.2606  0.0303 -0.4421
28430W        W44564   0.226   2.288   9.456  0.2451  0.1884 -0.0695
28431W        W44565  15.315   7.973   4.464  0.1809 -0.1216 -0.3334
28432W        W44566   2.039  12.374  12.840 -0.2279  0.2182  0.1434
28433W        W44567  16.837  15.084  11.327 -0.3458  0.0400 -0.3177
28434W        W44568   7.139  15.575  14.208 -0.0349 -0.1869  0.0460
28435W        W44569   3.648  15.284   3.942 -0.1452 -0.0966 -0.2420
28436W        W44570   4.872  15.258  12.439 -0.0517 -0.2020 -0.1048
28437W        W44571   2.722  17.224  11.753  0.1713 -0.1562 -0.1362
28438W        W44572  14.287   8.030   4.232  0.1273  0.0421 -0.1489
28439W        W44573  16.547  13.059  14.905 -0.1611 -0.1383  0.0313
28440W        W44574   4.316  14.919  14.784 -0.0973 -0.3887 -0.1743
28441W        W44575   2.779   0.455   2.863  0.3446  0.0127 -0.2129
28442W        W44576   8.906  11.888  13.508 -0.1393  0.2126 -0.2989
28443W        W44577   9.319   6.911  11.389 -0.0213 -0.0289  0.2591
28444W        W44578   2.641   5.260   3.124 -0.0059  0.0583 -0.1616
28445W        W44579   7.695   3.151   1.571  0.1264  0.3214  0.0369
28446W        W44580  15.043  16.714  12.441 -0.0881 -0.3749 -0.0442
28447W        W44581   7.737   5.119  11.929  0.0492 -0.2003 -0.0001
28448W        W44582   2.539  10.723  13.098  0.0836 -0.2171 -0.0213
28449W        W44583   5.723   8.378   1.833  0.3412 -0.6130 -0.1846
28450W        W44584  12.203   0.831  11.779 -0.1648 -0.2716 -0.0810
28451W        W44585   6.876   1.664   1.569  0.1495  0.2041  0.1241
28452W        W44586  14.921  10.065  11.810  0.1241  0.1219 -0.1854
28453W        W44587   3.626  14.857   0.430 -0.1540  0.2713 -0.2581
28454W        W44588   4.020  12.470  14.912  0.0809 -0.0481  0.0330
28455W        W44589  14.264  17.618   2.637 -0.0320  0.0010  0.0423
28456W        W44590   9.530   7.419   1.456 -0.5838  0.1588 -0.0004
28457W        W44591  15.646  18.798  14.460  0.2871 -0.0496 -0.1199
28458W        W44592  11.593   2.497  14.830  0.2087 -0.0135  0.3032
28459W        W44593   3.807  13.223   4.674  0.1631 -0.0313  0.4713
28460W        W44594   2.653   6.965  11.777  0.1531 -0.0237  0.0822
28461W        W44595   7.140  14.809   1.819  0.2331  0.1889  0.1130
28462W        W44596   2.246  19.143  11.279  0.2300  0.1699 -0.0750
28463W        W44597  13.988   7.127  10.482  0.3617  0.0915  0.1648
28464W        W44598   2.924  18.625   1.398  0.3024  0.1526  0.3290
28465W        W44599   2.605   7.026   4.651 -0.3778  0.5222  0.2534
28466W        W44600   4.230  13.217  13.223  0.3711  0.0037  0.2075
28467W        W44601  18.653   5.782  14.143 -0.4616 -0.1137 -0.1215
28468W        W44602  12.224  10.087  10.146 -0.0961  0.1975  0.3571
28469W        W44603  14.306  10.216  14.451  0.1575 -0.0669 -0.0025
28470W        W44604   2.437   1.188  12.796 -0.0656  0.0026  0.0452
28471W        W44605  15.279  17.148  11.758  0.0216  0.0070 -0.2484
28472W        W44606   7.487  11.536   0.312  0.0649  0.1019 -0.0585
28473W        W44607   2.081  15.614   4.396  0.0680 -0.3293 -0.0864
28474W        W44608   6.998  12.740   1.075 -0.2368  0.0144 -0.2357
28475W        W44609  17.793   8.686  14.614  0.1829  0.0644 -0.1529
28476W        W44610  10.560   3.166   3.147  0.1945  0.1930 -0.0363
28477W        W44611  18.115   1.263   2.600  0.0217 -0.2406 -0.0932
28478W        W44612   4.588   9.895   2.565  0.2017  0.0140 -0.0633
28479W        W44613  14.613  13.585   3.024  0.0234  0.3009 -0.0630
28480W        W44614   8.947  18.440   3.229  0.2545  0.0044  0.0117
28481W        W44615   9.316   2.929   4.318 -0.1552 -0.1875 -0.0277
28482W        W44616  14.699   9.563   2.360 -0.1887 -0.1792  0.2845
28483W        W44617   2.712  18.367   1.878 -0.1973 -0.1133  0.3111
28484W        W44618   8.544  16.243   2.050 -0.0460 -0.1960  0.0290
28485W        W44619   5.609  17.439  13.176 -0.0221 -0.0392 -0.1280
28486W        W44620  17.819  10.161  14.229  0.1257  0.1328 -0.3698
28487W        W44621   9.663   5.808   3.952 -0.1898  0.2838 -0.3355
28488W        W44622   6.759   4.385   2.981  0.1320  0.1311 -0.0969
28489W        W44623   9.999  16.040   2.288 -0.1757  0.1840 -0.0744
28490W        W44624   9.035  18.875  11.748 -0.2935  0.5737  0.0043
28491W        W44625  18.523   8.447  13.318 -0.1334  0.2504  0.1686
28492W        W44626   2.722  11.966   1.609  0.0104  0.0614  0.3330
28493W        W44627   3.475  10.016  12.402  0.0891  0.0279  0.2415
28494W        W44628   2.107   8.743  14.891 -0.1030  0.0458  0.1984
28495W        W44629  14.812   2.093   0.266 -0.1852 -0.0866  0.0649
28496W        W44630  16.655   4.062   4.970  0.1251  0.0284 -0.2450
28497W        W44631  12.080   2.238   2.067 -0.0199 -0.0934 -0.2917
28498W        W44632   4.657   7.595  14.321  0.0294  0.1500  0.1227
28499W        W44633   7.633   8.406  12.094 -0.0023 -0.1293  0.1462
28500W        W44634  11.514   8.685   9.495 -0.1283  0.2587 -0.2378
28501W        W44635   6.499   5.446   4.869 -0.0576 -0.0973  0.2502
28502W        W44636  16.210   6.379   4.216 -0.1258  0.1604  0.2648
28503W        W44637   4.062   8.317  10.463  0.0559 -0.0500  0.0203
28504W        W44638  16.210  19.297  14.012  0.1648 -0.0456  0.1673
28505W        W44639   8.963   4.371  14.338  0.3956  0.0112  0.1129
28506W        W44640   8.096  15.402   4.174 -0.2534 -0.1280 -0.1426
28507W        W44641   6.139  19.163   5.829  0.0275  0.3633  0.0370
28508W        W44642  18.973  12.611  14.911  0.0362  0.1908 -0.1132
28509W        W44643   4.502  15.956   9.557  0.0756  0.0743  0.1981
28510W        W44644  10.909  10.631   4.830 -0.3765 -0.0794 -0.4381
28511W        W44645  11.373  14.360  14.889 -0.1997  0.0072 -0.4722
28512W        W44646  15.740   0.840   3.117  0.0389 -0.2952  0.1709
28513W        W44647  11.927   6.730   9.994 -0.0748  0.0752 -0.1611
28514W        W44648   1.838   1.969  14.296 -0.1624  0.0846 -0.0233
28515W        W44649  11.722   5.526   2.517  0.0464 -0.1272  0.1114
28516W        W44650  14.192   5.407  13.195 -0.0909  0.0834 -0.2737
28517W        W44651   6.882  16.348  13.780  0.0484 -0.1320 -0.2654
28518W        W44652   1.955   5.431  10.851 -0.0988  0.0053 -0.0397
28519W        W44653  13.352  12.657   3.677 -0.0944 -0.0404 -0.1915
28520W        W44654   0.091   4.091   9.556 -0.0240  0.1032  0.3199
28521W        W44655  19.012   1.149  10.835 -0.1171  0.1079  0.1194
28522W        W44656  19.238   1.780   3.430 -0.1782  0.1165 -0.1290
28523W        W44657  10.758  13.237   2.269 -0.2707 -0.2829 -0.3388
28524W        W44658  17.799  15.268  11.030 -0.0832  0.1833  0.4217
28525W        W44659  11.774  11.022   3.393  0.3011  0.1724  0.2149
28526W        W44660   3.276  17.329   0.250  0.0783  0.1382 -0.2456
28527W        W44661   4.294   4.031  14.119 -0.1804  0.0950 -0.2515
28528W        W44662   0.369  13.467   4.925  0.2965 -0.0207  0.2784
28529W        W44663  13.991   8.194   1.779 -0.3049  0.3126 -0.0959
28530W        W44664   4.826  16.715  11.139 -0.1479 -0.0939 -0.0142
28531W        W44665   3.797  10.857  12.621 -0.2340  0.1960 -0.0148
28532W        W44666  14.577   8.096   0.299 -0.2401  0.0869  0.1835
28533W        W44667   8.403  14.327  14.637  0.0349 -0.0612  0.1559
28534W        W44668  15.857  11.954  12.552 -0.0214 -0.0638  0.0834
28535W        W44669  10.010   2.429  14.010 -0.2229  0.2045  0.4832
28536W        W44670   7.717   6.945  12.550 -0.0166 -0.0920  0.2360
28537W        W44671   8.033  13.693   0.171  0.0105  0.1408 -0.0149
28538W        W44672   9.804   0.329   4.909 -0.0790 -0.0654  0.3182
28539W        W44673  14.099   6.430  14.100 -0.2553 -0.0105 -0.2037
28540W        W44674   3.510   8.294   2.497 -0.1547  0.0211  0.0703
28541W        W44675   1.809  13.621  11.475 -0.1347 -0.0704  0.0798
28542W        W44676   1.506  16.842  10.814  0.0107  0.1222  0.0408
28543W        W44677   0.647   6.666   1.935  0.2851 -0.2605  0.0755
28544W        W44678   3.543   1.173   2.120 -0.0307 -0.6248 -0.4534
28545W        W44679   1.098  10.548  12.996 -0.1417 -0.1710  0.2458
28546W        W44680   5.494  13.770  12.790  0.0420 -0.2106  0.0215
28547W        W44681  13.704  12.013  11.807 -0.2099  0.1808  0.1489
28548W        W44682  12.932   6.266   2.505  0.1768 -0.0089 -0.0591
28549W        W44683   4.934  10.759   2.744 -0.3627 -0.0427  0.0882
28550W        W44684   3.366  11.593  10.639 -0.1447 -0.0063 -0.6247
28551W        W44685   9.466  10.750  12.621  0.2698  0.0920  0.1587
28552W        W44686  12.789  10.794   3.285 -0.5329 -0.0295 -0.3450
28553W        W44687  12.125  10.605   2.707 -0.1680 -0.2372  0.4205
28554W        W44688  10.626   1.695  11.442 -0.1824 -0.2421 -0.2432
28555W        W44689   5.942   6.473   5.029  0.2061  0.0939  0.2148
28556W        W44690  10.381  10.774  12.570 -0.3068  0.1747  0.0167
28557W        W44691   1.673   9.743   3.498 -0.2848  0.1140 -0.2428
28558W        W44692  16.959  11.035   0.639  0.0538 -0.0164 -0.1883
28559W        W44693   0.026   7.210   1.909  0.0409  0.3033  0.0106
28560W        W44694  14.935   3.947   4.695  0.2856  0.2345  0.0921
28561W        W44695   1.480  17.830   4.523  0.3703  0.3226 -0.3128
28562W        W44696   2.875  13.346   3.636 -0.1609 -0.0029 -0.0632
28563W        W44697  16.866  11.364   9.911 -0.1713 -0.0299  0.3828
28564W        W44698   8.136  15.016  13.662 -0.1444  0.0208  0.0267
28565W        W44699   4.459  12.637   5.093 -0.1400  0.1480 -0.1075
28566W        W44700   3.853   4.845  12.486 -0.2367 -0.1582 -0.0831
28567W        W44701  18.179  18.444   2.281 -0.0649 -0.1141 -0.0484
28568W        W44702  17.686  16.211   5.103 -0.2290 -0.1533  0.1941
28569W        W44703  11.024   6.661  14.439  0.0605 -0.2984  0.1555
28570W        W44704   9.625  15.472   4.849 -0.4633  0.1840  0.2845
28571W        W44705  14.589   5.992   4.991  0.0231 -0.1079  0.1302
28572W        W44706  13.746   4.964  11.970 -0.0462  0.1837  0.0981
28573W        W44707  16.788   1.551  12.693 -0.2655 -0.2186  0.2819
28574W        W44708   0.194  12.421   1.770 -0.1311  0.0384  0.2597
28575W        W44709  18.165   3.887  13.720 -0.4326 -0.2648  0.1909
28576W        W44710  12.394   6.487   3.230  0.0108  0.0332 -0.3356
28577W        W44711   1.337  11.810   0.922 -0.0994 -0.1474  0.1399
28578W        W44712  10.843   1.485   0.500  0.0045 -0.0114 -0.1766
28579W        W44713   5.071   0.851   1.972 -0.2577 -0.0353 -0.0672
28580W        W44714  10.265   6.791   3.660  0.1537 -0.2122 -0.0759
28581W        W44715  15.060   8.041   5.372  0.3717 -0.2092 -0.0724
28582W        W44716   9.548   5.341  10.204  0.4601  0.0973  0.3360
28583W        W44717   8.114  10.047  10.000 -0.2692 -0.3886 -0.2406
28584W        W44718  19.194  10.857  12.893  0.2163 -0.0943 -0.0430
28585W        W44719  17.349  17.242   3.625 -0.1573  0.2218  0.2040
28586W        W44720  12.836  15.326   4.243  0.0353 -0.0565  0.0152
28587W        W44721   8.860   7.604  11.723 -0.2700  0.1434  0.1725
28588W        W44722   6.580  12.612  11.430  0.3262 -0.2647 -0.0278
28589W        W44723  16.178  11.267   3.899 -0.3178  0.4098  0.2850
28590W        W44724   7.315  14.929  13.982 -0.0301  0.1299  0.2602
28591W        W44725   4.708  18.979   0.808  0.1556 -0.2295 -0.1305
28592W        W44726   6.174   7.612   2.440  0.1327  0.0628 -0.0508
28593W        W44727   9.575  13.083  12.727  0.3235 -0.2736  0.4610
28594W        W44728   3.984  11.979  14.272  0.4005 -0.1633 -0.1272
28595W        W44729  10.835  13.966  14.914  0.0251 -0.2812 -0.0293
28596W        W44730  16.206  10.222   9.669  0.2828  0.0798  0.1319
28597W        W44731   7.417  14.385   3.944  0.1289  0.0785  0.0954
28598W        W44732   4.953  18.167   3.880 -0.0038 -0.2556  0.3734
28599W        W44733  13.476  18.562   3.441 -0.0911  0.2126  0.2124
28600W        W44734   2.393   1.992   0.957 -0.1540 -0.0933  0.0458
28601W        W44735  12.635  16.232  14.017 -0.2927 -0.3764  0.1762
28602W        W44736  11.654  11.239  14.420  0.0587 -0.0193  0.2078
28603W        W44737  17.390  13.233  10.963  0.0059  0.2230 -0.1067
28604W        W44738   8.678   3.920  12.429 -0.1204  0.4736  0.0368
28605W        W44739   9.915   9.727  11.777 -0.0131 -0.0923 -0.4799
28606W        W44740   4.491   9.104   0.796  0.0996 -0.2624  0.1871
28607W        W44741   7.935  11.277   1.737  0.0292  0.1106  0.4837
28608W        W44742  10.846   4.930   2.302 -0.2494 -0.2303  0.1415
28609W        W44743   3.772   8.480   4.263  0.0804  0.2401 -0.2076
28610W        W44744  15.437  17.766   4.786  0.2215  0.1939 -0.0488
28611W        W44745  17.773  16.649   2.822 -0.2873  0.0804 -0.3499
28612W        W44746  14.241  19.203   5.854  0.0957  0.1557 -0.2448
28613W        W44747   1.210   8.741   5.054 -0.1769 -0.5052 -0.0534
28614W        W44748  12.312  10.392   3.120  0.2142 -0.0970 -0.0170
28615W        W44749   6.848  14.175  12.876 -0.1695  0.2331 -0.4044
28616W        W44750   5.059   1.028  11.062 -0.0161  0.1037  0.2976
28617W        W44751  12.653   0.721  14.423 -0.0776 -0.0629  0.4077
28618W        W44752  14.312   1.317   3.450 -0.2713 -0.0120 -0.1291
28619W        W44753   2.070   3.670   1.847 -0.0626  0.1290 -0.0624
28620W        W44754  18.952   5.881  13.528 -0.1193  0.2858  0.2061
28621W        W44755   6.880  12.817   3.773 -0.0056 -0.3463 -0.3076
28622W        W44756  16.673   4.073   2.229  0.1684 -0.4073  0.4643
28623W        W44757   0.850   5.917  10.015 -0.2877 -0.1012 -0.2016
28624W        W44758   1.973   8.993   3.936  0.0647  0.0612 -0.1560
28625W        W44759  17.634  19.246   2.540  0.0321 -0.1354  0.0618
28626W        W44760  10.231  14.800   0.292 -0.1654 -0.0938  0.5007
28627W        W44761   7.869   5.733   1.465  0.0055 -0.3649  0.0663
28628W        W44762   1.059  14.415   1.548  0.0987  0.2853 -0.0561
28629W        W44763   0.874  11.629  14.677  0.0733 -0.3985  0.0059
28630W        W44764   0.043  17.171   2.916 -0.2279 -0.1975 -0.0231
28631W        W44765   3.046  18.111   3.333 -0.2060  0.1358  0.2557
28632W        W44766  15.767  14.582  12.514 -0.2315  0.2004  0.1535
28633W        W44767   2.413   6.536   9.954 -0.3133  0.4267  0.2923
28634W        W44768   9.698   6.059   0.029 -0.0431  0.0150  0.3035
28635W        W44769   7.197  13.315  11.551 -0.1638  0.0805  0.1231
28636W        W44770  10.817   7.779  13.691 -0.4260  0.4316 -0.0928
28637W        W44771  15.728   4.203  14.952 -0.0030 -0.0158  0.1605
28638W        W44772  12.750   8.808  12.152  0.0784  0.1774 -0.3185
28639W        W44773  14.984   7.546  11.775  0.3121 -0.0603 -0.0513
28640W        W44774   5.738  14.647   4.966  0.3712 -0.2155  0.3792
28641W        W44775   3.912  19.097  11.962 -0.0422 -0.4318  0.2805
28642W        W44776  14.357   4.902  10.194  0.2593  0.2954 -0.3784
28643W        W44777   4.102   8.715   3.220  0.0059  0.0170  0.2203
28644W        W44778  16.003   0.366   4.766 -0.0359 -0.1029 -0.1341
28645W        W44779  16.150  13.577   4.680  0.1579  0.2431 -0.3048
28646W        W44780  14.501  17.236   2.177  0.0092  0.1311  0.3490
28647W        W44781  14.024  10.451  11.311 -0.0476 -0.1406 -0.2429
28648W        W44782   3.512   7.717  14.222  0.2479  0.0600  0.0073
28649W        W44783  16.634   7.508   3.878 -0.2161  0.1902  0.1378
28650W        W44784   4.065   7.668   0.619  0.3214  0.1306 -0.4357
28651W        W44785  14.431  19.023  12.015  0.1033  0.3102 -0.0471
28652W        W44786   8.623   5.431   0.528 -0.3745  0.4248 -0.3659
28653W        W44787  17.480   9.892   2.482 -0.0957  0.0270 -0.0880
28654W        W44788   6.735  13.084   4.840 -0.1909  0.2579  0.2337
28655W        W44789  15.911   5.363  14.559 -0.0004 -0.1192  0.0046
28656W        W44790  15.800   6.729   0.831 -0.0598 -0.0795 -0.2303
28657W        W44791   7.307  14.500   2.615 -0.0234 -0.1896  0.1838
28658W        W44792   8.121   1.126   0.448 -0.0869  0.0837  0.3434
28659W        W44793   7.791   9.304   2.655 -0.2330 -0.2569  0.1416
28660W        W44794   6.823  10.155   0.272  0.3676  0.2556  0.1526
28661W        W44795   6.960  16.653   2.337 -0.0399 -0.0723 -0.0779
28662W        W44796  14.400   0.203   4.125 -0.2309 -0.2507 -0.0986
28663W        W44797   9.761   2.438   3.105 -0.3713 -0.0193 -0.1196
28664W        W44798   5.296  12.955   4.992 -0.2553 -0.0444 -0.0609
28665W        W44799  17.543   9.499  12.699  0.1919 -0.1168 -0.1330
28666W        W44800  14.306  14.580   1.535  0.1314  0.1495 -0.1558
28667W        W44801   8.651  17.835   4.292 -0.1737 -0.2021 -0.2750
28668W        W44802   9.062   0.897   1.330 -0.1057 -0.0182  0.2602
28669W        W44803  10.759   4.180   3.022 -0.2804 -0.1055  0.0096
28670W        W44804  16.127  16.391   1.812  0.1322 -0.0103 -0.2504
28671W        W44805   8.158   8.862  11.310 -0.4733  0.2517 -0.1233
28672W        W44806   4.683  16.478   4.667 -0.0912  0.4218 -0.2665
28673W        W44807  13.347   8.918  11.522  0.1084 -0.1054  0.3357
28674W        W44808  11.485   4.056   4.247 -0.3293 -0.3321  0.2049
28675W        W44809   3.246   3.494  11.528  0.1623 -0.4708 -0.3082
28676W        W44810   6.136   6.155  12.886 -0.2446  0.3197  0.0294
28677W        W44811   8.842   0.979   2.817  0.2203  0.1101  0.0590
28678W        W44812   5.754   1.139   4.026  0.1337  0.5746  0.2740
28679W        W44813  18.539  10.272   0.625 -0.1186 -0.0192  0.1792
28680W        W44814   6.444   0.721   0.012 -0.0529 -0.0796 -0.1597
28681W        W44815  11.030   8.522   1.837  0.3204  0.3763  0.1191
28682W        W44816   9.761  15.581   1.724 -0.1430  0.1463 -0.0623
28683W        W44817   4.928   7.826  12.380 -0.1345  0.0411  0.3637
28684W        W44818   9.448   8.831  12.803  0.1598  0.2002 -0.1581
28685W        W44819  18.485  16.749   2.112 -0.0476  0.0072  0.1281
28686W        W44820  15.180   2.147   2.076 -0.0243  0.1140  0.0996
28687W        W44821  18.256   7.125  13.482  0.1135  0.2617  0.0772
28688W        W44822   5.528  18.639   4.357  0.1514 -0.0686 -0.5393
28689W        W44823  12.924  10.425  13.282 -0.2163  0.1347  0.1942
28690W        W44824   4.893  16.021  12.745  0.1520  0.0374 -0.1889
28691W        W44825   7.869  19.185  14.038  0.0782  0.2897  0.1060
28692W        W44826  13.009  12.094   2.834  0.3698 -0.3737  0.2508
28693W        W44827  11.194   6.233   2.148  0.0108  0.0737  0.2024
28694W        W44828  15.974   5.696   3.381  0.0357 -0.1372 -0.4316
28695W        W44829   5.942  15.579   1.309  0.1978  0.1350 -0.1201
28696W        W44830   2.772  18.766  10.906  0.2114 -0.0219  0.2309
28697W        W44831  15.945  18.930   0.052  0.3242 -0.3864  0.0456
28698W        W44832   2.894  15.418   3.476 -0.0890 -0.2789 -0.0631
28699W        W44833  13.200  16.225   2.239 -0.1415  0.2358  0.2392
28700W        W44834  10.716  14.007  11.369 -0.1875  0.0386  0.0297
28701W        W44835   2.553  14.096   2.354 -0.0183 -0.0031 -0.1184
28702W        W44836  13.699  13.518  13.791  0.0643  0.1092  0.2440
28703W        W44837   1.704  15.151   1.180  0.0153  0.0129  0.2643
28704W        W44838   0.135  18.131  14.645  0.0233  0.1897 -0.2031
28705W        W44839   7.867  11.956   1.087  0.0769 -0.1324 -0.0406
28706W        W44840   0.719   1.757   3.480 -0.2088  0.1523 -0.0431
28707W        W44841  15.291   7.160  13.845  0.0502 -0.0723 -0.1608
28708W        W44842   9.979  17.807  13.230 -0.1407  0.1632  0.4335
28709W        W44843  10.566  17.074   4.482  0.0620  0.2783 -0.2332
28710W        W44844   4.719   5.164   0.728 -0.1898  0.0751  0.0716
28711W        W44845   3.392   8.361  10.189 -0.1380  0.0950  0.1301
28712W        W44846  11.474   8.920  13.449  0.0905  0.0006 -0.0422
28713W        W44847  13.526  12.392  13.690  0.2764  0.3479 -0.1745
28714W        W44848   3.420  16.061   4.335 -0.1142 -0.2032 -0.0104
28715W        W44849  18.440  10.784   2.696 -0.0717  0.0787 -0.1150
28716W        W44850  14.420  15.235   1.966 -0.2336 -0.0337 -0.0677
28717W        W44851   4.835  11.076   2.330  0.0152  0.1191 -0.1147
28718W        W44852   5.612  18.689  10.370  0.2553 -0.0324  0.2547
28719W        W44853  15.239  18.532   3.065  0.2111 -0.0319  0.1125
28720W        W44854   7.540  14.803  13.079  0.1100  0.2552 -0.0608
28721W        W44855  17.617  14.828  11.387  0.1449  0.0100  0.1486
28722W        W44856   5.231   6.663   4.445 -0.1545 -0.2947  0.0407
28723W        W44857   9.603  11.229  12.355  0.1007 -0.0958  0.1257
28724W        W44858   6.949   6.111   0.127  0.1872 -0.0924 -0.3024
28725W        W44859  12.197   8.712   3.319 -0.0382  0.1977  0.0835
28726W        W44860   3.675   8.907   0.917 -0.2039  0.0957 -0.1303
28727W        W44861  16.564  16.667  12.956  0.1921  0.0145 -0.1302
28728W        W44862  16.448  17.941  13.632 -0.2024  0.0661 -0.0368
28729W        W44863  18.466  18.857  12.857 -0.1036 -0.2220 -0.2979
28730W        W44864   0.872  18.205   2.098  0.1512 -0.1574  0.1004
28731W        W44865  11.918  15.543   4.420  0.0768 -0.1553  0.1075
28732W        W44866  10.795   0.888   2.333  0.3532  0.4738 -0.0651
28733W        W44867   5.714  13.637  14.662  0.1365 -0.1712  0.3010
28734W        W44868  12.060  12.025   3.560  0.3787  0.3374 -0.1867
28735W        W44869   5.682   2.450  11.045 -0.2586 -0.1582 -0.0994
28736W        W44870  18.118   8.084  13.964 -0.1332 -0.2031  0.3089
28737W        W44871   4.711  15.632   4.003  0.2367 -0.3210 -0.1470
28738W        W44872  11.263   8.081  13.837 -0.0097  0.1282 -0.0762
28739W        W44873   2.850  13.708   2.079 -0.5871  0.1714  0.3423
28740W        W44874  14.824  15.356  12.505  0.3624  0.2234 -0.2364
28741W        W44875   9.633  12.280   2.092 -0.0117  0.0327  0.0620
28742W        W44876  14.454   1.094  13.600 -0.2613 -0.3219  0.0600
28743W        W44877  10.884   2.376  11.505  0.1016 -0.2760  0.1029
28744W        W44878   3.658   4.964  11.971 -0.3555 -0.3156  0.0148
28745W        W44879   5.356  14.450  13.899  0.3138  0.0458 -0.0532
28746W        W44880  13.044   2.092   0.836  0.2101  0.1884 -0.2731
28747W        W44881   1.578   3.255   3.334  0.0606  0.1027 -0.0675
28748W        W44882  15.382  10.196  14.613  0.1532 -0.1803  0.1851
28749W        W44883  15.918   7.543  10.763  0.2210  0.0735 -0.0712
28750W        W44884   5.204  18.075   9.605 -0.0497  0.0715 -0.0460
28751W        W44885  11.784  18.738   0.233 -0.1395 -0.1463 -0.1293
28752W        W44886  18.597   3.584   2.207  0.0176 -0.2157  0.2163
28753W        W44887  13.334   9.307   2.644 -0.3888  0.3249 -0.3203
28754W        W44888   6.539   3.060   4.588  0.3442  0.2213  0.1786
28755W        W44889  13.451   2.142   1.930  0.2500  0.4420  0.0603
28756W        W44890  18.540  16.648   0.124  0.2389 -0.2229  0.4815
28757W        W44891  13.372  10.480  14.582 -0.1231 -0.0538 -0.5495
28758W        W44892  16.114  10.626   1.456 -0.2254 -0.1790 -0.1848
28759W        W44893  11.284   5.736  12.190  0.0074 -0.1818 -0.0621
28760W        W44894  10.960  15.801  12.542 -0.0284 -0.2461  0.2740
28761W        W44895  18.960   4.659  11.446 -0.0175 -0.1617  0.1875
28762W        W44896   9.058   5.327  14.204  0.0285 -0.0954  0.0608
28763W        W44897   1.297   4.316  10.421 -0.0985  0.2834  0.1393
28764W        W44898  15.397   9.310   9.783 -0.0271  0.0947 -0.1975
28765W        W44899  10.242  18.398  11.713 -0.1336  0.0403 -0.2194
28766W        W44900  14.540   4.574  13.781 -0.1539 -0.0462  0.1732
28767W        W44901   5.197  11.005   0.988  0.3163 -0.0391 -0.2925
28768W        W44902  12.886   4.043  10.381  0.3888  0.0931  0.3691
28769W        W44903  16.562  16.964   4.763  0.1957  0.2212  0.3519
28770W        W44904  10.760   7.470  11.408  0.1054  0.1150  0.0514
28771W        W44905   0.389   8.692   4.584 -0.0944  0.0130  0.1738
28772W        W44906   2.868  18.042  13.986 -0.2775  0.0225  0.4307
28773W        W44907  15.950   6.622   3.746  0.3074 -0.0635 -0.2005
28774W        W44908   1.366  11.802  10.345  0.1982 -0.1880 -0.0245
28775W        W44909  16.784   0.386  11.313 -0.2495 -0.2340  0.1723
28776W        W44910  13.268   2.979  12.454  0.2441 -0.2553 -0.0302
28777W        W44911   1.778  17.838   2.526  0.5317 -0.4053 -0.3331
28778W        W44912  18.076  11.542   4.034  0.0272 -0.1807 -0.0754
28779W        W44913   1.718   7.849  13.177 -0.1447 -0.0443 -0.0759
28780W        W44914  12.596   5.886   0.717 -0.2427  0.1309 -0.0830
28781W        W44915  14.535  13.773   0.180  0.2944 -0.1309 -0.5138
28782W        W44916   6.638   8.934   1.041 -0.3125 -0.1694 -0.1138
28783W        W44917  14.194   5.121  14.084 -0.0349 -0.0057 -0.0394
28784W        W44918  16.496  14.335   5.101  0.1170  0.2528 -0.0495
28785W        W44919   3.490   4.662  14.299  0.2607  0.0611  0.1464
28786W        W44920   8.576  15.876  14.702 -0.2413  0.0053 -0.1914
28787W        W44921  11.079   6.705   0.905 -0.4085 -0.2108 -0.1813
28788W        W44922   3.999   7.154   0.409  0.1870  0.0100 -0.0917
28789W        W44923   5.800   8.237   9.544  0.2399  0.2776  0.0404
28790W        W44924  15.494  18.561  12.616  0.0191  0.2682  0.3357
28791W        W44925   5.564   4.994  11.938  0.2975  0.0265 -0.1129
28792W        W44926  10.739  15.564  12.138  0.2553  0.2097  0.2799
28793W        W44927   0.784   3.399  11.691 -0.2505 -0.5226 -0.0687
28794W        W44928   7.191  17.439   2.295 -0.2568 -0.1073 -0.0535
28795W        W44929   6.086  17.738  13.244 -0.3118 -0.0330 -0.1813
28796W        W44930  12.751  18.962   2.980 -0.3775  0.1363  0.0829
28797W        W44931  12.343  16.469  11.108 -0.0044  0.4192  0.0296
28798W        W44932  16.385  11.764  14.534  0.0805  0.2612  0.0420
28799W        W44933  12.301   1.579  10.239 -0.2877  0.3339 -0.0610
28800W        W44934   5.508  15.610  11.647  0.2366 -0.0103  0.3333
28801W        W44935   8.112   5.844  11.522 -0.0934 -0.0034 -0.4070
28802W        W44936   4.886  15.509   4.463  0.0475 -0.1040 -0.1078
28803W        W44937  12.105   5.894  11.085 -0.2279 -0.1706  0.0963
28804W        W44938   3.610  14.559   0.044  0.1642  0.0356  0.0871
28805W        W44939   3.053   5.271   2.226  0.1481  0.1965 -0.3318
28806W        W44940   6.545   1.152  13.257 -0.0930 -0.1757 -0.2108
28807W        W44941  17.748   3.735  11.486 -0.0879 -0.1153 -0.1852
28808W        W44942   6.643  15.067   0.736  0.1186  0.0622 -0.0614
28809W        W44943   2.103  10.719   9.987 -0.2824  0.0406  0.0322
28810W        W44944   9.002   6.453   9.975 -0.1074  0.1045 -0.1805
28811W        W44945   6.463  13.432   3.275 -0.3681 -0.2425  0.0076
28812W        W44946   5.040  18.968   1.284 -0.2189 -0.0078  0.1382
28813W        W44947   1.784  16.368  10.908 -0.1024  0.3951  0.2041
28814W        W44948   9.755  17.999   1.114 -0.3125  0.2773  0.0786
28815W        W44949   8.298   5.251  13.582  0.1183 -0.0831  0.0917
28816W        W44950  13.595   7.100   3.080 -0.0012  0.1690  0.1250
28817W        W44951   4.403  16.426   9.738 -0.1253 -0.4368  0.0144
28818W        W44952   8.053  12.896   2.543  0.1766 -0.3531  0.0151
28819W        W44953   5.903  10.560   1.019  0.1137 -0.2846  0.1132
28820W        W44954   4.854   2.394   2.159  0.1657 -0.1359 -0.1878
28821W        W44955   0.745   8.331  14.004 -0.1321  0.0458 -0.2807
28822W        W44956   2.552   6.138   2.611  0.1917 -0.0987  0.2682
28823W        W44957   9.388   6.914   0.159  0.3303 -0.2478 -0.0876
28824W        W44958   6.401  19.158  11.995  0.1271  0.0979 -0.4428
28825W        W44959  13.529   3.590   5.440  0.1245 -0.1487 -0.2620
28826W        W44960   1.479  14.989  10.797  0.1383  0.1940  0.1022
28827W        W44961  18.140   9.207  11.777 -0.1614  0.2984  0.2663
28828W        W44962  10.030  11.636  13.705 -0.0824  0.1890 -0.0410
28829W        W44963  12.851  10.739   1.386 -0.2442  0.2385 -0.2289
28830W        W44964  17.167   9.665   0.361 -0.0837  0.4801  0.0140
28831W        W44965  18.923  10.280   3.444  0.1171  0.0751 -0.2578
28832W        W44966  17.305   9.471  11.358  0.0160 -0.0633 -0.0435
28833W        W44967  14.268   6.923  14.271  0.0678  0.2417  0.0942
28834W        W44968   5.657   7.749  12.002  0.2971 -0.2289  0.0701
28835W        W44969   8.333   7.538  14.542 -0.0599  0.0012  0.1945
28836W        W44970  13.074  17.923   3.977 -0.3738  0.4447  0.0723
28837W        W44971  10.874   2.707  11.955 -0.3450 -0.0679 -0.1199
28838W        W44972  18.537  15.525   1.847 -0.0478  0.2697 -0.3753
28839W        W44973   0.358   8.575   0.073 -0.0700  0.0441 -0.0792
28840W        W44974   0.715   3.410   3.264  0.1414  0.3200 -0.2700
28841W        W44975  19.177  15.708   2.722  0.1828 -0.1806  0.0153
28842W        W44976  11.891  13.496   5.189 -0.3201 -0.0617  0.0427
28843W        W44977   1.300  16.862   4.076  0.1040 -0.1778 -0.2469
28844W        W44978   7.327   9.862  11.170 -0.1100  0.0905 -0.0857
28845W        W44979   7.069  14.746   3.755 -0.2407  0.1355 -0.0007
28846W        W44980  14.291  12.066   4.494  0.1621  0.0094  0.0088
28847W        W44981   6.681  11.997  14.379 -0.0513 -0.2446 -0.0235
28848W        W44982   3.704   8.350   4.759  0.1518  0.3398  0.0939
28849W        W44983   1.927  18.002   4.221  0.0682 -0.0838 -0.0592
28850W        W44984  16.365  14.834   2.325  0.2642  0.1478  0.0544
28851W        W44985   1.155  15.659   1.677 -0.2216  0.1027  0.4058
28852W        W44986   2.042  15.774  12.037 -0.0582  0.2591  0.0064
28853W        W44987   7.081  14.069   1.149 -0.1912  0.3977 -0.2041
28854W        W44988   4.125  14.439   4.432  0.2305  0.2763  0.1139
28855W        W44989  13.233   8.615   2.075  0.1158 -0.2906  0.0026
28856W        W44990  15.648  11.323   4.673  0.1200  0.0342 -0.4148
28857W        W44991   4.665  14.249   3.664 -0.0849 -0.3024  0.0597
28858W        W44992   2.541   7.963   4.047 -0.0621  0.1153  0.2662
28859W        W44993  12.985  10.862   1.910  0.1623  0.0205  0.2627
28860W        W44994   9.976  14.399  14.388  0.1839  0.0483  0.2841
28861W        W44995  19.261   6.079   1.837 -0.0470 -0.2883  0.1035
28862W        W44996  11.453   1.307  10.717 -0.0402 -0.2053  0.1158
28863W        W44997   9.522  19.304  14.037  0.0095  0.2147  0.0543
28864W        W44998   4.223  13.050  10.299  0.1044 -0.4287 -0.4607
28865W        W44999   6.278   1.215  11.084  0.0403 -0.2572  0.1737
28866W        W45000  11.591   2.398   0.408 -0.1664  0.0205 -0.1210
28867W        W45001  11.027   0.746  12.127  0.2591  0.2087 -0.1287
28868W        W45002   2.643   8.387   4.676  0.1227 -0.1874  0.0930
28869W        W45003   7.867   5.366  14.784  0.0928 -0.2690  0.0416
28870W        W45004   6.873   1.259  12.737 -0.0452 -0.3300  0.1102
28871W        W45005   0.635   4.406  12.783  0.3994  0.0682  0.1479
28872W        W45006   4.652   4.264  13.461 -0.0030  0.0234 -0.0191
28873W        W45007   5.457   2.735  12.525  0.0310  0.1187  0.1203
28874W        W45008  14.288  15.090  11.284  0.1112  0.1479  0.0307
28875W        W45009   7.923   5.699  10.685 -0.0973 -0.1035 -0.2703
28876W        W45010  14.445   8.549   4.336  0.0010  0.0413  0.2301
28877W        W45011  14.683  13.272   1.746 -0.3041  0.1632  0.0183
28878W        W45012  15.203  13.633   5.096  0.1410 -0.1986  0.1541
28879W        W45013   7.119  13.193  13.386  0.0731 -0.1035 -0.0150
28880W        W45014   0.187   5.549   1.616 -0.0739 -0.3311  0.0420
28881W        W45015  17.292  12.705  13.876 -0.1924 -0.2085  0.1732
28882W        W45016   1.512   0.239   4.875  0.0296  0.0997 -0.1737
28883W        W45017   1.745   3.060  14.481  0.1002  0.4277  0.0823
28884W        W45018   6.768   2.736  10.809 -0.0910 -0.2280  0.0586
28885W        W45019   9.274  15.734   5.420 -0.0999  0.0540  0.2072
28886W        W45020  18.082   1.772  12.176 -0.0835  0.3479  0.2474
28887W        W45021  16.228   0.339  13.000 -0.0726  0.0817  0.2705
28888W        W45022  14.984   9.963  14.843  0.1002 -0.0726  0.0575
28889W        W45023   4.015   5.362  13.425  0.3305 -0.4714  0.3401
28890W        W45024   8.703   8.118  14.862  0.1886 -0.0985  0.0254
28891W        W45025  12.014  16.985   0.074  0.2501 -0.1070 -0.2322
28892W        W45026  12.537   0.809   0.639  0.1693 -0.0485  0.1044
28893W        W45027   4.479  10.095   5.741  0.1165 -0.0796 -0.0631
28894W        W45028  14.335   8.067   1.486  0.2743  0.4883  0.2525
28895W        W45029   7.885   0.002   2.362  0.1669  0.2150 -0.0346
28896W        W45030   4.598  10.588   1.694 -0.2096 -0.0106  0.1513
28897W        W45031  16.447   5.545  12.167  0.2077  0.3697  0.1109
28898W        W45032  12.329   7.083  12.703 -0.0212 -0.2546 -0.0301
28899W        W45033   4.432  14.976  11.627 -0.0089  0.1424  0.5404
28900W        W45034   8.158   9.026  14.815  0.3087 -0.2492 -0.2107
28901W        W45035  14.506  10.091   1.484 -0.2762 -0.1929 -0.3697
28902W        W45036   6.409  15.227  14.873 -0.3224 -0.1828 -0.2410
28903W        W45037  17.986  12.404  14.896  0.1167  0.0911 -0.0616
28904W        W45038  16.372   7.367   3.437 -0.0782  0.1728  0.1418
28905W        W45039  12.512   3.249  11.578 -0.1981  0.3222 -0.2416
28906W        W45040   2.299   5.374  10.313 -0.2036  0.0255  0.1615
28907W        W45041   0.245  19.218  14.893 -0.1344 -0.1686 -0.1517
28908W        W45042   6.255  14.910  11.169  0.0221  0.1957 -0.1835
28909W        W45043   6.285   8.114   3.361  0.2304 -0.5095  0.0727
28910W        W45044   5.498  11.765   0.039  0.1577  0.0232  0.0718
28911W        W45045   1.380   4.905  14.295  0.1239  0.0907 -0.0871
28912W        W45046  19.082  17.881   1.711  0.1191 -0.1900 -0.0888
28913W        W45047   8.282   8.051  14.602  0.0581  0.2080  0.0867
28914W        W45048  16.726   4.611   1.052  0.0324  0.0248  0.2417
28915W        W45049  12.570  15.268  13.837 -0.0976 -0.0156  0.0824
28916W        W45050   3.701   9.633  11.180  0.0613  0.2226  0.1144
28917W        W45051  15.686   0.277   3.231  0.0241 -0.0656  0.2337
28918W        W45052   1.148   4.285   9.877 -0.4385 -0.1979  0.0375
28919W        W45053   8.271  12.241   0.685 -0.2393  0.1502 -0.2349
28920W        W45054  10.793  13.312  12.678 -0.0574 -0.1214 -0.0514
28921W        W45055   3.258  13.043   3.883 -0.1641  0.1301  0.0899
28922W        W45056  18.782  11.370  14.934 -0.0750  0.0746  0.2633
28923W        W45057  13.303   5.883   3.351 -0.0727  0.3845 -0.1135
28924W        W45058  13.624  12.626   0.521 -0.1978  0.0383 -0.1614
28925W        W45059   3.626   3.467   1.080  0.1478 -0.1530 -0.0579
28926W        W45060  11.339   0.062   5.658 -0.0011  0.0404  0.2336
28927W        W45061  11.601   4.390  12.237  0.1577 -0.2279 -0.0273
28928W        W45062   6.995  15.681  10.500  0.2523 -0.0302 -0.2993
28929W        W45063  15.872   7.229   3.548 -0.0057 -0.0469  0.2363
28930W        W45064   7.426  12.963   0.348  0.2270  0.1173  0.1519
28931W        W45065   0.236   9.950   1.961 -0.0564  0.0238 -0.1037
28932W        W45066  12.477   7.395   4.706  0.0812 -0.1544 -0.1205
28933W        W45067  11.297  11.816   3.331  0.2104 -0.0902  0.1989
28934W        W45068  13.210   9.962  11.753  0.3595 -0.0688  0.0775
28935W        W45069   3.745   4.283  12.298 -0.0895 -0.1842 -0.0492
28936W        W45070  19.207  16.478  12.888 -0.1013  0.0077 -0.0098
28937W        W45071  11.199   1.987   1.872 -0.1493 -0.3411  0.0063
28938W        W45072  12.657   7.837   4.485  0.0480 -0.1443 -0.1687
28939W        W45073   7.810  10.224  14.253  0.3076  0.2931 -0.2153
28940W        W45074   8.716  18.324   0.599  0.0048  0.1976  0.0024
28941W        W45075   1.786   5.639   1.508 -0.0759 -0.0118  0.0703
28942W        W45076  12.888   8.510   4.393  0.1228 -0.1018  0.1247
28943W        W45077   6.370  10.807   3.326  0.0613 -0.0476 -0.2257
28944W        W45078   1.999  15.275  10.505 -0.2860  0.1780  0.0805
28945W        W45079  10.582  12.008   2.270  0.1634 -0.1449 -0.1861
28946W        W45080   6.214   9.953   2.914  0.0166  0.1171  0.0694
28947W        W45081  12.976   9.238   0.189  0.1217 -0.5318  0.2598
28948W        W45082  19.327   4.487   4.026  0.0811  0.0646 -0.3534
28949W        W45083   8.172   0.089   4.157  0.5296  0.0965  0.1227
28950W        W45084  12.924   7.334   0.930  0.0336  0.1343  0.1973
28951W        W45085  11.836  10.016   1.436  0.1089 -0.1793  0.1298
28952W        W45086  11.911   3.973  11.477 -0.0368 -0.0413 -0.0539
28953W        W45087   5.560  17.790   4.030 -0.1543 -0.1835  0.2773
28954W        W45088  12.140  18.301  13.047  0.1637 -0.4378 -0.0178
28955W        W45089   5.481   2.598   3.444 -0.2581 -0.0296  0.1724
28956W        W45090  11.081  13.517  11.313 -0.1254 -0.1495  0.0391
28957W        W45091   8.121   2.377  14.644  0.1735  0.5888 -0.2129
28958W        W45092   6.284   7.632   4.241  0.2218 -0.0477  0.0138
28959W        W45093  18.525   9.341   5.422  0.0461  0.1350 -0.1033
28960W        W45094   6.404  15.819   3.446 -0.0338  0.1181 -0.3601
28961W        W45095   1.213  13.339  13.112  0.4338  0.4734 -0.3247
28962W        W45096   4.328   0.756  13.156  0.3685  0.0571 -0.0892
28963W        W45097  15.839   7.103  14.273  0.0439 -0.1186  0.0152
28964W        W45098   4.431  15.236   2.544 -0.3264 -0.4089 -0.0192
28965W        W45099  14.922  15.653  13.507  0.0016  0.1213  0.1242
28966W        W45100   5.839  18.993  12.480 -0.4036 -0.3905  0.2094
28967W        W45101   2.951   0.938   1.009  0.1540 -0.2976  0.0974
28968W        W45102  16.582  15.780   1.635  0.1879  0.1528  0.2010
28969W        W45103  13.652  13.059   0.746 -0.0687 -0.1052  0.1141
28970W        W45104   0.457   1.333   4.191 -0.1905  0.1037 -0.2178
28971W        W45105  10.584   3.938  13.283  0.4070 -0.0738 -0.2402
28972W        W45106  15.741   2.001   1.650 -0.0185 -0.4093 -0.1775
28973W        W45107  14.051   0.549   4.385  0.3045 -0.2323 -0.0196
28974W        W45108  16.144   5.140  14.973  0.0579 -0.1935 -0.2734
28975W        W45109   3.036   8.600  14.888 -0.0111 -0.0794  0.2987
28976W        W45110   7.335  14.170  14.734 -0.1616 -0.0880 -0.1294
28977W        W45111   7.549   9.966   9.783 -0.1892  0.1860 -0.4024
28978W        W45112   1.124  11.324   2.478 -0.4095 -0.1031 -0.1183
28979W        W45113   7.101  12.491  11.227 -0.0298  0.1252  0.0593
28980W        W45114   6.446  10.292  11.474  0.1411  0.2098 -0.2226
28981W        W45115   7.146  15.946  13.828  0.2872  0.2594  0.2597
28982W        W45116   1.700   3.997  11.041  0.0804  0.2611  0.0186
28983W        W45117   6.564   7.986   4.568  0.2703 -0.0773  0.1372
28984W        W45118  13.601   0.547  13.867  0.0486 -0.0930 -0.3101
28985W        W45119  16.923  18.631   1.220 -0.0686  0.0222  0.0981
28986W        W45120   5.257  14.793  11.082 -0.0553  0.6393 -0.0752
28987W        W45121   3.969  14.499   0.651 -0.0363  0.1009  0.3111
28988W        W45122  17.742  10.363  13.721  0.0200 -0.3160 -0.0603
28989W        W45123  12.924   0.347   1.820  0.1736  0.1441 -0.3357
28990W        W45124   7.668  11.541   0.804  0.2536 -0.0354 -0.2862
28991W        W45125  12.428  19.039   5.080 -0.0964  0.1434 -0.0088
28992W        W45126  17.581   2.700   2.356  0.0724 -0.1111  0.0141
28993W        W45127   0.778   8.903  10.380  0.0990  0.4002 -0.0215
28994W        W45128  14.419   5.352   0.277  0.1101 -0.0210  0.1425
28995W        W45129  10.565   1.916   4.165  0.2650 -0.0935 -0.0672
28996W        W45130   1.902   4.589  12.202  0.0314 -0.1311 -0.2493
28997W        W45131   3.149   5.642   5.169  0.2472  0.0104  0.4009
28998W        W45132  16.810  19.322  13.383  0.3043 -0.1025 -0.0699
28999W        W45133  19.038   3.861  14.145  0.0117 -0.0058  0.2796
29000W        W45134   0.538   7.334  10.062 -0.0116  0.1777  0.2948
29001W        W45135  14.209   8.358   3.824 -0.0877 -0.0863  0.0767
29002W        W45136   4.193   0.598  10.952  0.0846  0.4032 -0.0785
29003W        W45137   9.549   5.080  13.402 -0.0327 -0.2108  0.1325
29004W        W45138  14.164  13.130  12.103 -0.1097  0.1289  0.1326
29005W        W45139  15.283   0.953  12.705 -0.0842  0.1195 -0.1245
29006W        W45140  16.424  13.022   3.896  0.2243 -0.0984  0.3373
29007W        W45141  18.067  11.543   1.119 -0.1074 -0.0102 -0.2342
29008W        W45142   5.142  14.867  12.247 -0.1098 -0.1326  0.2676
29009W        W45143  18.098  16.140   5.649 -0.0233 -0.3297  0.1943
29010W        W45144   4.366  11.085   5.498  0.2018 -0.2003  0.0417
29011W        W45145  10.091  17.358   1.142 -0.0291 -0.2708 -0.2013
29012W        W45146  18.270   9.706   2.334 -0.1664 -0.1425  0.0722
29013W        W45147   8.795   9.834   4.610  0.3408  0.2439 -0.1539
29014W        W45148  12.841   9.304   2.441 -0.3745 -0.0321 -0.1603
29015W        W45149   3.810   5.213   1.254 -0.0914 -0.0828  0.0996
29016W        W45150   3.234  15.430  12.773 -0.1432  0.0950  0.1152
29017W        W45151  10.985  18.364   0.702 -0.0822 -0.0457  0.1302
29018W        W45152  17.850   2.307  14.864 -0.2027 -0.0179  0.1701
29019W        W45153   3.191   2.440   9.374  0.1418 -0.2952 -0.0673
29020W        W45154  17.503  12.088   2.058  0.1430  0.0528 -0.2321
29021W        W45155  11.015  12.301   0.320 -0.1918  0.0815 -0.0568
29022W        W45156   4.740  10.847  12.563  0.2306  0.1480  0.1521
29023W        W45157   5.230  18.542   4.806  0.3244 -0.1136 -0.1818
29024W        W45158  14.997  10.931  11.531 -0.2084 -0.4038  0.0095
29025W        W45159   5.097  13.024   2.526 -0.0324  0.1654  0.3435
29026W        W45160  13.952  12.629   4.575  0.2222 -0.0802 -0.0644
29027W        W45161  15.582   7.262  12.544  0.0596  0.2217 -0.1966
29028W        W45162  17.383   5.095  11.274 -0.3094 -0.0061 -0.1170
29029W        W45163  16.513   1.377  12.256 -0.3746 -0.0650  0.1150
29030W        W45164  13.304  10.158   5.604  0.2465  0.0421  0.1104
29031W        W45165  11.012   6.991  12.470 -0.0583 -0.1508  0.0740
29032W        W45166   0.264  12.187   1.067  0.2267 -0.0444  0.0960
29033W        W45167  15.807   7.376  11.271  0.1802  0.1537 -0.1521
29034W        W45168  12.710   6.058   4.039  0.2663 -0.0983 -0.0875
29035W        W45169  12.674  16.136   3.040  0.3566  0.4277 -0.2114
29036W        W45170  16.351   8.686  13.317  0.4118  0.1432 -0.2185
29037W        W45171  16.595   9.158   0.957  0.0889 -0.0113 -0.1687
29038W        W45172  11.418   2.040   0.704  0.1974  0.4207  0.0597
29039W        W45173  14.751   3.097   2.769 -0.2168  0.0176 -0.1782
29040W        W45174   7.703  17.412  14.501  0.2404  0.0601  0.4859
29041W        W45175  19.016   7.651   1.153 -0.1635 -0.2978 -0.1136
29042W        W45176   1.541  19.308   2.961 -0.1898 -0.2349 -0.2769
29043W        W45177  16.831  12.963   2.881  0.1091 -0.1347 -0.2621
29044W        W45178  13.016  17.752  11.271 -0.2997 -0.0009 -0.1639
29045W        W45179  18.335   8.560  11.107 -0.0100 -0.1099 -0.1228
29046W        W45180   3.139   0.192   1.929  0.0476 -0.1806 -0.1111
29047W        W45181   9.587  12.286   5.176  0.0082  0.0291 -0.4540
29048W        W45182   2.453   2.620  14.290 -0.1591  0.0195 -0.0671
29049W        W45183   3.471   7.273   2.132  0.4170  0.0974 -0.1746
29050W        W45184   7.557   9.471  14.765 -0.1338 -0.1610  0.2579
29051W        W45185   0.659   7.157   0.614 -0.2871 -0.0529  0.2177
29052W        W45186   0.922  10.095  13.630  0.4268 -0.1500 -0.2105
29053W        W45187  18.770   9.980  10.233 -0.2999 -0.0097  0.0246
29054W        W45188   5.007  16.244  13.418  0.1803  0.3281  0.0052
29055W        W45189  12.364  14.083   3.306 -0.1125 -0.0170  0.4124
29056W        W45190   3.256  13.556   3.888 -0.1702 -0.0224  0.1371
29057W        W45191   2.002   6.663  10.529 -0.2793 -0.3062 -0.2108
29058W        W45192  16.739  11.853  12.573 -0.0023 -0.1803 -0.0850
29059W        W45193   0.736   4.982   9.792  0.4025  0.4657  0.2634
29060W        W45194  10.431   6.457   5.401 -0.3791  0.0703 -0.3294
29061W        W45195   9.509   7.047   1.043  0.0110 -0.3376  0.2614
29062W        W45196  19.165  12.835  11.292 -0.0429  0.1042 -0.0394
29063W        W45197   2.819  12.384   3.163  0.0036  0.2436 -0.0731
29064W        W45198  17.954  19.254  13.811  0.1541  0.0500  0.0177
29065W        W45199   0.590  13.520   9.944  0.1813  0.0054 -0.3273
29066W        W45200   9.339   4.177   0.152  0.3158  0.2702 -0.2432
29067W        W45201  12.863  13.431  11.477  0.0787  0.0246  0.0009
29068W        W45202  17.273   6.343  14.246  0.1235 -0.2563  0.0617
29069W        W45203   9.251  12.285  10.877 -0.1484  0.2925 -0.2868
29070W        W45204  11.895   8.552  14.290  0.0451 -0.0500 -0.0609
29071W        W45205   9.417  14.694   0.555 -0.2136 -0.0426 -0.0227
29072W        W45206  13.195   9.761   2.355 -0.3263 -0.1200 -0.2631
29073W        W45207   1.342  17.468   0.792  0.1063 -0.0104  0.1852
29074W        W45208   8.133   9.535   2.927 -0.0588 -0.0478 -0.0201
29075W        W45209   9.910   8.945   4.560  0.0072  0.0849  0.2561
29076W        W45210  12.026  14.691   1.416  0.0323  0.2180  0.1286
29077W        W45211   6.101  17.274   2.720  0.2347 -0.1183 -0.0968
29078W        W45212  14.331   0.651  11.826  0.3714  0.1296 -0.0819
29079W        W45213  12.402  18.804   9.997  0.1488  0.0336  0.0911
29080W        W45214   8.160  16.845   2.126 -0.0978 -0.2249  0.1439
29081W        W45215   8.308  16.935  14.918 -0.2557 -0.3993 -0.0683
29082W        W45216   5.389  13.277   2.771 -0.0239 -0.0921 -0.0809
29083W        W45217  10.169  18.562  14.287 -0.0054 -0.2971 -0.0962
29084W        W45218   4.717  12.580   0.058 -0.2415  0.2877 -0.0748
29085W        W45219   6.303   7.253   9.735 -0.1964 -0.2243  0.1115
29086W        W45220  14.981  17.595   3.505 -0.0415 -0.3556 -0.5364
29087W        W45221  14.255  13.201  13.841  0.1380  0.0663  0.1563
29088W        W45222  15.417   6.153   4.959 -0.2212 -0.0395  0.1420
29089W        W45223  18.244   3.505   1.898  0.0244 -0.0089 -0.0431
29090W        W45224  13.239   9.819   0.593 -0.2564 -0.1362 -0.3456
29091W        W45225  13.348   5.095  12.324  0.2670  0.3055  0.0451
29092W        W45226   9.320  10.846   2.558 -0.2179  0.3159  0.3888
29093W        W45227  16.667   3.383   4.851 -0.1449  0.0110  0.0709
29094W        W45228  12.380  13.900  13.332 -0.0050 -0.2568 -0.1278
29095W        W45229   4.073  16.928   3.064 -0.0857 -0.2471  0.0886
29096W        W45230  15.715  10.720  10.315 -0.1899  0.2704 -0.1950
29097W        W45231  12.346  17.033   1.235  0.2997  0.4145  0.3318
29098W        W45232   6.093  11.561  12.072 -0.2874 -0.0356  0.1232
29099W        W45233   0.726   4.529  10.381 -0.2782 -0.0660 -0.1412
29100W        W45234  18.064   2.702   1.190  0.0479 -0.0173  0.3272
29101W        W45235  13.058  17.833   2.104 -0.2322  0.2258  0.1864
29102W        W45236   4.349   2.512   2.466 -0.0135  0.0714  0.0984
29103W        W45237  11.637  10.969  13.531 -0.1430  0.1825 -0.2606
29104W        W45238  14.824  11.420   3.957  0.1278  0.0451 -0.0686
29105W        W45239  18.222   9.370  12.573  0.4072 -0.0418  0.0284
29106W        W45240   2.390  15.155  10.158  0.2053 -0.1425  0.1665
29107W        W45241   5.213   5.391  13.577  0.1668  0.1138 -0.0573
29108W        W45242   2.777  16.876  11.262 -0.2332  0.0997  0.2955
29109W        W45243   6.628  13.432   0.080  0.0469 -0.2379  0.0033
29110W        W45244   8.128  18.872   0.289 -0.3113 -0.0245 -0.2874
29111W        W45245   9.347  17.363  11.251 -0.3105  0.1670 -0.1764
29112W        W45246  17.122  15.485  13.011 -0.1302  0.1040  0.0078
29113W        W45247   7.576  10.694   0.068  0.2942 -0.1672  0.1797
29114W        W45248  15.551   8.078  14.150  0.0766  0.0331  0.0652
29115W        W45249   4.283  15.238   3.390 -0.2133  0.0870 -0.2426
29116W        W45250   8.252  11.438   3.569 -0.2909  0.3058 -0.3113
29117W        W45251   9.167  10.370  13.693  0.0392 -0.0886 -0.2465
29118W        W45252   6.976  15.608   5.839  0.0827 -0.2977 -0.0317
29119W        W45253  12.084   1.388  13.310  0.0235  0.0352 -0.0571
29120W        W45254  13.026  16.126  12.671  0.1918 -0.4639  0.0955
29121W        W45255   0.382  18.221   9.445 -0.1647  0.3850  0.3167
29122W        W45256  12.910  15.855   4.306 -0.0572 -0.2041  0.0060
29123W        W45257  15.758   2.008   1.136 -0.1787 -0.1280 -0.0719
29124W        W45258  10.151   8.634  10.000 -0.1207  0.1549 -0.1290
29125W        W45259   6.448   1.662   0.406  0.1595 -0.3111  0.1174
29126W        W45260   7.319  12.204   1.948  0.0995  0.0276 -0.0051
29127W        W45261  16.522   4.982   1.644 -0.1761 -0.3044 -0.2513
29128W        W45262   0.131   5.693  12.982  0.1890 -0.0525  0.1062
29129W        W45263  12.178  14.525  11.124  0.0274 -0.0463  0.0043
29130W        W45264   9.266  16.629   3.972  0.2895 -0.2175 -0.2151
29131W        W45265  11.535   8.424   2.167 -0.0752 -0.1267  0.2408
29132W        W45266  10.221   7.906  12.165 -0.0612  0.2125 -0.1144
29133W        W45267   2.043   6.457   2.448 -0.4174 -0.1659  0.1736
29134W        W45268  14.673   4.290  11.277 -0.0760 -0.2055 -0.0265
29135W        W45269   6.022  18.564   0.112  0.1021  0.0218  0.2361
29136W        W45270   8.619  11.696   3.968  0.2960  0.0339  0.0162
29137W        W45271   4.036  18.193  11.112  0.2082  0.2583 -0.0386
29138W        W45272  17.309   6.106   1.244 -0.0589  0.2477 -0.0537
29139W        W45273   9.351  14.253   4.733  0.2398  0.0506  0.1040
29140W        W45274  17.222  19.039  13.276  0.1824  0.1619  0.2129
29141W        W45275   6.729  11.729  10.728  0.0847  0.0352 -0.0749
29142W        W45276   0.343   1.243  14.004 -0.1868  0.1380 -0.1519
29143W        W45277   2.306  17.505  13.025 -0.0341  0.0039  0.0360
29144W        W45278  14.883   8.155  11.656 -0.0266  0.0119 -0.1863
29145W        W45279   8.649  12.900   1.455  0.1575  0.0259  0.0946
29146W        W45280   9.239  15.114   0.469 -0.1119  0.0441  0.0777
29147W        W45281   0.016  15.948  12.881 -0.2671 -0.1116  0.3783
29148W        W45282  11.641   0.122  13.971  0.0712 -0.4223 -0.2789
29149W        W45283   4.690   6.199   4.004 -0.1431 -0.1578 -0.1524
29150W        W45284  18.387   2.323  14.941 -0.1140 -0.1654 -0.1227
29151W        W45285  13.359  18.499   4.280  0.2154  0.0873 -0.0477
29152W        W45286   9.405  18.375  11.397  0.0636  0.5656  0.2517
29153W        W45287  11.248   9.233   2.302  0.2228  0.3527 -0.1687
29154W        W45288  18.788   1.657   4.200 -0.1039 -0.1763 -0.2364
29155W        W45289  14.466  13.205  14.352 -0.1669 -0.1989  0.3832
29156W        W45290   4.651   6.097  13.357 -0.0929  0.0218 -0.1025
29157W        W45291  12.687   1.046   4.741 -0.0998 -0.1511 -0.0166
29158W        W45292  17.323   9.289  12.302 -0.0343  0.2142  0.0921
29159W        W45293  12.590  17.582  14.183 -0.0525  0.1142 -0.0352
29160W        W45294  13.062  15.072  13.089  0.1580 -0.2351  0.0011
29161W        W45295   6.781  13.722   3.584 -0.2869  0.1963 -0.1049
29162W        W45296  13.041  19.180  12.557 -0.0573  0.1001  0.1840
29163W        W45297  19.211   5.394  10.399  0.1748 -0.1174  0.0535
29164W        W45298   8.546   6.360   0.447  0.0986 -0.0291 -0.0224
29165W        W45299   9.936   3.188  11.840 -0.2186  0.2803 -0.2132
29166W        W45300   6.348   5.336  10.812 -0.0249  0.0328 -0.2410
29167W        W45301   6.372   2.948   3.877 -0.1039  0.0309  0.1207
29168W        W45302  10.282  12.812   1.062 -0.0886 -0.1270  0.0582
29169W        W45303  10.527   6.361   0.218 -0.0470 -0.2793  0.0189
29170W        W45304   9.894  17.265   3.605 -0.1820  0.2018  0.1243
29171W        W45305   3.355   9.274  13.864 -0.0034  0.0592  0.1355
29172W        W45306  17.438  19.191  10.763 -0.1050  0.0424  0.2582
29173W        W45307   0.273  15.533  11.971 -0.2049 -0.1767 -0.0072
29174W        W45308  11.445   9.431  14.148  0.0610 -0.3009  0.4241
29175W        W45309  13.597   7.484  10.484  0.2127 -0.1323  0.0137
29176W        W45310   9.452  16.887   3.586 -0.2757 -0.2105 -0.1850
29177W        W45311   4.898   4.469   0.402 -0.0362  0.1428  0.0058
29178W        W45312  10.683  15.405  11.386 -0.0513 -0.1182  0.0355
29179W        W45313  10.616   3.591  11.444 -0.0588 -0.1542  0.2132
29180W        W45314   2.713   4.879  12.734  0.0219  0.0191  0.1081
29181W        W45315  13.570  11.777   5.570 -0.1275 -0.1253  0.0732
29182W        W45316  13.247   2.540   0.191 -0.2813  0.2878  0.0159
29183W        W45317   8.814  13.075   1.001  0.1080 -0.0391  0.2857
29184W        W45318  15.053   6.351   3.145 -0.0523 -0.0532 -0.0856
29185W        W45319   8.021   6.949   1.659 -0.1450  0.0645 -0.2907
29186W        W45320   9.058   3.906  14.103 -0.4037 -0.0716  0.0794
29187W        W45321  14.442  10.988   0.752  0.1023  0.1977 -0.1162
29188W        W45322  16.252  13.924  12.358  0.0594 -0.2144  0.0171
29189W        W45323   6.713  18.178   9.764  0.0903 -0.2154  0.2681
29190W        W45324  15.482   1.961  11.170 -0.1434  0.0563  0.2711
29191W        W45325   0.617   5.083  12.108  0.2882 -0.2524  0.4219
29192W        W45326  16.323  16.866  12.473  0.2482  0.0688  0.2605
29193W        W45327  10.723   6.046  14.835 -0.0229  0.1717 -0.3080
29194W        W45328  15.802  17.330  14.300  0.0703 -0.1169 -0.0493
29195W        W45329   5.949  18.206  12.893  0.1682 -0.1078 -0.0039
29196W        W45330   7.374   3.998  11.654 -0.1467  0.0320 -0.0607
29197W        W45331   5.508  14.611  10.601  0.4053  0.2320  0.1307
29198W        W45332   3.440   1.023  14.039 -0.0789  0.2262  0.0051
29199W        W45333   4.528   6.421   3.306 -0.1418 -0.3329  0.0968
29200W        W45334  13.382  16.549  12.907  0.1153 -0.1890  0.5028
29201W        W45335  19.326   1.593  12.771 -0.1544 -0.0385 -0.3173
29202W        W45336   4.516   2.851   3.514 -0.2528 -0.0088 -0.0361
29203W        W45337   7.089  16.994   5.651 -0.4395  0.1353  0.3388
29204W        W45338   1.038   1.187   1.780 -0.1989  0.0540 -0.0549
29205W        W45339   4.126   9.082   1.155  0.1357 -0.1985  0.0516
29206W        W45340   9.267  15.002  13.801  0.0506 -0.0591 -0.2379
29207W        W45341   1.937   5.723  14.268 -0.0315 -0.2726  0.0236
29208W        W45342   4.875  17.174  10.651  0.0169 -0.1108 -0.5162
29209W        W45343  12.646  17.334   1.469 -0.3764  0.1087 -0.0227
29210W        W45344  16.879   1.923  10.904 -0.2034 -0.1518 -0.2989
29211W        W45345  13.467   0.865   5.426  0.3058 -0.3060  0.2425
29212W        W45346  17.220   0.352   0.059  0.1075 -0.0691  0.2318
29213W        W45347  19.110   4.638   4.462 -0.0905 -0.0479  0.2839
29214W        W45348  12.813  15.619   0.932 -0.3050  0.2814  0.0509
29215W        W45349  18.667  12.008   4.729 -0.4065  0.3088 -0.1113
29216W        W45350   0.023  18.884  11.130 -0.3655 -0.1066  0.1570
29217W        W45351  18.143  16.667  11.525 -0.2019 -0.2402  0.2232
29218W        W45352   5.572  19.287   1.781  0.2501  0.1267  0.1080
29219W        W45353   8.516  18.828  13.305 -0.1181 -0.0259  0.1269
29220W        W45354  14.215   9.466   1.843 -0.1915 -0.1568 -0.4366
29221W        W45355  10.489  12.820   4.636 -0.0206 -0.0330  0.1383
29222W        W45356  14.448   9.013   1.795 -0.1393 -0.0164  0.0061
29223W        W45357   0.272   5.241  12.569  0.3388 -0.3706  0.3231
29224W        W45358   8.110   0.471  10.916  0.0304 -0.0004 -0.2487
29225W        W45359   7.525   4.514   9.830 -0.0236 -0.0406 -0.2621
29226W        W45360   0.952  17.920   2.612 -0.0929 -0.1034  0.0849
29227W        W45361  15.274  17.926   1.601  0.0053  0.2150  0.2494
29228W        W45362   5.542  15.272  14.902 -0.0510  0.2923 -0.0396
29229W        W45363   6.049   4.951  14.689  0.2109  0.4383  0.1834
29230W        W45364   9.408   8.176  14.112  0.0768 -0.0408 -0.1095
29231W        W45365  12.138  18.627   4.990  0.0075 -0.0178  0.4422
29232W        W45366  12.152   8.790  12.051  0.1681  0.2044  0.1744
29233W        W45367   3.828   3.403  12.226 -0.0319 -0.4034  0.1095
29234W        W45368   0.862  11.088  14.532 -0.0679 -0.1424 -0.0467
29235W        W45369  16.100   4.192  12.836  0.1586  0.2772  0.3086
29236W        W45370   9.886   6.985  14.907 -0.0638 -0.1577  0.2039
29237W        W45371   6.668  13.312  13.174  0.1343  0.0040  0.1014
29238W        W45372   2.521   5.372  10.894 -0.0800  0.2318 -0.0290
29239W        W45373   5.120  12.256  10.629  0.2381  0.3510  0.1826
29240W        W45374   2.896   2.649   3.600  0.0029 -0.3728  0.2155
29241W        W45375  17.612   7.247  10.022 -0.2687 -0.2413  0.0755
29242W        W45376   2.426   9.498   0.213  0.1445 -0.0031 -0.0836
29243W        W45377  12.001   9.555   5.074  0.1244 -0.2033 -0.1068
29244W        W45378  18.141  17.326   2.913 -0.2049 -0.0883  0.0364
29245W        W45379  10.749  11.492  11.782  0.0478  0.2174  0.3736
29246W        W45380  11.658  18.952  13.712  0.2587  0.0216  0.0996
29247W        W45381   0.097   6.520  11.016 -0.2039  0.1039 -0.0850
29248W        W45382   2.370  14.874  13.701 -0.1218 -0.1126 -0.0525
29249W        W45383   1.267   4.432  10.953  0.1876 -0.0844 -0.0064
29250W        W45384  19.208  14.023   3.623  0.1447 -0.0981  0.3536
29251W        W45385   3.675   4.133   1.741 -0.1200 -0.0620 -0.3496
29252W        W45386   6.967  16.250   5.094  0.0199 -0.1001 -0.2462
29253W        W45387  10.359   5.848  11.931  0.1661 -0.0954  0.0813
29254W        W45388   3.555  18.614   2.260  0.1001 -0.1638 -0.0445
29255W        W45389  18.602   4.976   4.348 -0.3268  0.2506 -0.1065
29256W        W45390   4.850  17.317  14.799 -0.2499  0.1673 -0.1024
29257W        W45391   6.098   7.314   3.782 -0.1123 -0.4349 -0.2058
29258W        W45392  16.652  11.094   1.319  0.3455  0.1592 -0.0733
29259W        W45393   7.951  14.809  11.112  0.3312  0.0208 -0.1166
29260W        W45394  18.385  10.665  11.874 -0.1627  0.1283  0.0473
29261W        W45395   1.062   6.302   0.572 -0.1005 -0.2129 -0.2174
29262W        W45396  19.127   3.791  12.007  0.0667 -0.0096  0.0762
29263W        W45397  10.297   8.975   2.830 -0.0063 -0.0697 -0.0275
29264W        W45398  17.097  19.090  11.912 -0.1650 -0.1661  0.0582
29265W        W45399  10.131  17.388   5.090  0.1266  0.0957  0.0835
29266W        W45400   8.521  18.123   5.335  0.3324  0.3534  0.0140
29267W        W45401  12.387  14.621   4.840 -0.2482 -0.0357  0.1846
29268W        W45402  17.376  17.917  13.625 -0.0142 -0.0578 -0.0051
29269W        W45403   1.614   4.483   0.225  0.3187 -0.0786 -0.1746
29270W        W45404  17.448   0.186   0.501 -0.2826  0.3004 -0.2266
29271W        W45405  11.143   0.390   2.821  0.0329  0.1679  0.1256
29272W        W45406  10.751  17.259  14.459  0.1457 -0.0233  0.2316
29273W        W45407  12.459   9.175  10.302 -0.4277  0.0729 -0.1696
29274W        W45408  13.899  12.775   0.997 -0.1674  0.1350 -0.3422
29275W        W45409   4.829  12.934  12.158 -0.2094  0.1981 -0.0141
29276W        W45410   0.318   5.306  10.308 -0.1175  0.3222 -0.3430
29277W        W45411  16.614  14.788   4.685  0.0176  0.1219  0.1485
29278W        W45412   4.397   8.968   3.967  0.3210  0.0234  0.1955
29279W        W45413   8.629   3.978   4.344  0.2609  0.1175 -0.0831
29280W        W45414   2.773   8.662   1.931 -0.1400 -0.2706 -0.0259
29281W        W45415  11.197   8.964   4.431 -0.0280  0.2498  0.0270
29282W        W45416  15.252  19.225  13.244 -0.2504  0.2703  0.2413
29283W        W45417   2.631   8.970  12.009 -0.0697 -0.3120  0.2319
29284W        W45418  15.974  17.656  13.414  0.0041  0.2888 -0.0272
29285W        W45419  14.916  18.525   0.746 -0.0369  0.2634  0.0512
29286W        W45420  12.721  19.013   4.148 -0.0419 -0.1544 -0.2423
29287W        W45421   0.854   8.679  14.927 -0.1690 -0.0380  0.1299
29288W        W45422   2.734   9.524  12.166 -0.2629  0.0972  0.5373
29289W        W45423   3.640   0.291   2.743  0.4213  0.2188  0.3901
29290W        W45424  11.245   1.634   6.153  0.0095 -0.0098 -0.0870
29291W        W45425   8.658  10.312  14.341 -0.1547  0.0837 -0.3476
29292W        W45426   7.642   1.936  13.466  0.1200  0.1398 -0.3240
29293W        W45427   6.145   6.124   2.592 -0.2854  0.0830  0.1763
29294W        W45428   6.664   0.660   2.393  0.0629  0.0099 -0.2648
29295W        W45429  17.744  17.571   3.351 -0.2091  0.1911  0.0889
29296W        W45430  10.632  16.121   0.900 -0.0847 -0.1224  0.3267
29297W        W45431   5.390   4.408   0.978  0.3390 -0.2797 -0.2609
29298W        W45432  17.741   3.714   1.987  0.2871  0.2986 -0.2062
29299W        W45433   1.433   0.501   2.120  0.0909  0.2169  0.0027
29300W        W45434  15.678  16.652   4.051  0.0167 -0.1287 -0.2915
29301W        W45435   3.289  12.254   3.223  0.0360  0.1438 -0.2720
29302W        W45436  14.241   2.786  10.568 -0.0089  0.0223  0.1021
29303W        W45437   5.893   6.830   3.190  0.3882  0.1970 -0.2365
29304W        W45438  10.305  12.594  13.800 -0.2087 -0.0300  0.2250
29305W        W45439   2.179  15.905  10.268 -0.0528  0.2505 -0.2202
29306W        W45440   6.011   7.523  10.093 -0.2627 -0.1094  0.1955
29307W        W45441   2.101  12.958  13.504  0.1215 -0.2511  0.2271
29308W        W45442  10.742   2.142   4.675 -0.1843  0.0988  0.2453
29309W        W45443   6.878   0.190   3.459 -0.2013  0.3486  0.1610
29310W        W45444  14.795   3.304   3.824  0.1595  0.0054  0.1043
29311W        W45445   5.270  16.329   4.475  0.1228  0.2440  0.3790
29312W        W45446  10.791   2.858  14.738  0.1676  0.1173  0.0819
29313W        W45447   3.827   8.337  11.477  0.0424 -0.1096 -0.0175
29314W        W45448  16.890   5.770  14.792 -0.0630 -0.2507  0.0614
29315W        W45449  13.603  10.645   2.832 -0.1793  0.0323 -0.1171
29316W        W45450  13.910   1.379  13.521  0.0907 -0.1011 -0.2424
29317W        W45451   9.741  17.680  11.340  0.0744  0.1813  0.2755
29318W        W45452  17.656  18.967   5.246 -0.0954 -0.0590  0.1608
29319W        W45453  11.606  18.250   3.497 -0.4860  0.1781  0.2397
29320W        W45454  13.154  11.563   1.097 -0.0116  0.2508  0.2235
29321W        W45455   8.846  17.014   4.142 -0.1852  0.2089  0.2055
29322W        W45456   7.627  16.294   5.158  0.1717  0.0861  0.3310
29323W        W45457  12.520   1.232   1.206 -0.0082  0.0582  0.0193
29324W        W45458   0.727   5.202  13.829  0.2529  0.0580  0.1413
29325W        W45459  13.226  16.060  12.102  0.3318  0.3216  0.1564
29326W        W45460  17.357   4.848  12.946 -0.3250 -0.1739 -0.0525
29327W        W45461  17.867   0.790  13.118  0.0058 -0.0402  0.2420
29328W        W45462  10.595   0.056  11.250 -0.1104  0.0085  0.0723
29329W        W45463   3.511   2.784   4.415 -0.0648 -0.1257 -0.1410
29330W        W45464  17.122   3.982   0.810  0.1192 -0.1388  0.0763
29331W        W45465   0.020   4.066   2.604 -0.2881 -0.1532  0.0870
29332W        W45466   6.612   7.491   1.792  0.1133  0.1635  0.2789
29333W        W45467  17.885   8.761   1.247  0.0193  0.0324 -0.0982
29334W        W45468   0.983  13.311   2.611  0.0788 -0.5550 -0.6143
29335W        W45469   8.312   4.942   1.462  0.0504  0.2342  0.4646
29336W        W45470  15.521  15.454   4.667  0.1561  0.0911  0.2269
29337W        W45471  12.927  16.636  13.880 -0.1254  0.2188 -0.0358
29338W        W45472   3.345  10.240  14.746 -0.3998  0.0018  0.1749
29339W        W45473  10.353  18.178  13.409  0.1720  0.0086  0.3013
29340W        W45474   4.241   9.318  10.374 -0.1421  0.0080  0.2357
29341W        W45475   7.712   5.183   9.174  0.2105  0.2455  0.3476
29342W        W45476  15.922   8.229  11.589 -0.4623  0.0894  0.1528
29343W        W45477   8.735   5.579   1.013  0.0138  0.2144  0.0972
29344W        W45478  18.160   7.518   2.294  0.1808  0.0903  0.2909
29345W        W45479  16.384  13.403  14.594 -0.1091 -0.0972 -0.2559
29346W        W45480   9.175   1.410   2.222  0.4107  0.1160  0.1900
29347W        W45481  15.459   7.188   3.239  0.1833 -0.0855 -0.2913
29348W        W45482   6.452   7.479  12.707 -0.2720 -0.0526  0.0182
29349W        W45483   2.397  10.779  10.393 -0.1594 -0.1888  0.2089
29350W        W45484   0.116   4.412  10.090 -0.1507  0.1612 -0.0165
29351W        W45485  14.385  19.106   5.338  0.0272 -0.2696 -0.3395
29352W        W45486  17.987   4.388   1.212  0.0448  0.0870  0.3431
29353W        W45487  12.178   1.300   2.731  0.0185 -0.3609  0.2524
29354W        W45488   8.920  13.627  14.082 -0.0487  0.3010  0.1335
29355W        W45489   6.531   7.699  12.257 -0.0086 -0.0105 -0.0469
29356W        W45490  11.119   5.010   1.468  0.0035  0.1206  0.3357
29357W        W45491  10.842  11.094  13.103 -0.2947  0.1384  0.1071
29358W        W45492   5.490   1.018  13.366 -0.1053 -0.2722 -0.0743
29359W        W45493   2.342  17.242   1.106  0.1179  0.4033  0.1491
29360W        W45494   9.308  19.156   3.060  0.0044  0.1349  0.0249
29361W        W45495   6.009  14.000  14.440  0.0242 -0.0042 -0.1189
29362W        W45496   6.024   0.623  12.427 -0.2308 -0.2945  0.2396
29363W        W45497  17.967   5.953   0.598 -0.0950  0.3177 -0.1140
29364W        W45498  13.253  16.083  13.121 -0.2492  0.3075  0.2837
29365W        W45499   0.841  15.991   2.062 -0.1225 -0.0987 -0.0224
29366W        W45500   5.679   6.953   0.419  0.0658 -0.0318  0.1363
29367W        W45501   2.448  14.503  10.920 -0.2344 -0.2024  0.1968
29368W        W45502  10.151  11.650   5.022  0.1872 -0.2705  0.3440
29369W        W45503  13.922   8.787   1.053  0.2201 -0.1711  0.0316
29370W        W45504   1.245  17.293  12.340  0.0468 -0.4551  0.1459
29371W        W45505  18.298  11.992   1.000 -0.0557  0.1064  0.1399
29372W        W45506  14.785  18.165   0.112 -0.0105 -0.0220  0.1316
29373W        W45507  14.885   7.938  12.126  0.1054  0.1024 -0.3747
29374W        W45508  15.692  13.428  11.537  0.1830  0.2711 -0.0723
29375W        W45509  12.171  18.824  11.861 -0.0223 -0.1228  0.2733
29376W        W45510   4.316   0.749   3.789 -0.2301  0.1027  0.1654
29377W        W45511   7.346   1.614  14.706  0.1227  0.1155 -0.0910
29378W        W45512   8.642   2.940   1.610 -0.3106  0.0728 -0.1941
29379W        W45513  10.374   4.961   5.680 -0.0841 -0.0085  0.1892
29380W        W45514   5.115   6.302  14.277 -0.1772 -0.1467  0.1990
29381W        W45515  14.143   1.246  14.028 -0.4259 -0.1311  0.1227
29382W        W45516   4.555   8.405   2.967  0.2331  0.1646 -0.3967
29383W        W45517   6.931   1.758  13.896  0.3913 -0.3089  0.1795
29384W        W45518  16.054  18.457   2.898 -0.1202 -0.1090 -0.2210
29385W        W45519  18.427  17.743   0.565  0.0847  0.1088 -0.2750
29386W        W45520  12.622  18.315  11.448 -0.4662 -0.0080  0.0807
29387W        W45521  16.908  14.797   4.175 -0.1201  0.2411 -0.1015
29388W        W45522  12.816  10.292  14.587  0.1380  0.0538 -0.0866
29389W        W45523   4.846   9.943   4.886  0.1401  0.3252 -0.2103
29390W        W45524  10.296  11.865  10.973 -0.7187  0.2129 -0.1710
29391W        W45525   5.535   9.706   3.522  0.0017 -0.0272 -0.3854
29392W        W45526  13.484   2.287   4.206 -0.0662  0.1363  0.0656
29393W        W45527  18.283  11.333  10.897  0.0976 -0.0755 -0.3437
29394W        W45528  19.283   9.981  14.874  0.0418 -0.0560  0.0923
29395W        W45529   5.114   9.827  12.165  0.1394 -0.1040 -0.0088
29396W        W45530  10.700  14.614   2.790  0.4446 -0.2656 -0.1306
29397W        W45531   4.291   4.772  11.094 -0.3198 -0.0762 -0.1545
29398W        W45532  13.456  16.646  13.732 -0.0519 -0.3078  0.0624
29399W        W45533  17.843   3.985   3.697  0.3049  0.2091  0.2473
29400W        W45534   8.129   3.191  14.042  0.3236  0.1019  0.1876
29401W        W45535  14.439  14.319   3.785 -0.5027  0.2498  0.2220
29402W        W45536  18.896   3.270   4.098 -0.1878  0.2073  0.1030
29403W        W45537  16.802   6.472   9.841 -0.0138  0.1442 -0.0825
29404W        W45538   5.700  11.456  13.293  0.0675  0.0723  0.0794
29405W        W45539   6.223  16.673  10.664  0.1369 -0.2718 -0.0737
29406W        W45540  17.158  19.049   5.132  0.1032  0.0287 -0.2943
29407W        W45541  13.560   6.280   2.418 -0.1506 -0.1953  0.1508
29408W        W45542   7.995  18.934   4.159 -0.1957 -0.2539 -0.2735
29409W        W45543  11.639   4.427   3.787 -0.2074  0.6370 -0.0296
29410W        W45544   8.128   3.501  11.344 -0.3027 -0.0612 -0.5276
29411W        W45545  10.891  17.725   3.173  0.2194 -0.0098  0.2190
29412W        W45546   8.092  18.528   3.745  0.2181 -0.3059  0.1217
29413W        W45547  16.667   3.604   1.094  0.0564 -0.1178  0.0505
29414W        W45548  15.030  12.952  10.182  0.0041 -0.1901 -0.1897
29415W        W45549   3.291   9.712   3.728  0.0545 -0.2354  0.0162
29416W        W45550   4.855   6.720   2.626  0.0513  0.0045 -0.2431
29417W        W45551   5.178   0.523   4.281  0.0469 -0.0265  0.1495
29418W        W45552  13.068  15.452  10.647 -0.0933  0.2296  0.0555
29419W        W45553   1.958   4.312  11.704  0.2287 -0.1623 -0.2153
29420W        W45554   1.574   1.943  11.273  0.1910  0.0613 -0.1584
29421W        W45555   8.043   8.205  10.407  0.0684 -0.0328 -0.0373
29422W        W45556   8.358  13.332   1.703  0.2720  0.2698  0.0276
29423W        W45557  18.841  15.431   0.508 -0.2974  0.1027 -0.0579
29424W        W45558   8.088   3.206   3.347 -0.0709  0.0120  0.1280
29425W        W45559  17.652  15.681   3.188 -0.0915  0.0982 -0.0075
29426W        W45560   9.257  10.010   1.556  0.2225 -0.3647 -0.0067
29427W        W45561  11.465  16.429  12.720 -0.1578  0.2405 -0.2757
29428W        W45562   4.013   0.358  13.338 -0.1047 -0.1722  0.1229
29429W        W45563   2.601   5.653  11.565  0.0445 -0.1392 -0.2049
29430W        W45564   1.632   0.042  13.464 -0.0339 -0.3225 -0.0084
29431W        W45565   3.560  14.258   5.249  0.1339  0.1292  0.2626
29432W        W45566  13.590   6.984  12.179 -0.1768 -0.0695 -0.1191
29433W        W45567   1.126  13.001  13.979  0.0974 -0.1737 -0.0396
29434W        W45568  17.555   5.446   0.347  0.1136  0.0422  0.1292
29435W        W45569  12.763  14.741  12.130  0.1094  0.0942 -0.0879
29436W        W45570  11.532  13.414   0.453 -0.1180  0.1631 -0.2259
29437W        W45571   7.306   9.442  10.178  0.0202 -0.2752  0.1448
29438W        W45572   5.016  12.737  14.409  0.1795  0.1369  0.0494
29439W        W45573  13.727  14.905   3.752 -0.1397 -0.1048  0.1740
29440W        W45574  16.658   6.789   1.892  0.1649  0.1353  0.1582
29441W        W45575  11.074  11.334   0.656 -0.0995 -0.0473 -0.1440
29442W        W45576  10.963  16.660  10.899 -0.1393 -0.0771 -0.0098
29443W        W45577   6.969   7.638   4.006  0.0335  0.0918 -0.0069
29444W        W45578   1.944   9.324  14.921  0.0328 -0.0753 -0.3238
29445W        W45579   2.847   2.719  10.100  0.0367 -0.0459  0.0960
29446W        W45580  12.026  12.181  13.597  0.1155 -0.1586 -0.0332
29447W        W45581   6.261  15.027  11.639 -0.0959 -0.1605  0.1549
29448W        W45582  14.846   1.730   5.048 -0.0632 -0.2419 -0.0981
29449W        W45583  12.979   3.306   3.736  0.2902  0.1992 -0.4018
29450W        W45584   0.969   8.962   4.675 -0.2670 -0.2838 -0.2194
29451W        W45585  10.133   6.357   8.952 -0.0085  0.0404 -0.1742
29452W        W45586  13.546   5.653   9.678  0.0268  0.1637  0.2559
29453W        W45587   8.775   8.711   2.905 -0.0459 -0.1221  0.2772
29454W        W45588   5.649  14.187   1.193  0.2886  0.2628 -0.5052
29455W        W45589   9.526   6.362  10.119 -0.1271  0.4974  0.0094
29456W        W45590   2.950  14.668   1.785 -0.0366 -0.1814  0.2819
29457W        W45591  16.055   9.658  14.065  0.1338 -0.0210  0.2362
29458W        W45592   9.903   0.620   2.119  0.0232  0.2264 -0.0427
29459W        W45593   7.075  16.399  11.364 -0.4044  0.1448  0.0273
29460W        W45594   2.143  12.492  13.301 -0.2616 -0.1482 -0.0437
29461W        W45595   3.674  15.479  14.805 -0.0277  0.2475  0.2821
29462W        W45596  19.290   3.739  14.578  0.0390 -0.4063  0.0350
29463W        W45597   1.104   1.632  11.472 -0.0015  0.0396 -0.4314
29464W        W45598   4.199   6.259  11.264  0.0500 -0.6507  0.2544
29465W        W45599   0.898   2.327   1.250  0.2055  0.0933  0.0081
29466W        W45600   0.275   5.912   3.030 -0.0359  0.0770  0.1007
29467W        W45601   9.062   1.912  13.762 -0.1160  0.2530  0.2011
29468W        W45602   3.851   0.516   3.535 -0.1948 -0.0964 -0.1829
29469W        W45603  18.262  18.648  10.721 -0.4876  0.3009 -0.0702
29470W        W45604   0.334   2.480  14.889 -0.3399  0.2134  0.0357
29471W        W45605  11.015  11.866   4.683 -0.4602 -0.0683 -0.1893
29472W        W45606   3.207   2.212  12.958 -0.1919  0.0704 -0.2088
29473W        W45607  17.319   2.796   1.880 -0.0773 -0.1111 -0.0698
29474W        W45608  13.687   1.342  14.875  0.1215  0.3462 -0.0600
29475W        W45609   7.523   7.094  10.709 -0.1665 -0.3731  0.1499
29476W        W45610   8.593   4.553  11.101  0.2603 -0.0049 -0.1955
29477W        W45611   3.963  14.172   4.907  0.0140 -0.3514  0.1516
29478W        W45612  19.020  13.624  11.763  0.1233 -0.1403  0.1532
29479W        W45613  14.584  15.535   0.637  0.2450  0.0926  0.2341
29480W        W45614   6.690   8.131  10.523 -0.1322  0.1912 -0.0663
29481W        W45615   6.833   8.466  10.947 -0.0200 -0.0673  0.2023
29482W        W45616  16.777   7.395   3.088 -0.0440 -0.2459 -0.3467
29483W        W45617  17.178   9.657  14.750 -0.4295  0.1935 -0.1745
29484W        W45618   2.599  15.871  14.046 -0.0079 -0.2139 -0.0255
29485W        W45619  13.576  17.417   1.721  0.1611 -0.2216  0.0244
29486W        W45620   4.017  16.445  14.388 -0.1268  0.1821 -0.3234
29487W        W45621  16.011   0.798   5.537 -0.3080 -0.0698  0.2105
29488W        W45622   7.547   7.140  11.229  0.0401 -0.0768  0.3400
29489W        W45623   8.403  13.772   4.129  0.2534 -0.0558 -0.1856
29490W        W45624  18.458   3.130  13.493 -0.4609  0.0980  0.3632
29491W        W45625   6.720  14.037   4.657  0.1279  0.1965 -0.1842
29492W        W45626  11.812  18.654   1.304 -0.0633 -0.1105 -0.1453
29493W        W45627  17.139  14.140  12.798  0.0256  0.1981  0.4042
29494W        W45628   0.425   1.579  14.318 -0.0210 -0.3130 -0.1309
29495W        W45629   8.950   8.825   3.987 -0.1613  0.0972 -0.1521
29496W        W45630   3.202  12.068   1.930  0.5191  0.0940  0.3005
29497W        W45631   9.638  14.913   3.098  0.2215 -0.0534  0.1226
29498W        W45632  19.278  13.517   0.926  0.4887  0.3363 -0.0861
29499W        W45633   0.215  13.125  14.189  0.4207 -0.0680 -0.4919
29500W        W45634  15.977  12.846   3.562  0.1218  0.0240 -0.1458
29501W        W45635   0.436  17.644  11.462  0.0168  0.0565  0.0166
29502W        W45636   5.903   4.472  14.428 -0.0897  0.0555 -0.0210
29503W        W45637   6.347  10.172   2.231 -0.1041  0.0217  0.5403
29504W        W45638   3.623   4.831   3.008 -0.0075 -0.1922 -0.3673
29505W        W45639   8.493  10.208  10.249 -0.0840 -0.0568 -0.1153
29506W        W45640   8.483  17.640  13.778  0.0051 -0.2305 -0.2908
29507W        W45641  12.699   1.079  14.929 -0.0055 -0.0911 -0.1203
29508W        W45642   6.740   9.029  11.026 -0.2563  0.2748 -0.1293
29509W        W45643   4.483   7.678  12.593  0.0785 -0.1068  0.2554
29510W        W45644  13.460  15.737  13.410 -0.0367 -0.0060  0.2131
29511W        W45645  11.118  15.631   0.340  0.1610  0.0740  0.3511
29512W        W45646   0.154   5.972  13.474  0.3293 -0.0532 -0.2310
29513W        W45647  13.412   9.201   3.466 -0.5461  0.4037 -0.0749
29514W        W45648  16.674  11.666  11.199  0.0105 -0.2729  0.0813
29515W        W45649  17.201  16.909  12.497 -0.2041  0.2186  0.2883
29516W        W45650   2.416   4.226   3.920 -0.0751 -0.2209 -0.0840
29517W        W45651  10.750   2.836  14.145 -0.1031  0.3087 -0.2114
29518W        W45652   8.854  18.192   9.785 -0.1407 -0.2061  0.0153
29519W        W45653  12.108  17.482  11.623 -0.1797  0.2338  0.0168
29520W        W45654   2.380   0.137   1.198 -0.0635  0.2156  0.0284
29521W        W45655  18.530  19.076   3.804  0.4651 -0.0592  0.0127
29522W        W45656   9.541   0.580  12.065 -0.1185  0.2487 -0.0339
29523W        W45657  10.102  13.331   3.669  0.0565 -0.6012 -0.3116
29524W        W45658  14.741  10.214  13.158 -0.2639  0.0194 -0.1602
29525W        W45659  13.695   6.066  12.111 -0.0746 -0.1688  0.1306
29526W        W45660   6.864   6.262  12.193  0.2168 -0.0187 -0.0822
29527W        W45661   6.834   5.056  10.102 -0.1847  0.2317  0.0118
29528W        W45662  16.140  12.747  14.786 -0.0137 -0.0673  0.1916
29529W        W45663   4.353   6.456  10.206 -0.1137 -0.6021  0.3967
29530W        W45664  11.184   9.486  12.724  0.0516 -0.1650  0.2899
29531W        W45665  16.882   8.404   4.997  0.2193  0.0905  0.1219
29532W        W45666   3.207   6.687   1.349 -0.0919  0.1017  0.1290
29533W        W45667  19.261  13.665   2.864  0.0055 -0.0475 -0.0261
29534W        W45668   9.178   8.734   1.613 -0.1763 -0.1538 -0.3789
29535W        W45669  13.919  13.078   2.076 -0.2323  0.1231  0.2029
29536W        W45670  17.188  12.319  14.874  0.2993 -0.2986 -0.2898
29537W        W45671   8.784   2.092  10.811  0.2135 -0.2931  0.0096
29538W        W45672   3.368   4.163  13.136 -0.0116 -0.0360 -0.2724
29539W        W45673   1.861  17.605  14.823  0.1100 -0.0365  0.3242
29540W        W45674   9.239  19.136  12.111 -0.0271  0.0363 -0.2173
29541W        W45675   5.822   4.676  11.392 -0.1139 -0.1647 -0.1293
29542W        W45676   6.520   5.083   8.997 -0.0860  0.1198  0.0003
29543W        W45677   2.426  10.952   0.480 -0.2126 -0.0598 -0.3662
29544W        W45678   8.877   0.252   1.115  0.4994 -0.1831 -0.3025
29545W        W45679  12.759  17.732   5.159  0.3811  0.2602  0.1409
29546W        W45680  11.194  14.724   3.986  0.2197  0.0850  0.1129
29547W        W45681   5.059  11.458  13.657 -0.1534 -0.1960 -0.1778
29548W        W45682  15.464   9.319   0.314 -0.0408  0.0012 -0.2704
29549W        W45683  18.772   5.824   1.622  0.1175  0.0182  0.3315
29550W        W45684  19.320  12.715  14.185 -0.4170  0.4290 -0.1199
29551W        W45685   9.206   5.773  14.362  0.1490  0.1854 -0.2564
29552W        W45686   3.472   9.025  14.936  0.1898 -0.1560 -0.3771
29553W        W45687  15.266   5.677  10.203  0.1224 -0.1598  0.1781
29554W        W45688  17.231  19.013   3.383 -0.2021 -0.2050  0.1176
29555W        W45689   7.708   2.824  12.066  0.1045 -0.1738 -0.2197
29556W        W45690   8.585   7.145  12.049  0.1061  0.1297  0.0096
29557W        W45691  14.994   5.360  10.591 -0.1075 -0.1196 -0.1692
29558W        W45692   3.089  18.127   5.017  0.1545 -0.0656  0.0699
29559W        W45693  14.077   9.922  12.212 -0.0570  0.3481  0.2147
29560W        W45694  14.777  11.554  10.950 -0.0082  0.1294  0.0520
29561W        W45695   8.552  11.342   0.883 -0.1472 -0.1639 -0.1198
29562W        W45696   3.555   4.132  11.866 -0.0741 -0.0668 -0.0477
29563W        W45697   9.802  10.816  12.211 -0.0666  0.1002 -0.0060
29564W        W45698  14.384   5.712  14.827  0.0501  0.2359 -0.1254
29565W        W45699   3.547   4.888  11.370  0.4073 -0.0426  0.0426
29566W        W45700  19.177  13.084   3.791 -0.2280  0.1655 -0.1334
29567W        W45701  17.544  13.634  12.074  0.0372 -0.1418 -0.3825
29568W        W45702   1.968   7.367   9.250 -0.3570 -0.0587 -0.0848
29569W        W45703  12.803  10.078  10.964  0.3687 -0.0335  0.1109
29570W        W45704  11.755  14.212  14.480 -0.3481 -0.0124 -0.0226
29571W        W45705   4.424  16.998   2.716  0.1635 -0.1178  0.0393
29572W        W45706  13.211   2.740   4.893 -0.2061  0.0699  0.0145
29573W        W45707   8.716  16.798   0.773 -0.0307  0.0449  0.0418
29574W        W45708  13.068  18.740  12.216 -0.0444 -0.1518 -0.3823
29575W        W45709   5.401   8.170  11.923 -0.0689 -0.1124 -0.1249
29576W        W45710  15.449   8.731   4.317  0.1609 -0.0097  0.1771
29577W        W45711  12.164   8.707   0.062 -0.3377  0.1191 -0.0358
29578W        W45712  15.428   0.869  14.951  0.1875  0.1597 -0.1993
29579W        W45713  13.623  17.968  14.748  0.2350  0.0274 -0.1398
29580W        W45714   9.215   1.386  12.941 -0.2352 -0.0166  0.1506
29581W        W45715  19.260  15.909  12.337 -0.0944 -0.0008 -0.1445
29582W        W45716  10.410  15.648  11.010  0.4209 -0.0795  0.5096
29583W        W45717   2.662  12.305  13.296 -0.0846 -0.2668  0.0626
29584W        W45718   1.635  11.635   1.694  0.1357 -0.0339  0.1411
29585W        W45719  11.664  14.166   4.520 -0.4514  0.0064 -0.0578
29586W        W45720  19.027   4.990   9.873  0.1506 -0.3368  0.1131
29587W        W45721  10.217   3.367  10.720 -0.1495  0.0057  0.3508
29588W        W45722   2.675  10.957  11.672 -0.0178  0.3254  0.4708
29589W        W45723  16.780   3.779   0.002 -0.0167 -0.4813 -0.1377
29590W        W45724   6.390   5.578   9.905 -0.3589  0.0570  0.1010
29591W        W45725   8.133  13.309   1.222 -0.0052 -0.2441  0.1350
29592W        W45726  15.024  13.549   0.147 -0.0047 -0.0767 -0.0358
29593W        W45727   4.279  11.086  14.361  0.0259 -0.2070  0.0791
29594W        W45728  17.536   1.263  13.857 -0.0126  0.2087  0.2164
29595W        W45729  16.849   1.579   5.149  0.0064  0.3215 -0.1343
29596W        W45730   4.906   7.808   3.487  0.0835 -0.1274 -0.4629
29597W        W45731   8.179  10.161  11.775  0.0328  0.0395 -0.0105
29598W        W45732   0.216   7.907   2.715  0.0999  0.0444 -0.1080
29599W        W45733  18.674   6.014  12.224 -0.1703 -0.4140  0.2095
29600W        W45734   7.200  18.284  12.671 -0.0944 -0.0047  0.1330
29601W        W45735  13.557  10.377   4.366  0.0276  0.1680  0.1582
29602W        W45736  16.629   9.451  14.682  0.0716 -0.0337  0.1361
29603W        W45737   7.482  11.680  13.653 -0.3848 -0.0341  0.0769
29604W        W45738  10.022   2.876  11.378 -0.1442 -0.3241  0.0706
29605W        W45739   2.234   4.450   4.366  0.1226  0.0165  0.2654
29606W        W45740   1.738  16.634  12.250  0.3446 -0.0074 -0.2503
29607W        W45741   0.875  15.908  10.927  0.3048  0.1094 -0.0612
29608W        W45742   6.917  13.612  12.811 -0.1187 -0.1908 -0.0597
29609W        W45743  14.531   4.871   0.092 -0.1199 -0.0603 -0.6055
29610W        W45744   0.526  14.563   4.696 -0.1239  0.1907  0.0603
29611W        W45745   0.512   9.046  11.935 -0.1525 -0.1021 -0.1246
29612W        W45746  12.057   4.072   0.004  0.3332  0.3880  0.0292
29613W        W45747  18.385  12.169  12.301  0.0745 -0.1677  0.3259
29614W        W45748   7.652  10.058   3.487 -0.1579 -0.0034 -0.0800
29615W        W45749   1.874   0.309   1.232  0.0110 -0.3610 -0.3819
29616W        W45750  18.381  16.021  10.892 -0.2053  0.0014  0.1115
29617W        W45751  15.210   0.321  14.169 -0.0524 -0.1397 -0.3420
29618W        W45752  12.988   2.881  11.356 -0.1042 -0.0659 -0.1318
29619W        W45753   6.246   1.440  14.292  0.0925 -0.2694 -0.1282
29620W        W45754   4.352  13.106  11.169 -0.0608  0.1510 -0.2198
29621W        W45755  12.622  18.490  12.938 -0.1413 -0.1906  0.0528
29622W        W45756  10.470   7.421   4.696  0.0308 -0.2578  0.0893
29623W        W45757   7.617   0.864   3.616  0.1185  0.0129 -0.0983
29624W        W45758   4.589   6.858  13.201  0.0474  0.3654 -0.3301
29625W        W45759  19.334  16.314  14.621  0.1662 -0.1590 -0.0574
29626W        W45760   5.960  13.537   0.763  0.0545 -0.1047 -0.2293
29627W        W45761   0.397   7.694  14.871  0.1851 -0.1189 -0.3859
29628W        W45762  15.191  10.609   3.405 -0.2661 -0.3580 -0.1163
29629W        W45763   1.627  14.469  10.288  0.0010  0.1284 -0.1668
29630W        W45764   4.524   6.355   0.738  0.1319  0.1034  0.0933
29631W        W45765   8.057   3.972   0.977 -0.4925  0.1648  0.0686
29632W        W45766   1.692  11.967   0.131  0.1678  0.1247  0.2077
29633W        W45767  11.852   8.642  13.421  0.0329 -0.1454  0.4920
29634W        W45768  17.390   8.865   2.438 -0.1256 -0.0142 -0.0057
29635W        W45769  18.610  12.962   2.744  0.1637 -0.0445 -0.4996
29636W        W45770  12.272  10.479   0.385  0.0333  0.0192 -0.2023
29637W        W45771   4.758   9.946  11.447  0.1915 -0.2684 -0.0927
29638W        W45772   3.597  12.173  14.842  0.0997  0.1856 -0.0883
29639W        W45773   2.518   0.748  12.645 -0.0562  0.1126 -0.0944
29640W        W45774  10.549  12.917   3.920 -0.1000 -0.0766 -0.1907
29641W        W45775  18.361   7.781  10.855 -0.1602 -0.2144 -0.0790
29642W        W45776   0.014   3.938  11.554  0.2478 -0.0159  0.2157
29643W        W45777   5.127   9.191   1.651 -0.2099  0.0449  0.1493
29644W        W45778   4.618  15.704  12.059  0.2454  0.0481  0.2521
29645W        W45779  12.035  16.429   0.585 -0.0594  0.1690 -0.0355
29646W        W45780   5.015   4.388   4.361 -0.2224 -0.2239 -0.0481
29647W        W45781   3.740  17.884  12.442  0.0119  0.2089 -0.3869
29648W        W45782   9.849   6.302  12.155  0.2391  0.1339 -0.0839
29649W        W45783  16.898   1.485   4.556 -0.0561  0.2363 -0.1259
29650W        W45784   3.862  16.777   2.579  0.0376 -0.2899  0.1534
29651W        W45785   8.171   6.699   9.779 -0.3066  0.1486 -0.0711
29652W        W45786   9.845  12.117   9.916  0.0896 -0.1930 -0.0854
29653W        W45787   9.682   7.855  11.166 -0.0975  0.0205 -0.1611
29654W        W45788   9.180   7.367  10.225  0.0425  0.3445 -0.0819
29655W        W45789  10.970  18.571  13.464  0.1931  0.0504  0.0622
29656W        W45790   7.169  18.645  13.660 -0.1665  0.1085 -0.1352
29657W        W45791   8.564  17.084   1.260  0.0304  0.1114 -0.0673
29658W        W45792  11.722   2.118   3.671  0.0054  0.3886  0.0845
29659W        W45793   6.888   9.387   3.831  0.2476  0.0927  0.1329
29660W        W45794  17.096   8.291  12.295  0.0271  0.1249 -0.0176
29661W        W45795  12.169   6.489  10.904 -0.0028  0.1033  0.0529
29662W        W45796  18.774   0.495   4.964  0.0556  0.0062  0.2958
29663W        W45797   6.669   6.077   0.564  0.1112 -0.0292 -0.4641
29664W        W45798  14.249   9.990  11.268  0.0516 -0.0787 -0.0605
29665W        W45799  16.088   0.469   1.086  0.3154 -0.2329 -0.0813
29666W        W45800  10.739  14.097   0.765 -0.5272  0.3737  0.2934
29667W        W45801   9.037  10.727   2.163  0.0656  0.2272  0.3089
29668W        W45802   6.083   9.357  11.725 -0.3178  0.0355  0.3000
29669W        W45803  13.199  13.580  11.137  0.1620  0.1723 -0.1746
29670W        W45804   7.356   8.875   9.810  0.3136 -0.0231  0.0781
29671W        W45805  17.616  14.348  11.444  0.3623  0.0982 -0.0507
29672W        W45806   2.410  17.321  14.672  0.0820 -0.2977  0.2562
29673W        W45807  19.178  13.066   0.716 -0.1577 -0.1315  0.1361
29674W        W45808   4.887  15.692   6.037 -0.0862 -0.1395 -0.0140
29675W        W45809  18.054   9.795  10.837  0.2587  0.1408  0.3051
29676W        W45810   4.069  11.844  12.399  0.0051 -0.0427  0.0076
29677W        W45811   9.816   8.277   2.265  0.0703  0.1610  0.1366
29678W        W45812  15.529   4.290   1.576  0.1486  0.0877 -0.2848
29679W        W45813   8.323   9.380   9.712  0.0092 -0.0007 -0.1417
29680W        W45814   9.055  13.788   4.640 -0.0289  0.0043 -0.3949
29681W        W45815   2.629   0.758   0.131  0.0800 -0.1910  0.0542
29682W        W45816  14.715   8.200   2.907  0.1319  0.0813 -0.1773
29683W        W45817  18.432   7.728  14.141 -0.2269 -0.0745  0.2784
29684W        W45818   0.889  14.208   3.520  0.1221  0.2873 -0.0318
29685W        W45819  11.816  16.558  12.160 -0.2230 -0.0844  0.3646
29686W        W45820  14.171   6.333   1.690  0.3700 -0.1404 -0.0105
29687W        W45821   2.730   5.922   2.012 -0.3558  0.0260 -0.2252
29688W        W45822  14.693   2.772  13.081  0.2684 -0.1685 -0.0575
29689W        W45823  15.105  13.590   1.741  0.0486 -0.1176  0.1516
29690W        W45824  19.190  17.412  12.566  0.0883 -0.0912  0.0150
29691W        W45825  13.008  11.466  13.790  0.3447  0.0786 -0.1067
29692W        W45826  16.773  17.732  12.636  0.1149  0.3204  0.0978
29693W        W45827   5.103   2.258  10.155  0.0414  0.1016  0.0741
29694W        W45828  17.500  14.836  13.938  0.0023 -0.3697  0.1454
29695W        W45829  12.948   3.086  13.547 -0.1807 -0.0961  0.2563
29696W        W45830   7.424  15.832   4.392 -0.2203  0.1202  0.2091
29697W        W45831  13.978  18.913   5.531 -0.2783 -0.1279  0.0876
29698W        W45832  16.136  15.850   2.013 -0.2524 -0.1051 -0.1724
29699W        W45833   1.704  13.960  12.336 -0.1363  0.0387 -0.1639
29700W        W45834  14.861   1.237   0.714  0.2885 -0.0107 -0.1861
29701W        W45835  14.610  17.757  12.947  0.1812  0.1078 -0.2157
29702W        W45836  18.527   1.127  14.731  0.1453  0.1359 -0.0591
29703W        W45837   1.369   2.719   3.024  0.1285 -0.1620  0.2161
29704W        W45838   6.432   2.159   1.652 -0.0074  0.0049  0.0194
29705W        W45839   9.826   4.363  13.016  0.4940  0.0968 -0.1269
29706W        W45840   5.866  10.077   2.285 -0.1085  0.2208 -0.2645
29707W        W45841  17.589   9.584  11.862  0.1727  0.0596 -0.2964
29708W        W45842  19.246  13.544  13.426 -0.2121  0.0345  0.0710
29709W        W45843  10.999   9.780  11.285 -0.0602 -0.0813  0.1226
29710W        W45844   1.381  16.283  14.821  0.1345  0.1282  0.1359
29711W        W45845   4.977   8.971   4.825  0.2849  0.1989  0.1317
29712W        W45846   8.934  11.551   0.669  0.1063 -0.1084  0.0782
29713W        W45847   5.148  14.317  12.128  0.1493  0.1984 -0.0165
29714W        W45848  15.832   3.599   2.590  0.0559 -0.1560 -0.0566
29715W        W45849  14.362   3.935   5.522 -0.2105  0.1285 -0.1625
29716W        W45850  18.829  12.041   2.829 -0.0266  0.1673 -0.3328
29717W        W45851  12.896  15.861  11.755 -0.1268 -0.0884  0.0831
29718W        W45852  14.318   7.349  12.495  0.0885  0.2418 -0.3870
29719W        W45853   0.254   3.317   3.619 -0.0118  0.0246 -0.0054
29720W        W45854  11.168  12.356  14.822 -0.0090  0.3812  0.1658
29721W        W45855   5.903  10.303  11.159 -0.2475 -0.1494 -0.2638
29722W        W45856   8.310  19.134  14.321  0.1228 -0.0177 -0.0156
29723W        W45857   7.455  10.307  10.425  0.2653  0.1383 -0.3800
29724W        W45858   4.419   2.579   4.044  0.0642 -0.1327  0.0754
29725W        W45859   1.786   1.025  11.533  0.0384  0.1582 -0.2354
29726W        W45860   2.491  16.441  13.255 -0.0305 -0.0781  0.1882
29727W        W45861   2.935   8.082  10.381  0.1409  0.1668  0.2646
29728W        W45862   6.524  14.823   2.543 -0.0249  0.3630 -0.3004
29729W        W45863   8.145   8.589   2.408  0.1217  0.0712  0.1304
29730W        W45864   4.394  10.784   0.718 -0.0019  0.0325  0.1010
29731W        W45865  15.406  18.305   3.632  0.2029 -0.0282 -0.3012
29732W        W45866   2.359   7.551  14.227 -0.2466 -0.4515  0.1238
29733W        W45867   1.552   8.821   4.225 -0.0859 -0.0313  0.0873
29734W        W45868   7.904   3.377  12.304 -0.1204 -0.1893 -0.0452
29735W        W45869   6.777  18.436   3.534  0.2341  0.0246 -0.0659
29736W        W45870  16.472  15.285  12.407  0.0901 -0.2971  0.0925
29737W        W45871   0.454   6.193  10.141  0.2195 -0.0755  0.1987
29738W        W45872   1.173   6.531  13.562 -0.1625  0.0712 -0.2867
29739W        W45873   0.433   3.059   1.581 -0.2864 -0.0969  0.0299
29740W        W45874   1.267  17.974  14.466 -0.2308  0.2058 -0.1614
29741W        W45875  19.041  11.042   4.636  0.1339 -0.1545  0.0072
29742W        W45876  12.779   4.170  11.251  0.2926 -0.2555 -0.2373
29743W        W45877  11.622  12.468  13.701  0.1028  0.4329  0.1079
29744W        W45878  16.073   9.962   3.581 -0.4335 -0.1567  0.1221
29745W        W45879  11.819  13.693  13.361  0.0855  0.5366 -0.0488
29746W        W45880   6.198   3.665   3.186 -0.0881  0.1046 -0.1447
29747W        W45881   5.312   4.021   0.690 -0.1557  0.1624 -0.2811
29748W        W45882  14.886   1.085   2.846 -0.0437 -0.1151 -0.2176
29749W        W45883  13.915   5.656  12.855  0.2770  0.3061 -0.3647
29750W        W45884   8.146  14.586  14.960 -0.0325  0.1551 -0.0691
29751W        W45885  12.202   4.845  12.486  0.0489  0.0104  0.0378
29752W        W45886   1.337  18.120  11.913  0.0652 -0.0212 -0.2510
29753W        W45887   8.853  19.034  12.884 -0.1493 -0.2655 -0.1117
29754W        W45888   3.835  12.668  13.114  0.2646 -0.2704  0.0718
29755W        W45889   4.802   4.279  14.942  0.2092  0.0893  0.1550
29756W        W45890   6.983  14.284   5.070 -0.1055  0.0655  0.0745
29757W        W45891  14.193   2.311   1.680 -0.4255  0.0352  0.0150
29758W        W45892  10.898   9.065   2.693 -0.0236 -0.3210 -0.1723
29759W        W45893  15.514  16.652   0.030 -0.0597  0.2463  0.1663
29760W        W45894  16.581   7.879   3.134 -0.1056  0.1511  0.1882
29761W        W45895   0.359  13.506  14.490  0.1271 -0.2147 -0.2026
29762W        W45896  12.082   5.551  10.275 -0.1871  0.0123  0.1556
29763W        W45897  18.937   8.224  12.841  0.1324  0.1978 -0.2382
29764W        W45898  15.156  11.595   3.574  0.2804 -0.3244 -0.0298
29765W        W45899   0.060   8.452   1.527  0.0179  0.0337 -0.3532
29766W        W45900   1.571  14.557  13.281  0.0109 -0.1476 -0.4530
29767W        W45901  13.170  13.796  14.558 -0.1317 -0.2177  0.0559
29768W        W45902   6.055   0.706   3.945  0.4320  0.0223  0.1560
29769W        W45903   2.741   5.200   3.957  0.0243  0.1129  0.1391
29770W        W45904  15.383  13.534  13.629 -0.0711  0.0224 -0.1885
29771W        W45905   1.470   8.887   3.624 -0.1325  0.1617  0.2463
29772W        W45906   7.359  10.320   2.021 -0.1093  0.0367 -0.0194
29773W        W45907   7.293   6.457  13.602  0.2540  0.1451 -0.0899
29774W        W45908   9.292  18.909   4.158  0.0742 -0.3196 -0.0860
29775W        W45909   2.483  14.858  14.202 -0.3678  0.1255  0.1705
29776W        W45910   6.314   2.095   2.826  0.2466  0.1280  0.3106
29777W        W45911   5.065   1.998   1.087 -0.1016 -0.1145 -0.1875
29778W        W45912   8.621  12.524  12.059  0.0150 -0.0078  0.1559
29779W        W45913   6.231  11.950   5.012  0.2116 -0.2975  0.2402
29780W        W45914  11.445  15.478   1.665 -0.0012 -0.1709 -0.2496
29781W        W45915  17.680   6.939   4.898 -0.3173  0.2529 -0.1315
29782W        W45916   3.043   6.598  13.888  0.1145 -0.0747  0.1535
29783W        W45917   3.464  12.448   1.605  0.0330  0.2674 -0.1240
29784W        W45918  14.221   5.174   1.244  0.0902 -0.2363  0.1332
29785W        W45919  12.719   4.443   0.570  0.0893  0.0885 -0.0856
29786W        W45920  12.937   7.731  14.145 -0.4511  0.1864 -0.1162
29787W        W45921  19.069   0.905   3.489  0.0922 -0.0957 -0.2991
29788W        W45922  11.084   4.899  14.031 -0.0860  0.0831  0.5030
29789W        W45923   2.493  14.218  13.619 -0.0687  0.3113 -0.1444
29790W        W45924   6.889   3.315  10.650 -0.2767  0.3638 -0.4217
29791W        W45925  17.368   7.706  14.160 -0.2693 -0.2068 -0.0578
29792W        W45926  14.285   6.818   4.991  0.0387 -0.1597  0.0420
29793W        W45927   3.202   6.408  13.425  0.2208 -0.0480 -0.0493
29794W        W45928  17.630   7.815  11.117 -0.0743  0.1602 -0.1024
29795W        W45929   1.433  16.545  13.341 -0.0359  0.1472 -0.2409
29796W        W45930   9.997  11.409   0.513  0.0616  0.2460 -0.1934
29797W        W45931   8.119   7.986  13.550  0.0035 -0.0180  0.1903
29798W        W45932  11.123   3.860  12.611  0.1035 -0.1892  0.1617
29799W        W45933  12.473   9.014   9.257 -0.1998 -0.0063  0.2201
29800W        W45934   9.991   2.737   4.956 -0.1208 -0.1054  0.2012
29801W        W45935   6.740   6.959   2.625 -0.1590 -0.0907  0.2558
29802W        W45936  19.237   1.510  11.130 -0.1222  0.2929 -0.1914
29803W        W45937  11.023  14.018   3.979  0.2114 -0.0648 -0.1584
29804W        W45938   3.314  18.627  12.894  0.1906 -0.0794  0.0320
29805W        W45939   3.699   5.166  10.624  0.2921 -0.0981  0.0636
29806W        W45940  16.587   1.340   3.028  0.3457 -0.1705 -0.1242
29807W        W45941  17.321   6.891  11.307  0.2611  0.0746 -0.0403
29808W        W45942  13.450  19.290   1.081 -0.2768  0.0688 -0.0506
29809W        W45943   3.068   0.574   9.915 -0.2258 -0.2602 -0.1433
29810W        W45944  18.498  17.812   5.048  0.3598 -0.3443  0.1286
29811W        W45945  12.566  16.656   2.926 -0.1317  0.0866  0.2164
29812W        W45946  13.165   3.750   3.545  0.1460  0.3058  0.0166
29813W        W45947   4.331   5.593   3.339 -0.1159 -0.2418  0.2784
29814W        W45948  16.448   8.814   0.614 -0.2293  0.2186 -0.6333
29815W        W45949   6.578   8.519   1.340  0.1895 -0.1042  0.0307
29816W        W45950  12.196  16.720   3.935  0.0453  0.0989 -0.1717
29817W        W45951  12.378   8.048  12.499 -0.0091  0.2256 -0.0476
29818W        W45952   6.363  16.047  14.023 -0.4294  0.1750 -0.2275
29819W        W45953  16.901  18.225   3.247  0.5008  0.1634  0.2129
29820W        W45954  15.049  11.197  10.660 -0.0382 -0.1480 -0.2772
29821W        W45955   4.080  11.932   1.203 -0.0524  0.0175  0.0850
29822W        W45956   8.123  10.914   0.393 -0.1245  0.0846 -0.0696
29823W        W45957   4.624   1.836   1.835 -0.3126  0.1800 -0.0180
29824W        W45958   7.740   8.346   0.644  0.0334  0.0603  0.3887
29825W        W45959  15.173   3.215   3.009  0.0634  0.0588 -0.1933
29826W        W45960   5.683   5.718   3.377 -0.0538  0.0192  0.0343
29827W        W45961   0.583   1.289  14.670  0.1955 -0.2645 -0.0798
29828W        W45962  17.631   4.511  13.156 -0.2109  0.0445 -0.0149
29829W        W45963  14.673   8.874   3.960  0.0779 -0.1612 -0.3901
29830W        W45964   1.543  17.127   2.923 -0.1757  0.1042 -0.1616
29831W        W45965   5.095  10.524  14.597 -0.0993  0.0210 -0.0576
29832W        W45966   4.848   9.365  14.741  0.1381  0.2092 -0.1668
29833W        W45967   2.130   0.170   1.659 -0.0750 -0.0369 -0.1776
29834W        W45968  18.345   5.098   0.016 -0.1163  0.0555 -0.2695
29835W        W45969  12.970   7.179   4.904  0.0814  0.2983  0.0931
29836W        W45970   3.378  14.629   9.337 -0.0824  0.0691 -0.0185
29837W        W45971   4.762  10.254  12.987 -0.3301  0.0415  0.2291
29838W        W45972   3.911  11.076   2.840  0.2183 -0.1408  0.0966
29839W        W45973  12.631   2.563  12.339  0.1143  0.1813  0.1191
29840W        W45974  14.897  19.083   0.964 -0.0819 -0.2649  0.0623
29841W        W45975  13.371   5.397  11.830 -0.0542  0.0894 -0.0400
29842W        W45976   7.120   4.684  10.265 -0.0780  0.2431  0.1313
29843W        W45977   3.888   5.347  12.405 -0.3128 -0.0871 -0.2041
29844W        W45978   2.991  11.113   1.827  0.4500 -0.1580 -0.1334
29845W        W45979   9.770  10.419   0.442  0.2793  0.0969  0.0445
29846W        W45980   4.575  16.927   0.114 -0.2392 -0.0168 -0.0400
29847W        W45981  14.252  18.576   2.182  0.0626 -0.1296 -0.0302
29848W        W45982  17.495   1.921   1.490  0.0598  0.0278  0.2754
29849W        W45983  16.214  11.710   4.127 -0.1100  0.2081 -0.0232
29850W        W45984  12.400  10.995   4.997 -0.2559 -0.3148  0.2829
29851W        W45985   1.956   1.076   2.814 -0.1878  0.0790  0.0004
29852W        W45986   2.926  14.007  13.821  0.1790  0.1172 -0.1782
29853W        W45987   8.966   4.470  12.508 -0.0846 -0.2364  0.1344
29854W        W45988   7.475  15.180   9.461 -0.0643 -0.3115 -0.0685
29855W        W45989  14.781  17.313  12.817  0.0825 -0.1623  0.0880
29856W        W45990   3.098   5.999   8.884 -0.1328 -0.3245 -0.0146
29857W        W45991  13.640  10.575  10.909  0.2995 -0.1598 -0.2283
29858W        W45992  17.363  18.386   1.414  0.1898 -0.2573  0.1066
29859W        W45993   3.237  15.524   4.117  0.0306 -0.2303 -0.0440
29860W        W45994   5.189  16.159   1.649  0.1686  0.3370 -0.4162
29861W        W45995   3.179   6.320  10.062  0.2872  0.2016 -0.2320
29862W        W45996  11.713   7.339  12.038  0.1127 -0.1066  0.2718
29863W        W45997  18.117  12.376  11.969 -0.2717 -0.0347 -0.2247
29864W        W45998   8.660   1.436   3.109  0.1732 -0.0312  0.1191
29865W        W45999  19.290  11.372  11.464  0.2374 -0.0712 -0.0170
29866W        W46000  18.428  14.491  11.036 -0.0404  0.0585  0.1639
29867W        W46001   0.966   1.187   4.515 -0.1908 -0.4708  0.1232
29868W        W46002  10.486   9.058  10.997  0.2011 -0.0403  0.0525
29869W        W46003  19.009   5.046  14.226  0.1200 -0.2435 -0.1846
29870W        W46004   7.644  18.458   3.459  0.0222  0.1242  0.2634
29871W        W46005   5.649   5.876  10.504 -0.3621 -0.1864 -0.2239
29872W        W46006  17.208   1.552   3.998 -0.0884  0.0590  0.1277
29873W        W46007   7.061   1.147  11.078 -0.0530 -0.1049  0.0126
29874W        W46008   1.339   2.854   2.378  0.0282 -0.0794 -0.0529
29875W        W46009  18.834   2.908  13.719 -0.2466  0.0501  0.0912
29876W        W46010  14.419   4.267   3.383 -0.0857  0.0642  0.2156
29877W        W46011   2.427  16.440   1.702  0.1671 -0.1118 -0.0691
29878W        W46012   7.112  17.416  12.936  0.0854  0.3367 -0.1636
29879W        W46013  14.253  11.182  14.715  0.3732 -0.0472 -0.0896
29880W        W46014  18.716   0.449   0.180  0.1292 -0.3499 -0.0038
29881W        W46015  13.202   7.815   0.892  0.2114 -0.1909 -0.1191
29882W        W46016   8.756  16.742  14.840 -0.0648  0.0331 -0.1275
29883W        W46017  18.582  18.590   3.267 -0.0606  0.2381  0.0739
29884W        W46018  16.666  10.854  14.529 -0.1615 -0.1372  0.1893
29885W        W46019  10.509   3.979  14.425 -0.1169 -0.1645  0.2511
29886W        W46020  15.292   1.287  13.139  0.0819  0.1790 -0.1412
29887W        W46021   7.451   1.007   2.413  0.1974 -0.3214 -0.0593
29888W        W46022   8.120   7.679  10.177  0.0157 -0.1543 -0.0641
29889W        W46023  11.527   3.002   1.200  0.1527 -0.0481  0.1802
29890W        W46024  11.744   9.000  13.843 -0.1836  0.1192  0.0525
29891W        W46025   2.328   2.391  12.423 -0.1516  0.0042  0.1178
29892W        W46026   7.530   8.210   2.432 -0.3529  0.0787 -0.2776
29893W        W46027   7.695  16.865  11.794  0.0377  0.1557 -0.0698
29894W        W46028  14.478   4.382   1.608 -0.0989  0.2020 -0.1805
29895W        W46029  14.705   3.109  11.277  0.0170  0.3187  0.2906
29896W        W46030   1.181   4.762  13.344 -0.4115 -0.3255 -0.3895
29897W        W46031   9.506   4.595   3.988 -0.0515 -0.0420  0.0300
29898W        W46032  16.470   1.191  12.727 -0.2288 -0.1373  0.1837
29899W        W46033  15.393   1.728   1.345  0.1473 -0.0151  0.1067
29900W        W46034   0.870  10.619   4.428 -0.1541 -0.2793  0.2329
29901W        W46035  11.039   6.442   1.704  0.0134 -0.2188  0.0624
29902W        W46036  13.033   5.329   6.081 -0.1408  0.0070 -0.1470
29903W        W46037   3.168   5.436   1.420 -0.0719  0.1703 -0.2079
29904W        W46038  15.734   7.726   0.900  0.2115 -0.1127  0.2017
29905W        W46039   4.634   1.845  12.736 -0.0580 -0.0578  0.1518
29906W        W46040  17.237   2.409  10.694  0.0776  0.2524 -0.1560
29907W        W46041   1.050  18.586  13.522  0.0435  0.1407  0.1753
29908W        W46042   1.182   7.275   0.021 -0.3420  0.2335 -0.2642
29909W        W46043   5.566  10.581   3.351 -0.0473 -0.0079 -0.3489
29910W        W46044  15.884  15.852   5.628  0.3933 -0.1716  0.1784
29911W        W46045   9.662   8.055   4.062  0.2317 -0.0425 -0.1935
29912W        W46046   3.495   8.185  13.801  0.0874  0.2868 -0.2090
29913W        W46047   7.602  17.063   5.552 -0.1482  0.0890 -0.2267
29914W        W46048   7.151  14.897  11.193 -0.0451  0.1119 -0.0829
29915W        W46049   5.515   0.861   2.278  0.1152  0.1219 -0.0378
29916W        W46050  10.805  15.430   3.332  0.3826 -0.1427  0.2497
29917W        W46051  16.371  15.521  11.998  0.2561 -0.1826 -0.4001
29918W        W46052   4.542   5.941  10.322  0.1407 -0.2592 -0.1213
29919W        W46053  16.753   8.325  13.820  0.1837  0.1546  0.2635
29920W        W46054   2.689  10.147  13.207  0.0661  0.0750  0.3020
29921W        W46055   4.550  14.155  13.521 -0.3119 -0.2742 -0.1012
29922W        W46056   6.251  16.213  12.607 -0.1634 -0.1440 -0.2863
29923W        W46057   5.388  12.789   4.555 -0.0023  0.2543  0.0953
29924W        W46058  16.317   3.373  10.808 -0.2802 -0.2386 -0.3151
29925W        W46059   2.277   2.549   0.799 -0.0457 -0.1745 -0.1387
29926W        W46060   5.427   6.469   0.478 -0.0343  0.1099  0.4916
29927W        W46061   2.428  18.859   2.045 -0.2506 -0.2803  0.0117
29928W        W46062   9.100   7.465  13.717  0.1815  0.1836 -0.0999
29929W        W46063   4.840   9.524  13.065  0.2218  0.1162  0.1400
29930W        W46064  12.025   3.317   3.044 -0.2799 -0.1187  0.0983
29931W        W46065   0.477  16.537   2.360 -0.0360  0.3088 -0.1392
29932W        W46066  11.927  18.096   1.087  0.0182 -0.0299 -0.2630
29933W        W46067   7.347  12.578  14.093  0.1214 -0.0940 -0.2343
29934W        W46068   3.876   0.826  10.625  0.1557 -0.3674  0.2674
29935W        W46069   4.974   0.363   2.995  0.2402  0.2463  0.0590
29936W        W46070  14.733   1.997  13.057  0.1030  0.3127 -0.1252
29937W        W46071   9.611  17.515   3.139  0.2218  0.1612  0.2522
29938W        W46072  18.230   6.028   0.147 -0.2691  0.1816  0.1848
29939W        W46073   8.249   9.772  13.332 -0.0249 -0.0316  0.4254
29940W        W46074  12.525  11.420   0.584 -0.0124  0.0325 -0.1933
29941W        W46075  10.984   6.776  11.507  0.2541  0.1422 -0.0442
29942W        W46076   1.354   5.365  10.772 -0.0449  0.4850  0.2315
29943W        W46077   6.241  14.821   4.515 -0.0238  0.2401 -0.1503
29944W        W46078  15.168   0.766   0.874 -0.3383  0.1369 -0.1889
29945W        W46079  11.205  15.638  14.259 -0.0919  0.1105 -0.1243
29946W        W46080  16.885  18.782  13.012  0.0561 -0.0738  0.2034
29947W        W46081   2.854   7.946   1.704  0.0178  0.0285 -0.0675
29948W        W46082   4.095   3.377   0.862 -0.1085  0.1747  0.0234
29949W        W46083   4.508  12.564   3.766 -0.1487 -0.2763 -0.1358
29950W        W46084   4.280   8.433  13.168 -0.0821 -0.0833  0.1891
29951W        W46085   9.661  18.910  14.399 -0.1866  0.2297  0.2651
29952W        W46086   6.895  13.716  11.628 -0.0381  0.1117  0.3064
29953W        W46087   8.938   3.600   4.543 -0.2963 -0.2130  0.0447
29954W        W46088   9.879   4.731   0.838 -0.3345  0.2836 -0.1998
29955W        W46089   2.559  17.790  14.744 -0.1738 -0.1362 -0.0414
29956W        W46090  14.317  11.740   3.574  0.0372 -0.1231 -0.0249
29957W        W46091   7.970   3.292   2.098  0.1197 -0.1702  0.1573
29958W        W46092  11.449   1.427   3.037  0.1036 -0.2323  0.0577
29959W        W46093   5.721  18.026  11.546  0.0288  0.4585 -0.0721
29960W        W46094   5.859  18.221   5.929  0.0077 -0.0876  0.0803
29961W        W46095  11.519  10.968  12.177 -0.3722  0.0316  0.1295
29962W        W46096  18.878  17.089   2.160  0.0116 -0.0601  0.0893
29963W        W46097   5.546   8.745  11.245 -0.0984  0.1160 -0.0990
29964W        W46098  15.322  19.233  11.779  0.1328 -0.2141  0.3250
29965W        W46099  16.610   1.398  14.080  0.0549 -0.0601  0.1083
29966W        W46100  12.634   3.542   5.254 -0.1610  0.1008 -0.2712
29967W        W46101   9.841   9.923   0.358 -0.1123 -0.0007 -0.1529
29968W        W46102  17.711  13.616  10.713  0.0381  0.0933 -0.0087
29969W        W46103   0.867  14.870  11.023 -0.4130 -0.0769  0.0106
29970W        W46104   5.479  11.471   3.670  0.0904  0.0358 -0.0906
29971W        W46105   3.023   6.513   3.139  0.0145 -0.0748 -0.2153
29972W        W46106  17.783  11.364  10.985  0.2522 -0.0705 -0.2218
29973W        W46107   7.206   7.318   1.561 -0.0678  0.2982  0.4095
29974W        W46108   1.678  13.160   0.947 -0.0140  0.2054 -0.0459
29975W        W46109   4.098   2.074  10.303 -0.2923 -0.0021  0.1383
29976W        W46110  11.384   0.155  13.548  0.0537  0.1663 -0.1020
29977W        W46111   3.111  14.513  14.919 -0.1192 -0.1749 -0.1663
29978W        W46112   3.072   5.711   2.492 -0.2871 -0.0164  0.1279
29979W        W46113  11.763   9.414   1.051 -0.0308 -0.2697 -0.1158
29980W        W46114   0.776   0.646  12.148  0.2993  0.0299  0.0655
29981W        W46115  10.150  13.589   0.284  0.0557 -0.0344  0.2246
29982W        W46116  16.671  17.712   2.956 -0.0083 -0.0460  0.0612
29983W        W46117  13.995  16.455   5.300 -0.0717  0.0770  0.0616
29984W        W46118   7.798   6.215  10.573 -0.3088  0.1366 -0.2564
29985W        W46119   1.379   8.438   2.022  0.2789 -0.0603 -0.3748
29986W        W46120   8.871   8.234  14.359  0.0324 -0.1268 -0.0237
29987W        W46121   3.238   7.100   3.461  0.4625 -0.0498  0.1011
29988W        W46122   2.356  16.992   1.702 -0.0310  0.0117 -0.3163
29989W        W46123  18.415   8.350  14.342 -0.0845 -0.0591 -0.0610
29990W        W46124  13.586  19.309  12.042 -0.0354 -0.0562  0.2496
29991W        W46125  14.317   8.950   2.683  0.0219  0.1713  0.2807
29992W        W46126   3.303   4.567  11.796  0.1127 -0.3292 -0.1906
29993W        W46127  16.993  10.859  11.843 -0.1421  0.0324  0.2683
29994W        W46128   1.152   1.380  11.967 -0.1678 -0.2204 -0.2386
29995W        W46129  18.570  12.329   0.166  0.1887  0.1278  0.0325
29996W        W46130   4.921   5.865  10.724 -0.1651  0.2867  0.5700
29997W        W46131  18.861   4.960  11.037 -0.0092  0.0634 -0.0635
29998W        W46132  18.844   9.384   3.977  0.1099 -0.1773 -0.2097
29999W        W46133  18.592  12.335  11.814 -0.4321 -0.1651 -0.3298
30000W        W46134   9.826  14.513  13.273 -0.0257 -0.1318  0.3310
30001W        W46135  14.367  11.519   5.655  0.0169 -0.0603  0.0882
30002W        W46136  16.910   7.443   2.226  0.0618  0.3151  0.0378
30003W        W46137  18.712   4.863  13.716  0.0012 -0.0263  0.1460
30004W        W46138   2.450  18.702  12.340  0.0796 -0.0139 -0.3494
30005W        W46139   3.968  15.988  13.147 -0.0341 -0.0392 -0.1042
30006W        W46140   9.706  18.198   3.842 -0.3529 -0.3599 -0.3659
30007W        W46141   7.166   3.984  10.674  0.2153 -0.3412 -0.1202
30008W        W46142  14.605  16.135   2.936 -0.3407  0.4002 -0.0142
30009W        W46143   3.886  18.474   3.693  0.2006  0.0867 -0.0913
30010W        W46144   6.179   4.949  10.585 -0.0022 -0.1126  0.1047
30011W        W46145   3.348   7.392  11.504 -0.0735 -0.0678  0.1017
30012W        W46146   1.583  17.563   2.062  0.0286 -0.2008 -0.1300
30013W        W46147   5.779  16.037   4.584  0.0743  0.1231 -0.1546
30014W        W46148   6.962  10.421   1.713  0.0054 -0.0310  0.2327
30015W        W46149   2.073   6.575  14.314  0.1940 -0.0359 -0.2335
30016W        W46150   3.899   2.259   2.342  0.1121  0.2447 -0.1379
30017W        W46151  11.477   0.626   3.195 -0.0579  0.1196 -0.1399
30018W        W46152  10.427   4.212   3.357 -0.1675  0.3669 -0.1642
30019W        W46153   4.744   7.713  10.851  0.0703 -0.1790  0.0470
30020W        W46154   4.877  12.949   3.833 -0.0453  0.1298 -0.3848
30021W        W46155   6.687   7.688   0.045  0.0974 -0.1692  0.1136
30022W        W46156   4.969   2.175  13.082  0.3063 -0.4780  0.2829
30023W        W46157  14.735  11.217   4.420 -0.0767  0.1150 -0.0142
30024W        W46158   8.521  16.633   0.315  0.0062  0.0509  0.0266
30025W        W46159   2.041   9.520   3.843  0.1557  0.4441  0.0983
30026W        W46160  17.782   0.963   3.738 -0.1034 -0.1953 -0.0994
30027W        W46161   3.955  13.833   3.450  0.0772 -0.1863  0.1290
30028W        W46162  17.847  15.611  14.524  0.0389  0.2180  0.0618
30029W        W46163  12.215   7.538  10.658  0.0889 -0.0838  0.0737
30030W        W46164  12.788   6.285   2.030 -0.3437 -0.2137  0.1653
30031W        W46165  12.615   8.830   4.724 -0.1548 -0.0348  0.2571
30032W        W46166   9.446   3.973  11.932 -0.0593 -0.1152  0.4052
30033W        W46167  19.163  12.702  13.058 -0.2020  0.4357  0.0256
30034W        W46168  11.727  11.481   3.591  0.0012 -0.2501 -0.4766
30035W        W46169   5.619   2.169  11.516  0.2978 -0.0176  0.0879
30036W        W46170  16.149  13.493  13.031 -0.0563  0.3443  0.0440
30037W        W46171   8.223  18.387  12.593  0.0817  0.1237 -0.3136
30038W        W46172  15.058  10.813   4.167  0.1720  0.1378  0.0601
30039W        W46173   2.999   1.589  11.740  0.0894 -0.2881  0.1348
30040W        W46174  15.269   7.340  10.451  0.1058  0.1942 -0.2995
30041W        W46175  14.880  15.541   2.124 -0.0357 -0.3418 -0.0259
30042W        W46176   7.544  15.323   2.267  0.0163 -0.2334 -0.0408
30043W        W46177  15.127   2.725   2.111  0.1228 -0.0801  0.0021
30044W        W46178  17.246  14.039   3.614 -0.2682 -0.2384 -0.2874
30045W        W46179   1.157  16.550   4.428  0.0658  0.0754  0.2032
30046W        W46180   8.105   3.050  10.598  0.0895 -0.0990  0.0499
30047W        W46181  18.635  12.172  10.563 -0.0670 -0.2128  0.1549
30048W        W46182   1.536   3.348   5.119  0.1613  0.1482  0.0989
30049W        W46183  11.985  15.623   1.002  0.1567  0.1618  0.1197
30050W        W46184  18.247   2.780   0.119 -0.3109 -0.1350 -0.3459
30051W        W46185  15.652  13.094  13.769 -0.0503 -0.1224 -0.2763
30052W        W46186   1.885   7.993  10.181 -0.2460  0.1049 -0.1121
30053W        W46187   6.770  16.960  13.574 -0.1898  0.3065  0.0353
30054W        W46188  15.432  16.953  13.610  0.0230 -0.0493 -0.0386
30055W        W46189   0.465  16.825   3.638  0.0737  0.2536  0.2426
30056W        W46190  16.309   3.849   1.322  0.3229 -0.1239  0.1135
30057W        W46191   4.068   4.345  14.758  0.3522 -0.2366  0.3680
30058W        W46192   0.962   1.380   1.290  0.0031  0.1154  0.1093
30059W        W46193  10.672   8.904  14.074 -0.1032  0.1262  0.0453
30060W        W46194  12.360  14.189   0.850  0.3945  0.0248 -0.2916
30061W        W46195  16.906  18.848   4.345  0.2608  0.0994 -0.4533
30062W        W46196   2.127   9.490   4.412  0.0128 -0.0237 -0.2911
30063W        W46197   1.778   1.471   4.962  0.0150 -0.1128  0.0211
30064W        W46198   0.355  17.297  12.190 -0.4743 -0.0464 -0.2627
30065W        W46199  14.008  18.936   1.822  0.0922  0.4891  0.0659
30066W        W46200  14.207   7.626   3.852  0.1894  0.2123 -0.1426
30067W        W46201   2.312  13.694  12.406  0.2704 -0.0148 -0.0800
30068W        W46202  10.035  17.186   0.360 -0.0365 -0.0298  0.1074
30069W        W46203   8.923   6.239   4.750  0.0858 -0.0068  0.2013
30070W        W46204  18.477   8.554  12.048 -0.3381 -0.0621  0.1773
30071W        W46205  18.786  18.692   0.215  0.0361 -0.1054  0.1248
30072W        W46206   4.022  18.722  10.263 -0.2252 -0.1229  0.1386
30073W        W46207  18.780  14.092   2.141 -0.0082  0.0549  0.1876
30074W        W46208  13.635  14.840  14.329 -0.4807  0.2431 -0.0658
30075W        W46209   7.963   7.080   2.176  0.1221  0.0577  0.2836
30076W        W46210  17.160  17.907  13.102  0.3401  0.0298  0.1611
30077W        W46211  15.325  12.088  11.127 -0.3033  0.2255  0.0943
30078W        W46212  16.348  13.396  13.528  0.5755  0.1125  0.1934
30079W        W46213  14.921  19.122  13.558  0.1888 -0.1006  0.0543
30080W        W46214   3.528  15.855  13.279 -0.2755 -0.1538  0.3114
30081W        W46215  11.115  11.387   2.281 -0.2781  0.0243 -0.2759
30082W        W46216  15.926   8.014  13.797  0.1918  0.3763 -0.4288
30083W        W46217   7.552   3.729   4.081  0.0006 -0.0273  0.2192
30084W        W46218   5.804  12.348   2.383  0.1675 -0.0197 -0.1782
30085W        W46219  17.700   6.958   1.608  0.0098 -0.1382 -0.1350
30086W        W46220   9.723   8.513   2.768  0.5217  0.1470 -0.0426
30087W        W46221   1.877  18.936   2.793 -0.5250 -0.2349 -0.1595
30088W        W46222  11.270   0.018  14.444 -0.1224 -0.0679 -0.0638
30089W        W46223   7.227  18.471   0.817 -0.0976 -0.0041 -0.0636
30090W        W46224   0.436  16.958   2.040 -0.5373  0.1348 -0.0735
30091W        W46225   2.675   7.179   4.170  0.0804  0.3764  0.1079
30092W        W46226  13.714   7.101   9.623  0.0115 -0.0441 -0.1745
30093W        W46227  19.327   2.937   3.422 -0.1313 -0.3333  0.0481
30094W        W46228   7.999  18.646  14.365 -0.0418  0.2002 -0.0365
30095W        W46229   0.896  13.712   2.060  0.0833 -0.0931 -0.1612
30096W        W46230   4.002  12.187  13.179  0.5595  0.0437  0.0189
30097W        W46231  16.851   5.962   1.116 -0.0479 -0.1907 -0.0055
30098W        W46232  12.951   2.011  11.767 -0.0284  0.0965  0.1020
30099W        W46233   4.036  15.797  11.289  0.1643  0.1122 -0.1839
30100W        W46234  13.237   6.459  13.387  0.1340  0.2386  0.1585
30101W        W46235  15.854   3.945   1.751  0.0110  0.0505 -0.1424
30102W        W46236   7.189  19.175  12.565 -0.2251  0.3328  0.1527
30103W        W46237   9.222  19.095  11.279  0.2252 -0.0857  0.0609
30104W        W46238  19.033  17.561  14.317 -0.2287  0.1979  0.1781
30105W        W46239  14.422  11.597  11.306 -0.0688 -0.2803 -0.3884
30106W        W46240   1.452  18.403   0.494 -0.1746 -0.0780  0.0207
30107W        W46241  14.220  14.436   2.084 -0.0771  0.2087  0.0763
30108W        W46242  18.413  17.401  14.022  0.1791 -0.0949 -0.2831
30109W        W46243  14.964  16.357  12.961  0.0575 -0.0635  0.1924
30110W        W46244   7.594   6.864   2.413 -0.4499 -0.0437 -0.1729
30111W        W46245   6.344  16.302   3.566 -0.2442 -0.0239 -0.2039
30112W        W46246   0.702  17.037   5.450 -0.1591 -0.0860 -0.0598
30113W        W46247  14.678   3.415   4.748 -0.1767 -0.1504 -0.1234
30114W        W46248   2.695   4.033  11.949 -0.0620 -0.2954 -0.0098
30115W        W46249  11.172   3.943   1.419  0.1250 -0.0009 -0.1434
30116W        W46250   5.401   8.235   3.265  0.0738  0.0670 -0.0246
30117W        W46251  14.190   2.507  11.014 -0.1588  0.0508 -0.2269
30118W        W46252  18.600  16.873   2.556 -0.0393  0.1755 -0.1001
30119W        W46253   9.588   4.034  13.266 -0.2177 -0.0595  0.0710
30120W        W46254  10.100  14.209  13.558  0.1323 -0.1598 -0.0237
30121W        W46255   2.560  11.372   3.340  0.2212  0.4741 -0.1744
30122W        W46256   2.373   7.460   3.878  0.0307 -0.0802 -0.0140
30123W        W46257   5.601  14.275  11.740 -0.2517 -0.0222 -0.1590
30124W        W46258  12.027  16.531  12.729  0.2780  0.2110  0.1734
30125W        W46259   5.953   8.696   2.639 -0.0953  0.0684 -0.1318
30126W        W46260   0.336   0.975  12.780  0.1508 -0.0276  0.0761
30127W        W46261  16.033   3.123   2.503 -0.1508  0.2428 -0.0005
30128W        W46262   0.118  16.225   2.540  0.3134 -0.0669  0.3835
30129W        W46263  10.304   3.063  13.383 -0.1930 -0.2366 -0.0316
30130W        W46264  13.805   4.167   4.373  0.0487  0.2071  0.0267
30131W        W46265  12.948  16.837  12.560  0.1992 -0.0023  0.2208
30132W        W46266   4.785  18.603  10.690  0.4247  0.0009  0.3341
30133W        W46267   4.513   4.574   2.541 -0.0564 -0.1642  0.2671
30134W        W46268  17.001   2.356   2.074 -0.0105  0.2108 -0.1450
30135W        W46269   1.641  11.415   2.764 -0.0021 -0.1096 -0.0004
30136W        W46270  17.615  16.005  13.774 -0.1099  0.0021  0.0520
30137W        W46271   1.839  15.020  14.750 -0.3123 -0.1794 -0.3570
30138W        W46272   1.809  15.002   9.410 -0.1749  0.1845  0.1528
30139W        W46273  10.050   9.391  14.546  0.2684 -0.1813 -0.0478
30140W        W46274   4.785   2.522  13.402 -0.2932 -0.2648  0.1379
30141W        W46275   5.773  18.418  12.475 -0.3597 -0.1349  0.1884
30142W        W46276   8.250   5.192   4.133 -0.1196 -0.0266 -0.0082
30143W        W46277  16.063   4.031  13.273  0.0991 -0.2392 -0.0355
30144W        W46278  16.354  17.148  13.013 -0.2533  0.0302 -0.1223
30145W        W46279   2.181   1.381  11.618  0.0274 -0.0620 -0.5205
30146W        W46280   6.539  16.617   4.231 -0.3699 -0.0557 -0.1770
30147W        W46281  14.617  10.503  14.148 -0.1455 -0.0840 -0.0874
30148W        W46282  10.279   3.516   3.569  0.2809  0.4001  0.0348
30149W        W46283   8.681   3.196   1.073  0.0504  0.1996 -0.3878
30150W        W46284  18.913  17.570  14.880  0.0762  0.3347 -0.3217
30151W        W46285  13.513  12.351   1.581 -0.0400 -0.1850 -0.2234
30152W        W46286  18.916  17.878  12.546 -0.0210 -0.1247 -0.1868
30153W        W46287   7.490   7.643  11.331  0.0872  0.0038  0.1692
30154W        W46288  17.772  18.927  12.696 -0.2196  0.0798  0.2257
30155W        W46289   6.128  13.056  14.941  0.0153 -0.1041 -0.3499
30156W        W46290   7.672   3.363  13.258  0.4296  0.2619 -0.4250
30157W        W46291  15.270   1.008   3.600 -0.0519  0.0838  0.0011
30158W        W46292  18.484  15.708  13.927  0.0015 -0.1929 -0.1177
30159W        W46293   4.145   9.481  12.475  0.3939  0.5025 -0.0768
30160W        W46294   7.106  19.188   4.750  0.1488  0.0426 -0.1967
30161W        W46295   6.693   6.127  11.605  0.1401  0.2800 -0.2935
30162W        W46296  10.665   1.603  14.050  0.3286 -0.2881 -0.0813
30163W        W46297  19.292   7.213   1.024  0.0501  0.0395  0.1155
30164W        W46298  10.299   6.184  13.883  0.0938 -0.0702 -0.4106
30165W        W46299   1.784   2.661  11.135  0.0411  0.2768  0.0657
30166W        W46300  18.829  10.351   9.365  0.1681 -0.1928 -0.1244
30167W        W46301  15.999   5.153   3.514 -0.0502 -0.0061 -0.0736
30168W        W46302  17.745   8.482   2.612  0.0349  0.0375  0.4319
30169W        W46303  13.406  13.424   3.585  0.2216 -0.0650  0.0020
30170W        W46304   8.152   5.068   2.491  0.0355 -0.0893  0.1838
30171W        W46305   3.778   6.366  14.544 -0.1885  0.0626  0.0079
30172W        W46306   8.384   4.056  11.972 -0.0154  0.2548  0.2939
30173W        W46307   1.882   9.430   0.444  0.2531 -0.2551  0.4135
30174W        W46308   1.448   3.028  10.954 -0.0543  0.0087 -0.1099
30175W        W46309  18.713   1.117  10.353 -0.2808  0.1279  0.3377
30176W        W46310  17.751  19.148   4.278  0.0867  0.0727  0.4095
30177W        W46311   4.148   2.079   0.532  0.0662 -0.0633  0.1676
30178W        W46312  10.599   5.186  13.275  0.2255 -0.0269 -0.0644
30179W        W46313  16.550   7.936  10.944  0.1037  0.1493 -0.0515
30180W        W46314  15.219   2.255   0.038 -0.0982 -0.2138  0.1412
30181W        W46315  17.951  15.823  13.447  0.0361 -0.0665  0.1506
30182W        W46316  11.648  18.267   0.168  0.1208  0.2726 -0.0241
30183W        W46317   6.603  12.898   0.127  0.1216 -0.5180 -0.1627
30184W        W46318  12.084   0.050   0.985 -0.0994  0.0513 -0.0985
30185W        W46319  16.541  16.056   4.624  0.4197  0.0965 -0.0732
30186W        W46320  12.041   1.917   1.672  0.0153  0.2057 -0.2488
30187W        W46321  14.623   9.487   4.044  0.0902 -0.3789 -0.3994
30188W        W46322  11.420   8.961   0.155 -0.0605  0.1321  0.0318
30189W        W46323   7.618  10.712   5.863  0.1021  0.4108 -0.4816
30190W        W46324  15.408  10.881  10.751  0.3788  0.3530 -0.1609
30191W        W46325  17.564   1.782   3.102 -0.1445 -0.3723  0.1807
30192W        W46326   0.936  19.224  10.994 -0.2356  0.1744 -0.3064
30193W        W46327   7.273   5.304   2.117 -0.2457 -0.5971  0.0256
30194W        W46328   5.876   9.741   3.839  0.3993  0.2433  0.2506
30195W        W46329  15.451   5.475  12.064  0.0380  0.2244  0.1740
30196W        W46330  10.286   5.654  11.494 -0.0626 -0.0060  0.2904
30197W        W46331  11.898  12.622  14.648 -0.1750  0.6005 -0.0127
30198W        W46332   7.411  10.169   0.925  0.0491 -0.4626 -0.0925
30199W        W46333   2.713   3.306  10.134  0.2153 -0.0865 -0.0192
30200W        W46334  12.913   5.864   4.724 -0.0215  0.0382 -0.1248
30201W        W46335  13.303   9.267  11.144 -0.3708  0.0246 -0.0129
30202W        W46336  14.749  13.936   4.935  0.2148 -0.1261  0.1486
30203W        W46337  17.122  10.471   8.982  0.1194 -0.1403  0.2866
30204W        W46338   4.975  10.990  10.027  0.4986  0.2911  0.0717
30205W        W46339   6.797   2.092   1.247  0.1404  0.0557 -0.1781
30206W        W46340   8.995   8.829  14.289  0.0022 -0.0438  0.2569
30207W        W46341  16.838   9.040  14.327  0.2496  0.1343 -0.1157
30208W        W46342   9.607   5.594  14.162  0.2265  0.2847 -0.0527
30209W        W46343  12.043   9.159  14.721  0.1842 -0.1150  0.0277
30210W        W46344  15.666   8.708   1.103 -0.0370 -0.0075  0.1269
30211W        W46345   6.971   5.703   5.534  0.0425 -0.0897 -0.2305
30212W        W46346   4.508  15.123  12.852 -0.1319  0.1437  0.0430
30213W        W46347   9.683   0.242  14.410  0.0734  0.1866  0.0346
30214W        W46348   6.538  11.846  11.731  0.3571 -0.0078 -0.0277
30215W        W46349  12.640  15.760  12.550  0.1799 -0.3111  0.0074
30216W        W46350  18.857  13.798   4.377  0.2870 -0.1397 -0.1453
30217W        W46351   0.523   8.542  10.587 -0.0518  0.2251  0.1351
30218W        W46352   8.447  14.116   9.755  0.0248  0.1045  0.1018
30219W        W46353  14.494  18.329  11.271 -0.1793 -0.2286  0.0962
30220W        W46354   4.122   1.991  12.062  0.2184 -0.0719  0.1428
30221W        W46355   2.489  17.364   2.085  0.0217  0.0675  0.2187
30222W        W46356   4.489  11.475   2.008  0.0933  0.1720 -0.0869
30223W        W46357  18.033  17.874  11.811 -0.3459 -0.2788  0.0713
30224W        W46358   7.894   4.706   2.722  0.2105  0.2174  0.1808
30225W        W46359   2.190   5.291  11.263  0.1417  0.0859  0.1694
30226W        W46360   4.051   4.353   2.518 -0.4793  0.2845  0.1348
30227W        W46361   9.662   9.578   4.011  0.0593 -0.1345  0.4011
30228W        W46362   1.263   6.478  10.621 -0.0248  0.3090  0.4892
30229W        W46363  17.993  18.512  13.372  0.1909 -0.5150  0.0194
30230W        W46364   0.766  17.612  12.081 -0.2204  0.3599 -0.0467
30231W        W46365  11.587  19.131   1.195 -0.1318 -0.0439 -0.0048
30232W        W46366   7.806   1.529   0.495 -0.0514 -0.0399 -0.0178
30233W        W46367   2.117   0.794   2.485  0.1469 -0.3617 -0.0167
30234W        W46368   7.213  12.755   4.736  0.2076 -0.2589 -0.3989
30235W        W46369  17.415   8.744  11.466  0.0915 -0.1777  0.1180
30236W        W46370   2.152  18.172  14.868 -0.0125  0.2719 -0.2241
30237W        W46371   7.483   1.162  10.664  0.4422 -0.1801  0.1067
30238W        W46372  15.832  10.771  11.577  0.2532  0.0268  0.0859
30239W        W46373  12.957   6.441  12.747 -0.1472 -0.0473 -0.2518
30240W        W46374   9.850   9.021  10.894  0.1154 -0.3382 -0.0068
30241W        W46375  11.246  18.368   1.662  0.0136  0.0613  0.3165
30242W        W46376   2.482   0.509  11.499  0.0384 -0.2670  0.0964
30243W        W46377  17.585  14.198   4.574  0.1362  0.2680  0.2294
30244W        W46378   2.294   2.443   4.297 -0.2447  0.1896  0.0429
30245W        W46379  10.995   5.685  14.083  0.5285  0.1267  0.2189
30246W        W46380   9.238  18.429  11.919  0.0594 -0.1091 -0.2501
30247W        W46381  16.667   1.535  11.789 -0.0442  0.1428  0.3780
30248W        W46382   8.372  11.564   4.478  0.1681 -0.1308 -0.2192
30249W        W46383  18.057  15.945   0.974 -0.3214 -0.0403 -0.1051
30250W        W46384  17.683  10.090  11.282  0.1125  0.3210  0.2174
30251W        W46385   4.311  17.487   4.068  0.2993  0.1205 -0.1539
30252W        W46386  18.013   1.976  11.643  0.2393 -0.1919 -0.0260
30253W        W46387  14.786   3.570   2.101 -0.3387  0.0334  0.0020
30254W        W46388   8.117   7.123   9.564 -0.0883 -0.1540  0.1560
30255W        W46389  18.955  19.052  11.324  0.1226  0.1963  0.0278
30256W        W46390   7.176  14.714   3.241  0.2642  0.4420 -0.0265
30257W        W46391   6.117  10.841  11.988 -0.1499  0.1168  0.0728
30258W        W46392   2.177   8.110   1.539  0.0382  0.1341 -0.0188
30259W        W46393   8.528   2.481   5.397 -0.1076  0.3988 -0.0637
30260W        W46394   5.696  16.477   4.315 -0.4310  0.3146 -0.3163
30261W        W46395   3.234   2.502   2.482  0.0180  0.1685  0.0074
30262W        W46396   7.400   1.317   1.516  0.2556 -0.1415  0.2524
30263W        W46397  19.267  14.268  14.716  0.1482  0.0779  0.1369
30264W        W46398   1.947   9.532  11.735 -0.3160 -0.1800 -0.0035
30265W        W46399  16.167  18.055  13.198  0.4056  0.1436  0.1199
30266W        W46400  14.001   6.826  10.926  0.1575  0.2132  0.2235
30267W        W46401  10.040   6.812   9.208 -0.0893 -0.2573  0.1157
30268W        W46402   4.321  18.953  10.690 -0.3369 -0.0797  0.0198
30269W        W46403  16.958   8.719  11.252  0.1872 -0.4079 -0.3504
30270W        W46404  18.946   6.656   3.113 -0.0738  0.1738 -0.1829
30271W        W46405   1.657  18.084  12.422 -0.1595 -0.2381  0.0988
30272W        W46406   8.398   1.351   3.520 -0.0685 -0.0585  0.1044
30273W        W46407   6.236   3.198   5.095 -0.0698  0.2898  0.1630
30274W        W46408  14.631   7.368  12.973  0.2799  0.3152  0.1283
30275W        W46409   8.836   2.271   3.299  0.1881  0.1882  0.0689
30276W        W46410  15.327   0.440  12.813  0.0151 -0.3313 -0.1432
30277W        W46411  17.902   8.018   2.079 -0.1448  0.0536 -0.3115
30278W        W46412   7.673  18.803   0.028 -0.0646  0.0788  0.3517
30279W        W46413   5.389  15.741   4.667 -0.1678 -0.2932  0.0967
30280W        W46414  14.222  12.358   5.448  0.1546  0.3970  0.0048
30281W        W46415   2.378   9.982   1.387 -0.3970  0.1155  0.0083
30282W        W46416  16.367  19.179   5.575 -0.1083 -0.1734 -0.0533
30283W        W46417  17.788   4.257  14.078  0.1169 -0.0370 -0.0626
30284W        W46418  11.329   8.707   3.472 -0.1743 -0.3390 -0.2109
30285W        W46419   8.800  14.010  11.916  0.0995  0.1019  0.1147
30286W        W46420  13.942   4.017  12.256  0.1532  0.1259 -0.0058
30287W        W46421  18.024  16.404  14.717  0.0338  0.3221  0.1680
30288W        W46422  14.697  14.309  13.393 -0.0766  0.2055 -0.0638
30289W        W46423   1.073  15.990  13.304  0.2067 -0.0667  0.3878
30290W        W46424  16.116  10.227   2.458  0.0415 -0.2713  0.0573
30291W        W46425   3.142   0.645   2.540 -0.3456  0.1026 -0.3718
30292W        W46426  10.343   2.983   2.080 -0.0309 -0.1241  0.2539
30293W        W46427  19.071   3.487   3.674  0.1586  0.2155  0.2720
30294W        W46428  14.587  18.006   2.918  0.0062  0.0443 -0.2619
30295W        W46429   0.129  15.782   1.719  0.2323 -0.2091  0.0617
30296W        W46430  13.471  13.882   1.346  0.1280 -0.3116  0.2734
30297W        W46431   2.808   1.456   1.623 -0.4640 -0.5682 -0.3504
30298W        W46432   2.035  14.445  13.623  0.2320 -0.2576 -0.1153
30299W        W46433   5.370  11.026  10.862 -0.3664  0.1476 -0.0951
30300W        W46434  17.863   1.082  11.106  0.3363  0.0993  0.2074
30301W        W46435  18.625  10.984  13.834  0.0913 -0.0377  0.0792
30302W        W46436   0.201   6.459   0.437  0.1656 -0.1809  0.0567
30303W        W46437  10.661   7.987   1.096 -0.2372  0.3672 -0.0509
30304W        W46438   5.411   8.270  11.205  0.4247 -0.1130  0.2160
30305W        W46439   3.849  16.177   0.441  0.1856 -0.0103 -0.0550
30306W        W46440  13.069  17.897  12.250 -0.0874 -0.1509 -0.0062
30307W        W46441   9.114   9.255   1.339 -0.3456 -0.0635 -0.1098
30308W        W46442  12.846   1.573  11.964 -0.0907  0.1325  0.1166
30309W        W46443  14.216   1.860   1.343  0.3729  0.1872 -0.1815
30310W        W46444   7.432   6.665  11.331  0.0657  0.3033 -0.4624
30311W        W46445  18.049  14.178   1.415 -0.0543  0.0741  0.0695
30312W        W46446   1.956  14.229   1.145  0.2247  0.0831  0.0267
30313W        W46447  10.466  16.873   2.264 -0.2972 -0.2162 -0.0852
30314W        W46448   6.318   5.114   5.601 -0.0386  0.0216  0.2861
30315W        W46449  10.334  14.874   0.814  0.2677 -0.4595 -0.1096
30316W        W46450  17.778   1.013   0.195  0.3010  0.3293  0.2007
30317W        W46451   8.193   4.462   0.592  0.1531  0.3681  0.6726
30318W        W46452  13.007  15.499   5.447  0.3888  0.0345  0.2486
30319W        W46453  13.186   4.417  11.539  0.3010 -0.0420 -0.1171
30320W        W46454  14.899   0.731   0.354  0.1476 -0.0683  0.1908
30321W        W46455   8.533   1.271  11.580 -0.0699  0.0813 -0.0187
30322W        W46456   1.403   7.403  11.041 -0.1605 -0.0443 -0.3517
30323W        W46457   3.270   4.482   2.618 -0.1055 -0.3387 -0.0788
30324W        W46458  18.339   8.937  13.861 -0.1007 -0.1490 -0.0984
30325W        W46459   4.738   4.609   9.476 -0.0629 -0.0890 -0.2054
30326W        W46460  15.960   3.418  14.331  0.0626  0.1312  0.1009
30327W        W46461  17.063  10.089  12.025  0.1793  0.2465 -0.1025
30328W        W46462   5.198   9.354  12.331  0.0021  0.0336  0.1541
30329W        W46463   7.805  12.672   0.420  0.2243 -0.0086  0.3273
30330W        W46464  15.611  12.380  13.985 -0.0012 -0.3635 -0.3253
30331W        W46465  18.512   3.634   2.764  0.3849  0.3552  0.0661
30332W        W46466  11.572   4.983   2.936  0.0670  0.0471 -0.3750
30333W        W46467   5.362  18.984   4.993  0.0744  0.3619 -0.1235
30334W        W46468  16.220  13.360   5.270 -0.0571 -0.2513  0.1289
30335W        W46469   6.177  15.179   2.618 -0.1518  0.0535  0.0847
30336W        W46470  12.788   5.618   2.548 -0.0427 -0.0935  0.1069
30337W        W46471  10.278  13.335   1.039  0.1375  0.0880 -0.1732
30338W        W46472   7.279   1.381  13.148  0.0199  0.0455 -0.1175
30339W        W46473  10.238  13.847  12.765  0.6366  0.5714  0.3046
30340W        W46474  16.072  17.752   3.000 -0.0320 -0.3566  0.0054
30341W        W46475   9.183  17.755   4.415 -0.0348 -0.2204  0.1829
30342W        W46476   0.679   6.457  14.695 -0.1935 -0.0707  0.1368
30343W        W46477  12.430   0.345  12.031 -0.2076  0.2349  0.1414
30344W        W46478   2.398  19.003  13.851  0.0511  0.2814  0.1074
30345W        W46479   5.844   3.279  14.046 -0.1448 -0.1324  0.1129
30346W        W46480  11.918  13.284  14.253 -0.3078  0.1588  0.4719
30347W        W46481  13.906  11.479  11.159 -0.1418 -0.0061 -0.1386
30348W        W46482   6.843   0.134   5.295  0.1389 -0.1444 -0.4047
30349W        W46483  10.576  16.573   1.179 -0.2184 -0.1647 -0.0759
30350W        W46484   5.755   7.682  14.450  0.0968 -0.0696  0.1814
30351W        W46485  14.590  12.906  12.848 -0.0937  0.1798  0.4697
30352W        W46486  15.656  12.839  14.571 -0.0988  0.0434 -0.1099
30353W        W46487  16.916   1.069  11.826  0.1676  0.0312  0.0141
30354W        W46488   5.276  19.324   0.126  0.2660 -0.0577 -0.0541
30355W        W46489   7.563   1.111   9.484  0.2721  0.0045  0.0358
30356W        W46490  17.638  15.284  13.680  0.1163  0.1569  0.2649
30357W        W46491  16.432   1.957  11.591 -0.1656 -0.1141 -0.1003
30358W        W46492  15.782   9.584   5.145  0.2999 -0.0855  0.1369
30359W        W46493   8.173  14.795   1.667  0.1165  0.2690  0.3012
30360W        W46494   7.441  17.066   2.919 -0.3019  0.0062  0.1656
30361W        W46495   3.991  10.242  14.075 -0.3598  0.0466  0.1655
30362W        W46496  12.664   1.558   3.462 -0.0686  0.0688 -0.3530
30363W        W46497   4.864   2.968   1.386  0.1245  0.3726 -0.0269
30364W        W46498   1.105   6.676  12.555  0.3408  0.2867  0.0950
30365W        W46499  14.120  18.788  11.277 -0.2633 -0.1356 -0.1073
30366W        W46500   1.313   5.035   5.348  0.0021  0.2548  0.0120
30367W        W46501  13.426  14.220  12.573 -0.0083  0.0966 -0.1263
30368W        W46502  13.817  17.210   1.155 -0.0844  0.2070 -0.3478
30369W        W46503  14.894  14.148  12.074  0.0537  0.0808  0.0340
30370W        W46504  14.855  15.416  12.966  0.0745 -0.1059 -0.2602
30371W        W46505  12.564  17.841   0.401 -0.0193 -0.1461  0.1722
30372W        W46506  12.522   9.070  12.861 -0.1038 -0.0137  0.3652
30373W        W46507  17.917  12.279   2.407 -0.0353  0.2779  0.1639
30374W        W46508   9.064  12.650   3.912 -0.2263 -0.0483 -0.4161
30375W        W46509  15.205  11.988   4.116  0.1856  0.1497 -0.0829
30376W        W46510  13.644  11.505   1.946  0.0145 -0.1157 -0.0855
30377W        W46511   6.191   4.174   2.984  0.1240 -0.0482  0.3043
30378W        W46512   4.446  10.482   5.359  0.0555  0.0635  0.0768
30379W        W46513   7.312  12.420   5.287  0.3849  0.0427  0.3896
30380W        W46514  19.296   1.598  14.015 -0.0084  0.0338  0.1046
30381W        W46515   6.258   2.788   4.316 -0.1488 -0.0150  0.3541
30382W        W46516  10.289  17.485  13.516  0.0649 -0.0491  0.0603
30383W        W46517   6.560   2.377  10.506  0.0919 -0.0331 -0.0777
30384W        W46518   6.212  13.427   0.314  0.0065 -0.4005 -0.2791
30385W        W46519   9.686  12.543   4.713 -0.2100  0.3113  0.2125
30386W        W46520   4.150  12.695  11.960 -0.1888 -0.3901 -0.3324
30387W        W46521  10.109   6.366   3.984  0.1463  0.1882  0.4148
30388W        W46522  16.866  12.434  12.605 -0.3133 -0.1597  0.3842
30389W        W46523  15.981   8.490   1.943  0.1636 -0.2576 -0.2155
30390W        W46524   5.722  18.460  13.209 -0.1031 -0.0940  0.1254
30391W        W46525  10.470  14.540   4.366  0.0886  0.2935 -0.0157
30392W        W46526   7.167   5.315  13.163 -0.1353  0.3143 -0.1839
30393W        W46527  12.553  16.642   5.222  0.2013 -0.0457 -0.0988
30394W        W46528   3.436  13.026   4.983  0.3578 -0.1097 -0.0867
30395W        W46529   6.388   1.488   4.159 -0.0768 -0.0302  0.2666
30396W        W46530  10.986   6.022   1.376  0.2408  0.0988  0.1866
30397W        W46531  10.600   0.389  13.372  0.0480  0.0821  0.4052
30398W        W46532   0.335  18.747   0.235  0.0379  0.0806  0.1150
30399W        W46533  15.875   0.668  10.312  0.3192  0.2814  0.1362
30400W        W46534   7.186   5.541   2.876 -0.2220  0.1105  0.1210
30401W        W46535  17.124   9.478   2.210 -0.2044 -0.0476 -0.1156
30402W        W46536   3.113   6.235   2.277  0.3473 -0.1644 -0.0396
30403W        W46537  15.804  18.468   0.286  0.0295  0.3351  0.2603
30404W        W46538  15.536  16.854   5.178 -0.0677 -0.2412 -0.2042
30405W        W46539  16.114  12.178   2.302  0.1599 -0.0815  0.1442
30406W        W46540   8.039  17.191  13.271 -0.0776  0.0465  0.1619
30407W        W46541  12.855   6.261   4.958  0.2224  0.2929  0.3425
30408W        W46542  15.496   7.999   5.612 -0.0427 -0.0576 -0.0417
30409W        W46543   1.067  13.621   9.460 -0.1105  0.0625  0.1149
30410W        W46544  13.323  13.479  11.687  0.0424  0.3234 -0.0358
30411W        W46545  15.229   8.182   3.763 -0.1358 -0.0740  0.4804
30412W        W46546  16.908  12.961  13.998 -0.0130 -0.0063  0.0370
30413W        W46547   4.039  14.038  13.375  0.3193 -0.0214  0.1472
30414W        W46548   7.551  10.241   3.948  0.1096  0.1965  0.0372
30415W        W46549  11.511  17.314   1.518  0.0214 -0.1746 -0.1478
30416W        W46550  14.179  13.874  10.245 -0.0109  0.1746 -0.1730
30417W        W46551  19.337   0.576   0.098 -0.0610 -0.2141 -0.2731
30418W        W46552   2.115   8.122  10.613  0.0964 -0.2609  0.0521
30419W        W46553   5.084  19.327   2.493  0.1885  0.4571  0.0416
30420W        W46554   9.865  12.528  13.368 -0.0803 -0.2446  0.0826
30421W        W46555  15.818  16.387  14.606  0.1634 -0.2620 -0.1027
30422W        W46556  13.221   4.110   0.741 -0.1719 -0.2127  0.2545
30423W        W46557  16.119  16.606   4.289  0.0903  0.0411 -0.0630
30424W        W46558   5.524   3.465   2.638  0.0520  0.1458  0.1978
30425W        W46559   8.051   2.108   0.088 -0.0492 -0.2038 -0.0144
30426W        W46560   0.439  12.562   4.318  0.1062  0.2674 -0.1903
30427W        W46561   9.390   2.893   1.659  0.1125  0.0833  0.0080
30428W        W46562   8.833  13.790   0.695 -0.0537 -0.0306 -0.0997
30429W        W46563  10.274   6.846   9.867 -0.0420 -0.0502  0.0233
30430W        W46564  16.343  11.129  14.183  0.2249  0.0790  0.2006
30431W        W46565  19.141  14.117  10.241  0.2095  0.1926  0.1133
30432W        W46566   2.806  15.352   9.951  0.1859  0.3890  0.2563
30433W        W46567  14.440  13.490   4.124  0.1830 -0.1235  0.0538
30434W        W46568   5.389   6.963   3.351 -0.1448  0.0574  0.0979
30435W        W46569   9.340  15.333  14.898 -0.0567 -0.0911  0.3459
30436W        W46570   6.173  18.907   1.049 -0.3896  0.1601  0.0734
30437W        W46571   9.495   4.172   4.868  0.0881  0.2725 -0.1607
30438W        W46572   0.774   7.309  13.726  0.1023  0.1715 -0.3265
30439W        W46573   4.106  17.271   5.791  0.0500 -0.0289  0.3807
30440W        W46574  11.808  16.143  12.506 -0.3506 -0.1326 -0.0860
30441W        W46575  10.547  12.108  12.910  0.2384  0.4480 -0.0471
30442W        W46576   2.909  18.052  11.530  0.0180  0.1157  0.2297
30443W        W46577   7.679   0.334  14.001  0.0723  0.1765  0.2395
30444W        W46578   7.887   1.727  11.834  0.0710 -0.2182  0.1291
30445W        W46579  16.864   5.625  13.238 -0.4148  0.1849 -0.2159
30446W        W46580   2.695  12.932   3.259 -0.2359 -0.1749 -0.1158
30447W        W46581  15.444  19.320   0.227 -0.5393 -0.1570 -0.4425
30448W        W46582  11.135   8.188   3.521 -0.2292 -0.2199 -0.0308
30449W        W46583  11.122   4.362   4.007  0.2000 -0.3835  0.0509
30450W        W46584  14.421   9.766  13.565 -0.0288 -0.2229  0.2022
30451W        W46585  16.532  16.707   1.953 -0.0566  0.2764  0.1804
30452W        W46586  14.937   3.775  12.434  0.3606  0.0354  0.3620
30453W        W46587   2.927  10.085  10.428 -0.2087  0.2388  0.1195
30454W        W46588   3.356   1.248  10.071 -0.0448  0.0563 -0.1042
30455W        W46589   4.825   0.525  11.335 -0.2499  0.3440  0.1335
30456W        W46590   8.354  12.373  14.475  0.0490  0.1409  0.0186
30457W        W46591   4.882   8.778  13.761  0.1803  0.3207 -0.3505
30458W        W46592   6.857   3.810   3.357  0.0983 -0.1352 -0.2044
30459W        W46593   2.732   9.027  10.625 -0.2177  0.0380 -0.0025
30460W        W46594   3.099  10.035   4.812  0.2216 -0.1823 -0.1276
30461W        W46595  16.025  13.594   0.252 -0.2484 -0.2016 -0.0929
30462W        W46596  11.517  11.395   3.159  0.3089  0.1371 -0.0278
30463W        W46597   1.245  11.054  12.757 -0.0814  0.3001 -0.0182
30464W        W46598   0.603   9.704   3.395  0.3583 -0.1421 -0.2367
30465W        W46599   2.036   5.215   2.300 -0.2015  0.0488 -0.1579
30466W        W46600  14.155   5.585   3.778  0.1708  0.2720 -0.0458
30467W        W46601   5.814   8.690  13.348 -0.2277  0.0300  0.2043
30468W        W46602  17.279   5.537   2.400 -0.3916 -0.2583 -0.0833
30469W        W46603  10.845  16.545  14.268 -0.1653 -0.1226 -0.0942
30470W        W46604   0.339  15.234  10.997  0.0674 -0.1064 -0.0810
30471W        W46605  18.989  13.403  12.490  0.2189 -0.1982 -0.3746
30472W        W46606   0.508  14.450   0.946 -0.0168  0.0097 -0.4566
30473W        W46607   5.184   3.431   3.792  0.3723 -0.0846 -0.0791
30474W        W46608  18.030   9.583  14.853  0.3120 -0.1883  0.1528
30475W        W46609  10.554   5.354  11.848  0.0100 -0.2434  0.0775
30476W        W46610   7.404  10.029   1.440  0.0707  0.2898  0.0165
30477W        W46611   9.011   9.597  10.083  0.0369  0.3933 -0.2961
30478W        W46612  16.285  17.808  12.783  0.0244 -0.1496 -0.0759
30479W        W46613  15.145  18.921  14.606 -0.0271 -0.0007  0.1852
30480W        W46614  15.920  13.868   3.403  0.0327 -0.1509  0.0372
30481W        W46615   2.144  14.323   4.340 -0.3573  0.0074  0.0291
30482W        W46616  18.200   0.176  10.931  0.0495  0.0752 -0.2030
30483W        W46617  14.520   8.300  10.815  0.2590  0.2152 -0.0970
30484W        W46618   6.421   4.149  13.503  0.0137 -0.0739 -0.3080
30485W        W46619  18.580  11.822  11.039  0.1317  0.1300  0.2331
30486W        W46620  10.109   3.173   2.923  0.1043 -0.2946 -0.1569
30487W        W46621   8.657  11.946  12.521 -0.1341  0.1666  0.0621
30488W        W46622  15.969  13.314  10.940  0.0910 -0.0395 -0.2156
30489W        W46623   7.993   1.142   3.181 -0.4144  0.0699  0.2177
30490W        W46624   0.190   5.879   0.342 -0.0610  0.2176 -0.1946
30491W        W46625  16.825  16.256  12.816 -0.0950  0.2431  0.1781
30492W        W46626   9.181  13.798   2.004  0.0552  0.1788 -0.0057
30493W        W46627   0.566   4.670   2.702  0.1753  0.0571 -0.0279
30494W        W46628  10.638   9.023   3.211  0.0479  0.2026  0.2436
30495W        W46629   0.099  19.209  13.575 -0.0411  0.2147 -0.2104
30496W        W46630   9.469   2.180  13.318 -0.1463  0.2788 -0.5051
30497W        W46631  13.010  11.346  10.677 -0.2773 -0.2197 -0.3531
30498W        W46632  17.058   9.809  11.046 -0.0479 -0.1985  0.1155
30499W        W46633   6.565   4.550  14.706 -0.2138 -0.2465 -0.1819
30500W        W46634  18.263   5.101  14.517 -0.0907  0.1381  0.0446
30501W        W46635   7.553  10.941  10.030 -0.0766  0.0811  0.0120
30502W        W46636   0.990   2.607  13.059  0.0057 -0.1666  0.0487
30503W        W46637  12.873  15.866  11.259 -0.1871  0.0181 -0.1736
30504W        W46638   9.066   4.321   0.657  0.1919 -0.1443 -0.1106
30505W        W46639  18.011   1.316   4.036  0.0931  0.1076  0.2978
30506W        W46640  10.540   3.148   1.286  0.1294  0.2066 -0.0790
30507W        W46641  10.960  18.801   2.871 -0.4004 -0.2634  0.1154
30508W        W46642  16.299   3.468   4.000  0.0652  0.1570  0.1372
30509W        W46643  12.438   5.977   4.993 -0.0864 -0.0275  0.0791
30510W        W46644   3.898   5.109  11.055 -0.0640 -0.2429  0.1758
30511W        W46645  14.658  13.460   9.521  0.0454 -0.2106 -0.0216
30512W        W46646   0.359  11.033  11.300 -0.4484 -0.1437  0.0856
30513W        W46647  11.767  12.202   4.361  0.1533 -0.2842  0.1134
30514W        W46648  16.231  17.914   3.944 -0.1878 -0.0116 -0.0844
30515W        W46649  18.999   9.106  13.329  0.1390 -0.0938  0.0581
30516W        W46650   4.357   1.398  11.341  0.0178 -0.3735  0.0171
30517W        W46651  10.238   9.152   2.357 -0.1809  0.2791  0.0238
30518W        W46652  18.289  11.206  12.728 -0.1935 -0.2233 -0.4110
30519W        W46653   9.789  13.899   0.423 -0.0113 -0.2032 -0.0463
30520W        W46654   9.642  10.311  11.069 -0.0382 -0.1501 -0.1650
30521W        W46655  12.879  17.461   0.680 -0.0029  0.0010 -0.0226
30522W        W46656  16.479   1.487  13.577 -0.1558  0.2411  0.3534
30523W        W46657  14.444  19.254  14.421 -0.2034 -0.2352 -0.4675
30524W        W46658   6.860  11.254  12.522  0.0512  0.1065  0.0963
30525W        W46659  13.400   6.553   0.961  0.1781 -0.0445  0.1444
30526W        W46660   2.164  14.292   1.621 -0.1025  0.2447 -0.0432
30527W        W46661  18.828   2.735   0.132  0.2342 -0.0320 -0.2487
30528W        W46662   4.096   7.185  10.832  0.3102  0.1707 -0.2132
30529W        W46663  14.056   3.568  12.043 -0.3523  0.1037 -0.2298
30530W        W46664   6.104  15.041   4.953 -0.4457 -0.1280  0.0154
30531W        W46665  12.774   6.905   3.583  0.1804  0.2875 -0.1358
30532W        W46666  16.665   1.776   3.262  0.1350  0.2265  0.0148
30533W        W46667  15.980  11.077   0.241 -0.0158 -0.0274 -0.0558
30534W        W46668  13.897   6.746  12.888 -0.1810  0.0698  0.0175
30535W        W46669  17.579  12.785   0.808 -0.2451 -0.2242  0.1911
30536W        W46670  15.493   6.002  14.445  0.1828 -0.1065  0.2010
30537W        W46671  12.589   6.653  12.148 -0.2419  0.0197 -0.1528
30538W        W46672  16.210  19.123   1.748  0.2785  0.1760  0.3411
30539W        W46673  14.988   8.607  10.348 -0.1713  0.0984  0.1134
30540W        W46674   9.643  11.724  11.733 -0.1236 -0.0572  0.0497
30541W        W46675   2.231  15.807  12.611 -0.2852 -0.0027 -0.1723
30542W        W46676   2.711  17.789   5.807  0.1952  0.0040  0.0201
30543W        W46677   5.480  12.311   0.309 -0.2102 -0.0739  0.2185
30544W        W46678   3.235  10.365  12.183  0.2426 -0.5251  0.3769
30545W        W46679  16.134  16.415   3.825  0.0336  0.0510 -0.1183
30546W        W46680   0.388   8.306  11.038 -0.0948  0.2222 -0.0031
30547W        W46681   1.400  10.751   0.210  0.2822 -0.0323  0.0427
30548W        W46682  11.238   7.060   2.830 -0.0090  0.2548 -0.4236
30549W        W46683   3.938  17.717   4.315  0.1109 -0.4188  0.0652
30550W        W46684  17.739  17.701  12.176  0.1510  0.2646  0.0132
30551W        W46685   0.841  15.267   5.740 -0.1761 -0.2880  0.1499
30552W        W46686   0.917  12.068  13.705 -0.1838  0.0254 -0.0765
30553W        W46687   1.023   7.002   2.586 -0.0417  0.1971 -0.2505
30554W        W46688   0.887  15.832  12.789 -0.1038  0.0240  0.3671
30555W        W46689   9.365  11.315   2.984  0.0227  0.1792 -0.1009
30556W        W46690  17.965  15.434  12.747 -0.0128  0.2900  0.0520
30557W        W46691   2.954  13.895  10.756  0.1499  0.1864 -0.2235
30558W        W46692  15.102  10.562  12.015 -0.0109  0.4005  0.1439
30559W        W46693  14.435  10.182   0.891  0.0276  0.1524  0.1972
30560W        W46694   2.698   3.702   2.683  0.0726  0.0403 -0.1040
30561W        W46695  13.453  13.757   4.532 -0.0307 -0.2276 -0.1188
30562W        W46696  17.211  17.831   1.420 -0.1603  0.1045 -0.3842
30563W        W46697  18.414   8.573   3.230 -0.0187  0.2393 -0.0848
30564W        W46698   8.048   1.149   1.012  0.1687  0.0497  0.3366
30565W        W46699   9.419   6.178   2.296 -0.2842 -0.3170 -0.0848
30566W        W46700  10.779  11.613  13.162 -0.0866 -0.1875  0.0255
30567W        W46701   5.521   9.022  14.243  0.1579  0.2118  0.0289
30568W        W46702  11.020  14.227  13.887 -0.0396 -0.0027  0.0310
30569W        W46703   5.505  14.655   2.724  0.2231  0.0625 -0.2078
30570W        W46704  18.036  10.709   4.607 -0.2243 -0.0889 -0.2273
30571W        W46705   8.400  18.897   3.870 -0.0516  0.1105 -0.3056
30572W        W46706  14.363   0.785  13.277 -0.0099  0.1781  0.1398
30573W        W46707  11.917  16.079   4.947 -0.3044 -0.2112 -0.2830
30574W        W46708  16.537   2.318   1.644  0.0268  0.1847 -0.0577
30575W        W46709   0.436  11.138   9.970  0.1330 -0.0717 -0.0160
30576W        W46710  13.777   4.254   0.042  0.2684 -0.0838  0.2452
30577W        W46711  17.209   1.097  14.944 -0.0060 -0.1624 -0.1677
30578W        W46712   2.042  14.823   1.310  0.0048  0.0806 -0.1019
30579W        W46713  18.299   6.704   4.603  0.1885  0.2248 -0.1565
30580W        W46714   9.451  16.340   0.864  0.1443  0.2933 -0.1415
30581W        W46715   1.767   3.420  14.964  0.1559 -0.1467 -0.2074
30582W        W46716   8.335  18.855   3.390 -0.5163 -0.3976 -0.3138
30583W        W46717  15.550   6.167   5.533  0.1331  0.0783  0.0019
30584W        W46718   6.070  16.705   3.479 -0.3123  0.0075  0.0645
30585W        W46719  11.253  18.961   2.444 -0.0199  0.1854  0.0462
30586W        W46720  18.251   3.075   1.636 -0.0971 -0.1095  0.0808
30587W        W46721  12.805   6.362   0.949  0.2810  0.0066  0.0956
30588W        W46722   0.507   2.733  10.795 -0.2948  0.2675 -0.2231
30589W        W46723  17.305  12.237  12.213 -0.0983 -0.1093  0.1280
30590W        W46724   2.298   2.760   4.957  0.3171 -0.1004  0.1134
30591W        W46725   0.484  11.593  10.059 -0.2880 -0.4071 -0.1036
30592W        W46726   3.113   8.147  14.539 -0.1002 -0.2293 -0.2078
30593W        W46727  10.794  18.995  13.204  0.0014  0.1182  0.1023
30594W        W46728  11.442   6.015   1.570  0.3154  0.3036  0.0809
30595W        W46729   6.586  17.505   2.432 -0.0744  0.0663  0.1712
30596W        W46730  15.501   2.400  10.868 -0.4861  0.1633  0.1024
30597W        W46731  13.018   3.467  13.106 -0.2437  0.1099 -0.5037
30598W        W46732   1.655   1.417  11.259  0.0126 -0.1140  0.0712
30599W        W46733  12.448   5.544   4.645 -0.1836 -0.2123  0.0194
30600W        W46734   4.851  13.729   0.797 -0.1120 -0.0730 -0.1202
30601W        W46735   2.536  14.748   3.710 -0.2719 -0.3485  0.1048
30602W        W46736   2.859   2.143  10.872 -0.3362 -0.1242  0.1053
30603W        W46737   8.094   0.535  13.656  0.0482  0.1991  0.2337
30604W        W46738  11.865  11.594   0.494 -0.0169 -0.2576  0.2860
30605W        W46739   9.643  14.243  12.816  0.1847  0.1530 -0.0896
30606W        W46740  12.919  11.792  14.839 -0.3489  0.0163  0.0364
30607W        W46741   5.011   5.700   1.943  0.1067 -0.0993 -0.2363
30608W        W46742  12.180  11.820  11.531 -0.1509  0.0410 -0.0256
30609W        W46743  19.175  15.176   2.963 -0.4417 -0.0914  0.2333
30610W        W46744  12.746  17.080  13.960  0.1066 -0.1355  0.2881
30611W        W46745  18.686   4.716   9.535  0.1461 -0.0733  0.1152
30612W        W46746   3.456   0.721  11.586 -0.0317  0.0122  0.0398
30613W        W46747  12.384   2.800   0.731 -0.4587  0.1060  0.1764
30614W        W46748  10.010  10.068   2.259 -0.2100  0.3015 -0.3603
30615W        W46749   9.350   0.822   3.523 -0.0370  0.1177  0.2336
30616W        W46750  17.119  17.811   0.002 -0.0329  0.2481  0.0422
30617W        W46751   4.700   7.505   2.501 -0.1395  0.1160 -0.1926
30618W        W46752   6.060   5.279   1.100  0.0093  0.1075  0.1615
30619W        W46753  11.973  14.658   2.277 -0.1145 -0.3624  0.5096
30620W        W46754   5.400   7.426  10.084  0.3967  0.4393 -0.1240
30621W        W46755   9.197   2.982   3.383  0.3332 -0.1545 -0.1436
30622W        W46756  17.431  15.798   2.045 -0.0379 -0.1045  0.2669
30623W        W46757   6.028  18.018  11.135 -0.1989  0.3662 -0.1021
30624W        W46758  10.281   5.693  13.885  0.0270  0.0320 -0.0188
30625W        W46759   0.805   5.095  11.611  0.1276  0.0119  0.0774
30626W        W46760   7.286   7.251   0.548  0.2051  0.0235  0.0267
30627W        W46761   5.181  18.253   0.272 -0.3224  0.0216  0.0749
30628W        W46762  17.377  19.039   3.880 -0.2819  0.0241  0.0206
30629W        W46763   1.888   2.604   3.563 -0.2822 -0.0706  0.0773
30630W        W46764   6.830  18.976   3.270 -0.2839  0.2317  0.0946
30631W        W46765   2.075  10.573  11.421  0.2902 -0.2931  0.2285
30632W        W46766  13.064  18.254   1.843 -0.1769  0.0268 -0.1595
30633W        W46767   5.504  15.382  13.695 -0.1273  0.0071 -0.4105
30634W        W46768  13.185   7.323  13.375 -0.2346 -0.0421 -0.4009
30635W        W46769  14.436  15.721  14.888 -0.1786  0.3800 -0.0113
30636W        W46770  16.287  14.038  12.808  0.0770 -0.3636  0.1743
30637W        W46771   8.128   5.429  14.143 -0.0499  0.0188  0.1998
30638W        W46772   9.083   3.094   4.768 -0.0900 -0.2319 -0.3119
30639W        W46773   4.873   9.511  11.176 -0.0708  0.2663  0.0475
30640W        W46774  14.835  12.601   0.046  0.1935  0.0506 -0.1598
30641W        W46775  10.349  14.635  13.409 -0.2106 -0.7195  0.4158
30642W        W46776  14.398   7.450   1.482  0.0452 -0.3060  0.0728
30643W        W46777   3.219   8.234  12.139  0.2191 -0.0105 -0.2838
30644W        W46778  18.784  18.979  14.732 -0.2451  0.2462  0.1632
30645W        W46779  15.125   2.820  13.508 -0.1075 -0.1138  0.0167
30646W        W46780   3.043   5.457   3.316  0.1766  0.1821  0.1151
30647W        W46781  13.741   1.826   1.602 -0.2430  0.3745 -0.2891
30648W        W46782  14.134   2.648   0.772 -0.3065 -0.0231  0.0794
30649W        W46783  18.019   1.940   3.131  0.2138 -0.2425  0.0714
30650W        W46784  10.376   0.300   1.151  0.2333 -0.1535 -0.1824
30651W        W46785  18.016  12.689   3.120  0.3575  0.0732 -0.0774
30652W        W46786  12.752   3.962   1.625  0.0549  0.0887 -0.4236
30653W        W46787  17.419  10.819   1.304 -0.0179  0.0574 -0.3397
30654W        W46788   9.211  15.494  14.075  0.0960  0.1260  0.0934
30655W        W46789  13.830   1.725   4.905  0.0899  0.0841  0.0634
30656W        W46790  12.165  17.483   1.031 -0.0309  0.0021  0.1436
30657W        W46791   1.033   3.653   4.140 -0.1827  0.2329 -0.0403
30658W        W46792   0.288  13.096   3.917 -0.0972  0.0218  0.0821
30659W        W46793  12.594  19.288  11.202  0.0891  0.0009 -0.0150
30660W        W46794  16.017   1.365   2.566  0.1902  0.1173 -0.0630
30661W        W46795   7.796  19.166  11.991  0.1628 -0.2842  0.0985
30662W        W46796   7.655  11.779  10.443  0.0927 -0.0777 -0.1732
30663W        W46797  18.047   9.488  13.071  0.2850 -0.0675  0.0600
30664W        W46798   0.902   5.759   0.443  0.0858  0.0111 -0.1307
30665W        W46799   6.323  14.994   1.295  0.0836  0.3386 -0.0568
30666W        W46800  16.933   4.629  14.161 -0.2314 -0.3661 -0.0929
30667W        W46801   9.892   0.560  11.718  0.1343  0.0689  0.3356
30668W        W46802  10.254   5.147  11.394  0.2823  0.0382 -0.1076
30669W        W46803  17.912   2.039   5.294  0.2499 -0.1074 -0.3916
30670W        W46804   9.312  17.995   3.434  0.0883 -0.0982  0.0952
30671W        W46805  16.052  18.871   5.040 -0.0471 -0.3731 -0.0028
30672W        W46806  16.611   9.545   4.523  0.2138 -0.2482  0.2146
30673W        W46807   6.894  16.925   4.113 -0.2259  0.3078  0.0286
30674W        W46808  14.515  11.245  13.679 -0.2362  0.2232  0.1896
30675W        W46809   5.582   8.700   4.430  0.0654 -0.2260 -0.1971
30676W        W46810  16.525   3.957   3.944  0.0119  0.0662  0.1167
30677W        W46811  16.952   3.829  14.510  0.4807 -0.2497 -0.2772
30678W        W46812   5.536  11.611   4.170  0.0645 -0.1065 -0.1292
30679W        W46813  11.638   2.415   2.287 -0.0549  0.0051  0.0791
30680W        W46814  11.013   6.146   0.890  0.1530  0.0671  0.1117
30681W        W46815   9.521   8.408  13.718 -0.0038 -0.1137  0.2647
30682W        W46816   0.027  16.533   2.168  0.2065  0.1280 -0.1599
30683W        W46817   1.657  17.885   1.141  0.3130 -0.1221 -0.2500
30684W        W46818   9.797  15.657   1.208  0.3887 -0.1328 -0.2427
30685W        W46819   3.751  13.309   1.058  0.3380 -0.0483 -0.0159
30686W        W46820  11.468  11.392   0.227  0.1502  0.1834 -0.0749
30687W        W46821  17.167  13.998  12.280  0.3007 -0.0315  0.2425
30688W        W46822   0.566  11.973  14.601  0.0057 -0.1379 -0.2543
30689W        W46823  14.180  16.142  11.469 -0.1236 -0.0397  0.3700
30690W        W46824  18.825   1.956  14.210 -0.1467 -0.1270  0.0318
30691W        W46825  15.797   4.912  13.667  0.1120  0.0687 -0.0382
30692W        W46826   2.110   7.176   2.458 -0.0937 -0.0254 -0.0425
30693W        W46827   3.810  18.776   4.345  0.0838 -0.0019  0.3196
30694W        W46828  16.576   1.917   2.112 -0.0534  0.0993  0.0581
30695W        W46829   4.915  16.835  14.193 -0.0683  0.2825  0.2000
30696W        W46830  13.895   9.946   5.200  0.1459 -0.0851 -0.0464
30697W        W46831  11.944  12.760  12.274 -0.3303  0.1503  0.0184
30698W        W46832  11.253   4.722   3.566  0.0338  0.1014 -0.0267
30699W        W46833   3.485  13.827   0.591 -0.2125  0.1044 -0.3450
30700W        W46834   5.969  11.377   9.894 -0.2254  0.0865  0.1691
30701W        W46835   5.128  15.448   2.753 -0.0113 -0.1033  0.0264
30702W        W46836  15.149   0.137  11.304 -0.2897  0.1602 -0.0476
30703W        W46837  10.997  10.572  11.119 -0.2363 -0.0843 -0.1085
30704W        W46838   6.240  18.592   2.270  0.1066 -0.0568 -0.5078
30705W        W46839  12.401   0.009   2.697  0.0188  0.0743  0.0037
30706W        W46840   6.963   0.175  12.034 -0.0874  0.1263 -0.3353
30707W        W46841   3.521  11.919   4.560 -0.3141  0.1085 -0.0730
30708W        W46842   1.958  18.726   1.868 -0.1540 -0.0285 -0.0212
30709W        W46843   3.221   8.740  11.240  0.2010  0.2984  0.2560
30710W        W46844   1.522  18.333  10.487  0.1061  0.2307  0.2689
30711W        W46845  15.073  10.075   2.541  0.1533 -0.0311  0.1204
30712W        W46846   3.311   7.556   0.387  0.2116  0.1911 -0.1776
30713W        W46847   5.041   1.970   3.125  0.1250 -0.0432  0.2271
30714W        W46848  10.516  11.789   1.324 -0.2164  0.4032  0.1037
30715W        W46849   4.913   6.537   3.634  0.1054  0.0113  0.2287
30716W        W46850  10.565   8.300   0.684 -0.0181 -0.0344  0.1057
30717W        W46851  17.983   8.164  10.893  0.0377  0.1626  0.2581
30718W        W46852  14.008   9.447  12.137  0.2389  0.1665  0.0848
30719W        W46853   3.151  17.026  13.427 -0.2313 -0.0456 -0.2146
30720W        W46854  16.104  11.375   3.263 -0.2918 -0.3209  0.0421
30721W        W46855  14.660   6.383  12.894 -0.0135 -0.1720 -0.0229
30722W        W46856   4.072  13.455   2.222 -0.0745 -0.2193 -0.0313
30723W        W46857   4.685   0.087  11.814  0.1929 -0.1621  0.0178
30724W        W46858  19.305   7.933  14.622 -0.1814  0.3382  0.1338
30725W        W46859   4.546  12.083  14.824 -0.1007 -0.3075 -0.0527
30726W        W46860  12.982  10.481  10.729  0.1018 -0.0539 -0.2587
30727W        W46861   8.248   4.270   4.703  0.1564  0.0926 -0.0036
30728W        W46862  15.374  11.532  10.963 -0.0362 -0.1156 -0.2041
30729W        W46863   9.468   4.605   1.875 -0.1625  0.0436  0.2592
30730W        W46864  10.219   9.066   1.472 -0.1730 -0.3927 -0.1438
30731W        W46865   9.918   2.790  14.844  0.0920 -0.0519 -0.0510
30732W        W46866   0.734   2.348   5.186  0.0394  0.1471 -0.0651
30733W        W46867  13.670   7.299  11.385  0.0003 -0.0916 -0.1806
30734W        W46868  11.725  14.629  13.403  0.1186 -0.1433  0.1104
30735W        W46869  17.224   3.272   2.558 -0.0439 -0.3457  0.4075
30736W        W46870  12.658   0.379   3.113  0.2892 -0.1127  0.2118
30737W        W46871  14.115   2.544   5.380  0.0783  0.1141 -0.1264
30738W        W46872  12.880   6.254   3.011 -0.0511  0.1207 -0.0899
30739W        W46873   0.935   8.107  12.237  0.2126 -0.2019 -0.0647
30740W        W46874   3.427  12.478   4.761  0.1898  0.1174  0.0617
30741W        W46875  10.706   0.562  14.077 -0.0460 -0.1540 -0.0769
30742W        W46876   6.799  17.247   1.680 -0.3400  0.2399  0.2928
30743W        W46877  14.312  10.919   3.547 -0.1330  0.2414 -0.1806
30744W        W46878  13.242  10.875  10.826  0.0908  0.1995  0.3752
30745W        W46879  12.498   0.458  13.626 -0.1058  0.2048  0.0435
30746W        W46880   7.042   1.644   2.403 -0.1188  0.1909  0.1747
30747W        W46881   3.637   6.605  13.033  0.0355 -0.0219  0.1559
30748W        W46882  18.024  11.661   3.359  0.2722  0.0014 -0.2500
30749W        W46883   7.427  15.486   4.809  0.1325 -0.3960  0.2247
30750W        W46884   9.782  14.429   5.754 -0.2106  0.0377  0.1119
30751W        W46885   0.358  14.495   2.165 -0.0764  0.1423  0.2511
30752W        W46886   3.889   8.767  11.650 -0.2962 -0.0498 -0.1093
30753W        W46887  10.025   0.560  11.153  0.4208  0.1706  0.2514
30754W        W46888   3.145  10.210  12.759 -0.1209 -0.1084 -0.1133
30755W        W46889  10.367   2.472   2.405  0.0209  0.0322 -0.1226
30756W        W46890  12.038  11.688  13.786 -0.2689  0.0075  0.0638
30757W        W46891   7.502  12.927  11.105 -0.4558 -0.3196  0.2701
30758W        W46892   7.880  11.215   2.602 -0.0563 -0.0910 -0.0943
30759W        W46893   2.437  16.051  11.214  0.2040 -0.1342 -0.0364
30760W        W46894   1.093   3.278  12.174  0.0027  0.1513 -0.3438
30761W        W46895   7.886  15.869  11.036  0.0421 -0.2305 -0.0653
30762W        W46896  12.341   0.174   0.102  0.2361  0.2764  0.0113
30763W        W46897  15.658   2.160   2.123 -0.1180 -0.0238 -0.4421
30764W        W46898   9.769   8.471   4.325 -0.2048 -0.1242  0.1629
30765W        W46899  16.638   0.470   3.446 -0.0867  0.2389  0.2620
30766W        W46900  14.003   7.572  10.243  0.3570 -0.2765 -0.1556
30767W        W46901   2.060  11.945   3.250 -0.3386  0.0320  0.1653
30768W        W46902  11.100  11.191   5.508 -0.0138 -0.0950  0.0225
30769W        W46903  10.275   9.767   1.204  0.0903 -0.2427  0.1648
30770W        W46904   1.050   7.338  10.107  0.1631  0.1133 -0.1571
30771W        W46905  11.546  12.346   5.074  0.1710 -0.0453  0.0887
30772W        W46906  15.169  14.741   1.609  0.3422  0.1628  0.1640
30773W        W46907  12.302   8.486  14.620  0.2920 -0.1644  0.1770
30774W        W46908   7.706  14.236   2.159 -0.0354  0.2849 -0.3143
30775W        W46909   6.012  16.216   4.048 -0.2123 -0.2842 -0.0974
30776W        W46910  13.129  18.414   0.507 -0.2036  0.0175  0.0567
30777W        W46911   2.958   3.247  12.637 -0.5624 -0.3679  0.0434
30778W        W46912   3.034  17.732   2.282  0.2896 -0.4926 -0.4095
30779W        W46913  18.914  13.184  12.048 -0.2040  0.1455  0.3434
30780W        W46914  11.529  10.639  13.188  0.1888  0.1145 -0.0236
30781W        W46915  14.564  11.869   0.563  0.2014 -0.1441  0.2377
30782W        W46916   3.178   1.432   0.314  0.1238  0.0051 -0.0001
30783W        W46917   9.936   7.811   1.821  0.2820  0.1617 -0.1829
30784W        W46918   1.343  18.781  12.742  0.1191  0.0209  0.1816
30785W        W46919   1.881  11.701   2.213 -0.0675  0.0213 -0.2737
30786W        W46920  19.184  10.572   3.955  0.1478 -0.0206  0.0443
30787W        W46921  13.640   9.823   4.706 -0.3906  0.1206 -0.2388
30788W        W46922  17.504   8.455  11.949  0.0286 -0.0807 -0.2231
30789W        W46923  17.365   2.379   1.102  0.1793 -0.3054 -0.0967
30790W        W46924  13.110   7.610  10.274 -0.1626 -0.0029 -0.0026
30791W        W46925  13.000  18.839  14.047  0.0384 -0.4181 -0.1611
30792W        W46926  17.967  12.355  14.409  0.1789 -0.1731  0.1999
30793W        W46927  18.488  12.333  14.349  0.0316 -0.1172  0.1422
30794W        W46928  12.181   1.046  11.276 -0.0944 -0.0244  0.2310
30795W        W46929  10.800   1.019  13.431 -0.2745 -0.0974 -0.0521
30796W        W46930  17.628   7.888  12.012 -0.0116  0.1059 -0.0184
30797W        W46931  10.180  12.630  14.785 -0.2124 -0.3889 -0.0504
30798W        W46932  11.542   3.144   2.713  0.0742 -0.3243  0.3022
30799W        W46933  12.589   4.752  12.808 -0.0563 -0.0568 -0.0958
30800W        W46934  11.713  11.876  11.283 -0.1952  0.2918 -0.1667
30801W        W46935   5.042   2.379   0.754  0.0171  0.1719 -0.0559
30802W        W46936   9.386   3.645   1.757  0.0066 -0.1683  0.1888
30803W        W46937  13.821  11.675  10.407 -0.2634  0.0892 -0.1983
30804W        W46938  11.204  10.017   2.060  0.3373 -0.1293  0.2962
30805W        W46939   0.457  16.151  12.604  0.2141 -0.1622  0.0873
30806W        W46940  11.981   5.295   2.104 -0.1978 -0.0373 -0.2221
30807W        W46941   2.569  13.883  14.427  0.1221 -0.3607  0.0805
30808W        W46942   6.118   2.950  11.839  0.0731 -0.1010 -0.0789
30809W        W46943  14.819   0.292   1.616  0.1218 -0.0570  0.2314
30810W        W46944   8.500   7.817   2.252 -0.0110 -0.1920  0.0857
30811W        W46945   3.500  10.085   1.697 -0.0717  0.0970  0.2616
30812W        W46946   5.972  15.122  13.410  0.1333 -0.0405 -0.0449
30813W        W46947  17.936  10.604   5.161  0.1699  0.0320  0.0227
30814W        W46948   5.914  15.237   4.342 -0.1585  0.2638  0.1321
30815W        W46949  17.596   0.665  11.324  0.0096 -0.1022 -0.0201
30816W        W46950  10.360  18.350  11.122 -0.1650  0.0544 -0.0887
30817W        W46951   4.966   2.165   2.604 -0.2584  0.0877 -0.2558
30818W        W46952   4.049   6.680   2.581  0.1695  0.1032  0.3839
30819W        W46953   4.408   5.149  13.074  0.0181  0.0757 -0.0621
30820W        W46954  12.024   0.266  12.380  0.0309  0.1439  0.2654
30821W        W46955  18.646  16.577  11.898 -0.0728  0.0489 -0.0242
30822W        W46956  17.475  18.348  11.565 -0.0363 -0.0691  0.0342
30823W        W46957  15.659   5.795   4.618 -0.2039 -0.0475 -0.1960
30824W        W46958   8.337  18.459  11.265 -0.0849  0.0279  0.0766
30825W        W46959   2.144   5.923   1.802 -0.5707 -0.1445 -0.0075
30826W        W46960  11.604   7.015   0.154 -0.3863 -0.0244  0.1954
30827W        W46961  12.265  16.716  12.289  0.2900 -0.2008  0.1852
30828W        W46962  12.775  14.266   2.819  0.1013 -0.0991 -0.0859
30829W        W46963   0.844  16.726  11.765  0.2029 -0.1011  0.2329
30830W        W46964   6.658  15.569   0.735 -0.0965 -0.2290 -0.0020
30831W        W46965   0.357   7.211  14.782 -0.0821 -0.0329 -0.2573
30832W        W46966  13.819  12.026   1.899  0.1239  0.1149  0.2138
30833W        W46967  12.617  16.178   4.972  0.2041  0.1651  0.0312
30834W        W46968   4.095   9.829  14.343  0.3188 -0.0826 -0.1851
30835W        W46969  10.453  18.455   0.687  0.1179  0.0250  0.0233
30836W        W46970  17.493  17.163   2.127 -0.4160  0.0827  0.0388
30837W        W46971   2.088   2.071   9.865  0.0292 -0.1751  0.1737
30838W        W46972  16.218   4.063  14.164  0.2895  0.1502 -0.0926
30839W        W46973  12.448  14.401  13.624 -0.0926 -0.3628 -0.3675
30840W        W46974   5.989   2.767   0.949 -0.3145 -0.1167 -0.1445
30841W        W46975  11.154   7.711   3.652 -0.1377 -0.0158 -0.0500
30842W        W46976  11.035  17.337   4.508  0.3178  0.1094 -0.0932
30843W        W46977  16.635  14.838  12.412 -0.2612  0.1400 -0.0210
30844W        W46978  17.852   8.418   1.714  0.1974 -0.4158  0.0321
30845W        W46979   2.603   7.332   5.071 -0.0462 -0.1591 -0.0737
30846W        W46980  12.903   8.213   4.762  0.1169 -0.0790  0.1716
30847W        W46981   7.330  18.111   5.480 -0.0212  0.0496  0.3016
30848W        W46982   3.114  16.259   5.510  0.2583  0.2519 -0.0019
30849W        W46983   1.855   3.253   4.097  0.1237 -0.5380  0.0616
30850W        W46984  16.546  11.220  13.729  0.0110  0.1043 -0.1575
30851W        W46985   9.993   8.057  13.764 -0.0032  0.1337 -0.0129
30852W        W46986   8.996  12.952  11.953  0.1024  0.3283 -0.0494
30853W        W46987   9.404  15.359   1.355 -0.0548  0.0634  0.2270
30854W        W46988   6.054   2.162  11.251 -0.0504 -0.0263 -0.3291
30855W        W46989   8.377   8.922  10.854 -0.3489 -0.1530  0.0079
30856W        W46990  16.128  12.654  12.031  0.1861 -0.0672 -0.0161
30857W        W46991   3.493  14.532  10.731 -0.0533 -0.2799  0.0683
30858W        W46992  13.923   3.157  11.743 -0.1808  0.1963 -0.1601
30859W        W46993   4.653   8.173   4.416 -0.0507  0.1709 -0.2515
30860W        W46994  12.830   0.029  13.929  0.0954  0.2070  0.0617
30861W        W46995   0.038  13.899  10.630 -0.2369  0.0400 -0.2408
30862W        W46996   9.220  11.221   4.800 -0.1178  0.2770 -0.1332
30863W        W46997  11.579   0.773   5.345 -0.3186 -0.2633 -0.3788
30864W        W46998  14.291  17.959  14.428  0.1870 -0.1516 -0.1826
30865W        W46999   2.500   7.545   0.168  0.1085 -0.1407  0.0814
30866W        W47000   9.613   5.422   0.607 -0.2871 -0.1940  0.0765
30867W        W47001   2.213  11.782   1.828 -0.1023 -0.5444 -0.1638
30868W        W47002  11.184  14.511   2.559  0.1069  0.3489  0.1362
30869W        W47003   1.051   1.789   0.405 -0.3312 -0.1427 -0.2189
30870W        W47004   5.443  11.238   9.854 -0.1457 -0.0044  0.0702
30871W        W47005   3.711  17.635  14.185  0.1017 -0.0227 -0.1526
30872W        W47006  14.759   8.634   4.698 -0.0478 -0.4082 -0.3837
30873W        W47007  14.381  16.989  14.700 -0.0625 -0.1210  0.1043
30874W        W47008   3.233   7.885  10.859 -0.1583  0.2560 -0.0249
30875W        W47009  10.143  11.229  14.960  0.1248 -0.3028  0.0561
30876W        W47010   5.125  15.580   0.089 -0.0871  0.0647  0.0976
30877W        W47011  12.573  16.181   2.125  0.0029  0.1445  0.0658
30878W        W47012  10.830   4.934  11.867  0.1350 -0.1383 -0.2898
30879W        W47013  18.377  17.525  11.746 -0.2153  0.3031 -0.0979
30880W        W47014   7.326  12.261   3.290 -0.0688 -0.1095 -0.1227
30881W        W47015  18.098   5.264   5.609 -0.0072  0.0823  0.0662
30882W        W47016  14.175   1.419   0.106  0.0566  0.0865 -0.2938
30883W        W47017   3.404   3.142   1.525 -0.0302  0.0586 -0.0817
30884W        W47018   5.907  17.538   1.110 -0.0199 -0.0029 -0.2413
30885W        W47019   0.266  16.990  14.351  0.0655  0.0646  0.0949
30886W        W47020   9.227  12.075  14.890  0.0691  0.3917 -0.4055
30887W        W47021   0.562   0.655   0.423 -0.1677  0.0573  0.2036
30888W        W47022  17.766   5.539  12.689 -0.2365  0.0364  0.2124
30889W        W47023  11.626  11.017  14.934 -0.3930 -0.1279  0.1889
30890W        W47024  10.192   1.352  12.273 -0.0448 -0.0722  0.0321
30891W        W47025   7.424   7.782   0.717  0.3920  0.2274  0.0624
30892W        W47026   4.146  18.155   1.261  0.1400  0.0293 -0.3232
30893W        W47027   3.887  13.375  14.615 -0.2693  0.1046  0.0066
30894W        W47028   9.996  12.790  12.952 -0.3017 -0.0468 -0.0520
30895W        W47029   5.097  17.781  13.102 -0.1256 -0.1819 -0.1334
30896W        W47030  13.422   1.735   5.712 -0.1325  0.0952  0.1622
30897W        W47031   9.155  18.083   2.914 -0.1912 -0.3477 -0.1818
30898W        W47032   6.903  15.157  14.825  0.1214 -0.1441 -0.0677
30899W        W47033  14.680  12.838  13.910  0.0820  0.0226 -0.2853
30900W        W47034   7.632   2.108   2.572 -0.2604  0.0878  0.1677
30901W        W47035  19.277   2.118  14.885  0.0729 -0.0869  0.0214
30902W        W47036  17.368  10.287  13.001 -0.3442  0.1922  0.1005
30903W        W47037  16.958  14.243   1.515  0.0359 -0.0883 -0.0649
30904W        W47038   0.509  18.721   0.737  0.2773 -0.0296  0.0900
30905W        W47039   5.034   4.754   0.918  0.1567 -0.0087  0.1161
30906W        W47040  17.370   5.812  13.414  0.5701  0.0578  0.0003
30907W        W47041   5.606  17.314  10.846  0.2684  0.3642  0.1095
30908W        W47042   3.236   3.835   9.697 -0.1151  0.0988  0.0146
30909W        W47043  11.713  12.389  12.556 -0.1199 -0.1015  0.2086
30910W        W47044   9.346   0.368   6.017  0.0847 -0.3139  0.0962
30911W        W47045   5.396   7.901   3.684 -0.0130 -0.1238  0.0658
30912W        W47046   6.088   1.294   2.878  0.2272 -0.1238  0.3813
30913W        W47047   5.861  14.082   4.851  0.1623  0.0494 -0.1378
30914W        W47048  17.939  14.429   9.716  0.2202 -0.1361 -0.4077
30915W        W47049  12.578   2.038  14.652  0.1619 -0.1667 -0.1368
30916W        W47050  17.770  16.958   3.257 -0.2931  0.3417 -0.0598
30917W        W47051   3.029   8.263   2.639 -0.1873  0.2984  0.0320
30918W        W47052   8.583  14.167  13.276  0.3313 -0.4887 -0.2814
30919W        W47053  12.285  15.528  13.322  0.1171  0.0974 -0.0022
30920W        W47054  18.888  17.589   9.231 -0.2166  0.2905 -0.2669
30921W        W47055  14.719   1.734   4.410 -0.0365 -0.2717  0.1141
30922W        W47056  12.474  17.026  14.878 -0.2591 -0.1539 -0.0323
30923W        W47057   9.161   0.404   3.669  0.2572  0.4382 -0.3019
30924W        W47058   9.058  11.279   0.212 -0.2510  0.0229  0.5456
30925W        W47059  16.977   2.961   4.669  0.2953 -0.3224  0.1806
30926W        W47060  13.602   8.718   3.316 -0.0085 -0.0276  0.0082
30927W        W47061  12.967  10.699   4.595  0.1527  0.0530 -0.3768
30928W        W47062  13.130  18.688  12.745  0.0392  0.3408  0.1068
30929W        W47063  12.722   9.589  10.440 -0.0600 -0.3154 -0.1309
30930W        W47064   2.891  10.724  12.069  0.1935  0.1558 -0.1134
30931W        W47065   9.583   1.732  11.633 -0.0928  0.1800  0.0540
30932W        W47066  10.178   2.882  12.279  0.0901 -0.0824 -0.1400
30933W        W47067  11.014  13.310   0.497 -0.0211  0.0910  0.0391
30934W        W47068  16.835  17.280  14.481 -0.1601  0.1228 -0.3528
30935W        W47069   7.272  16.877  14.862 -0.1148  0.1199  0.2311
30936W        W47070  16.150   7.563   1.788 -0.1558 -0.1613 -0.0544
30937W        W47071   5.286   8.482   4.777  0.1592  0.4424  0.2032
30938W        W47072  12.609  15.658   3.182 -0.0112  0.1051  0.4295
30939W        W47073   6.970  18.636  11.861 -0.0257  0.0692 -0.0142
30940W        W47074   8.310   5.680  10.412  0.0122  0.0966  0.0343
30941W        W47075   2.756   9.553  11.202  0.0652 -0.1203 -0.1916
30942W        W47076   4.692   0.522  10.823  0.0325 -0.0709 -0.0769
30943W        W47077  16.590   7.057   2.459  0.0336  0.2070  0.0653
30944W        W47078   4.579   0.911   1.914 -0.2398 -0.2505 -0.1132
30945W        W47079   5.605  10.120  10.758  0.1317 -0.0677  0.0576
30946W        W47080   1.538   9.521   0.065  0.5038  0.3372  0.1417
30947W        W47081  13.152  11.696  11.027  0.1597 -0.1825  0.0705
30948W        W47082  16.355  14.962  12.853 -0.1942 -0.0926  0.2278
30949W        W47083   5.045  11.773   3.573  0.2613 -0.0056  0.1190
30950W        W47084   2.104   7.264   1.889 -0.2982 -0.2432 -0.1545
30951W        W47085  17.287   8.314  11.400  0.1902 -0.0339 -0.1217
30952W        W47086  17.081  18.725   0.214  0.0798  0.0282 -0.2174
30953W        W47087   1.259   6.728   4.008 -0.1658 -0.1345 -0.0039
30954W        W47088   1.244  19.121   3.351  0.1865  0.0504 -0.0276
30955W        W47089   5.530   9.497  14.511  0.1915 -0.0117  0.0665
30956W        W47090   4.002   3.197   0.307 -0.1001  0.0261 -0.1621
30957W        W47091  14.068  12.302  11.571 -0.2899  0.0449 -0.1789
30958W        W47092  16.263  18.947   3.542 -0.0996 -0.0406 -0.1993
30959W        W47093   6.786  18.487  12.313 -0.2663  0.2809  0.2104
30960W        W47094   3.754  16.238  11.295  0.0739  0.0709  0.1666
30961W        W47095   8.508   3.739  11.617  0.0726  0.0253  0.2383
30962W        W47096  15.132   1.878  11.560  0.0049 -0.0615  0.1263
30963W        W47097   9.941   2.406  14.463  0.1761  0.3455  0.0497
30964W        W47098   8.551   1.554  12.533  0.1988  0.1532  0.1171
30965W        W47099   5.001  10.763  11.691  0.1029 -0.2180 -0.3264
30966W        W47100   6.602   4.497  13.860 -0.0377  0.1042 -0.2402
30967W        W47101   1.077  18.992  12.395 -0.4165 -0.0792  0.0063
30968W        W47102   7.750  13.016  10.563 -0.0966  0.0414 -0.0050
30969W        W47103  18.215   5.761  12.740 -0.1897 -0.1938  0.0990
30970W        W47104  11.167   3.143  14.954  0.1603 -0.2822 -0.1682
30971W        W47105  13.297   6.251   4.790  0.0940 -0.1830 -0.0729
30972W        W47106   2.383  13.934  10.731 -0.4624  0.2352 -0.3426
30973W        W47107  12.185  13.011  14.554  0.3174  0.0513  0.1685
30974W        W47108  14.632   1.493   3.060  0.3025  0.0501  0.1925
30975W        W47109  14.501  18.277   3.303 -0.0299  0.2074 -0.0803
30976W        W47110  10.975  12.646   0.834 -0.0168 -0.1936 -0.2769
30977W        W47111  14.949  12.790   4.261  0.4851 -0.2269 -0.0121
30978W        W47112   3.875  18.735   0.551 -0.2900 -0.0934 -0.2907
30979W        W47113   1.485   3.086   0.239 -0.3790  0.2549 -0.3355
30980W        W47114  12.994  18.589   2.671 -0.1644 -0.3152 -0.0501
30981W        W47115  18.832  11.320  13.510  0.1112 -0.1313  0.2348
30982W        W47116   8.756  15.588   4.550  0.0026 -0.3738 -0.0065
30983W        W47117  11.252  10.777  10.672  0.1404 -0.1726 -0.0650
30984W        W47118   3.551   2.679   3.026 -0.0385 -0.2165 -0.0766
30985W        W47119  11.667  16.647  14.437 -0.6199  0.0775 -0.2591
30986W        W47120  17.434  10.095  10.283 -0.2638 -0.1306 -0.2429
30987W        W47121   7.772   5.845   9.731 -0.1082  0.1890 -0.0969
30988W        W47122  16.039  15.424   2.893 -0.2366 -0.0434  0.1263
30989W        W47123   9.750  10.051   1.336 -0.0096  0.0644  0.1985
30990W        W47124   9.168   7.203   4.731  0.3238  0.3464 -0.1763
30991W        W47125  11.761   4.654   0.559  0.2071  0.4489  0.1138
30992W        W47126   2.415   9.208  10.972 -0.1367 -0.0771  0.2104
30993W        W47127  10.920   2.943   0.887  0.1454 -0.0967 -0.1531
30994W        W47128   0.497  12.593   0.121 -0.1442 -0.4813  0.2085
30995W        W47129   4.013   9.508  12.981 -0.0330  0.1608  0.1654
30996W        W47130  15.795   2.456   0.866  0.3523 -0.1136 -0.3386
30997W        W47131  17.211   0.208   2.542 -0.1695 -0.2203 -0.4092
30998W        W47132  16.178   9.884   1.682  0.0709 -0.0606 -0.2457
30999W        W47133  17.976   8.859   2.425 -0.2779 -0.2984 -0.6156
31000W        W47134  18.473   2.704   1.428  0.0376  0.2071  0.0082
31001W        W47135   1.664   3.604  13.916  0.1402 -0.0858 -0.1755
31002W        W47136   7.676  16.995   1.417  0.0276  0.0230 -0.1762
31003W        W47137  17.462   1.534   2.319 -0.0289  0.0044 -0.0564
31004W        W47138  14.094   2.689   4.926 -0.2746 -0.1101 -0.2542
31005W        W47139  10.064   5.274  12.006 -0.0849 -0.0752 -0.2007
31006W        W47140  12.713   6.821   0.834 -0.1658  0.4232  0.2067
31007W        W47141  14.515  17.748  14.825  0.0520  0.1916 -0.2364
31008W        W47142   0.769  11.013   2.904  0.0454  0.2395 -0.3209
31009W        W47143   5.030  14.422  11.576  0.3663 -0.2996 -0.1636
31010W        W47144  17.962  16.739   1.931 -0.2843 -0.0596 -0.1106
31011W        W47145  17.634   3.218  11.378 -0.2472 -0.0412 -0.1979
31012W        W47146   2.514   9.966  11.274 -0.0448  0.2028 -0.0103
31013W        W47147  12.635  17.703   1.128 -0.1320 -0.3730  0.0759
31014W        W47148   7.027  12.424   0.575 -0.0136  0.1878 -0.0994
31015W        W47149   1.851   4.963  13.185  0.1716  0.2668 -0.0186
31016W        W47150  11.365  18.757   0.676 -0.0570  0.0629 -0.1635
31017W        W47151   5.204   8.533  14.068 -0.0704 -0.0439 -0.2890
31018W        W47152  17.876   7.448   3.956 -0.1909  0.0693 -0.0768
31019W        W47153  12.861   2.569  13.293 -0.0803  0.2928  0.0395
31020W        W47154   0.545   2.250  13.101 -0.1077  0.0216 -0.0985
31021W        W47155  12.566  10.302  14.193  0.1398 -0.3130  0.3795
31022W        W47156  11.567   9.049   1.392 -0.1553 -0.4228  0.0477
31023W        W47157   9.411   3.970   2.483 -0.0316  0.0207 -0.0070
31024W        W47158  18.961   2.392   3.330  0.0972  0.0533 -0.2276
31025W        W47159   2.721  15.126   3.963 -0.1498 -0.1062  0.1203
31026W        W47160  12.717   1.025  11.123 -0.0680 -0.2678 -0.4257
31027W        W47161   7.258   2.107   2.237  0.0458  0.1426 -0.3134
31028W        W47162   6.226   8.575   3.603 -0.1925  0.0581  0.0122
31029W        W47163  11.232   9.698  10.824 -0.0950  0.2143 -0.1031
31030W        W47164   5.006  11.619  12.746 -0.0231 -0.1437 -0.2456
31031W        W47165  13.830  16.754   3.058  0.3420  0.2671  0.2964
31032W        W47166   2.454  11.670   5.178  0.1194  0.1637  0.0874
31033W        W47167  15.283  15.071  10.930 -0.1537 -0.3193 -0.0172
31034W        W47168  12.532   9.449  14.442  0.3212 -0.1000 -0.0883
31035W        W47169   6.753   1.450  11.862  0.0647 -0.1177 -0.0159
31036W        W47170  14.863  14.047   1.500  0.0740 -0.1157 -0.2229
31037W        W47171   7.796  17.893  14.971 -0.0047  0.0700 -0.2217
31038W        W47172   7.425   3.206   0.780  0.1549 -0.0766  0.2246
31039W        W47173   5.859   3.823   2.816 -0.0887  0.2518 -0.2913
31040W        W47174   1.483  18.180   3.920 -0.2412 -0.0225 -0.3274
31041W        W47175   5.403   7.957  13.939 -0.4157 -0.1577 -0.1971
31042W        W47176  14.886  18.280   9.948 -0.0314 -0.1148 -0.1130
31043W        W47177  17.968  18.218   2.673 -0.1050 -0.0490 -0.2705
31044W        W47178  19.340   4.260   1.128  0.1674  0.3214  0.2570
31045W        W47179  11.879   0.540   0.857 -0.1137  0.2490  0.3057
31046W        W47180   3.508   3.121  11.752 -0.1696  0.0561  0.2230
31047W        W47181  15.143   2.273   3.476 -0.0658  0.1098  0.1589
31048W        W47182   8.544   6.645  11.857 -0.2443 -0.0994  0.3189
31049W        W47183  16.823   8.332  10.905 -0.0068  0.0249  0.0021
31050W        W47184  16.730  19.164  12.737 -0.1300 -0.1785 -0.0279
31051W        W47185   4.855   5.808   3.735 -0.1458  0.1998  0.1769
31052W        W47186  11.417   2.610   1.492 -0.2019  0.0203 -0.0425
31053W        W47187   5.248   2.743  14.262 -0.0761  0.0103 -0.0434
31054W        W47188   5.990   5.450   0.631  0.2971  0.2477 -0.1229
31055W        W47189   3.135  13.708  11.939 -0.1181 -0.0313 -0.2536
31056W        W47190   4.490  18.297   3.169  0.1741  0.2155  0.1575
31057W        W47191   1.001  19.084   1.611  0.0920 -0.0247  0.1965
31058W        W47192   4.581   0.962  11.132 -0.0345 -0.1807 -0.3654
31059W        W47193  14.187   1.351  10.574  0.0762 -0.0395  0.3600
31060W        W47194   7.869  10.333  12.670  0.1786  0.3208  0.0568
31061W        W47195   7.014  12.801  13.693  0.0047 -0.3975 -0.2397
31062W        W47196  14.893   1.052   2.065  0.2631 -0.3474  0.1375
31063W        W47197  18.399  11.657   2.858 -0.1495  0.0698  0.1806
31064W        W47198   8.302   1.506  11.978  0.2851 -0.1546 -0.0832
31065W        W47199   3.586   9.302  11.829 -0.0136  0.2270 -0.4086
31066W        W47200   0.436   4.552  11.997  0.2715 -0.1943 -0.1107
31067W        W47201  18.037   7.150   3.084  0.1927  0.0234 -0.0282
31068W        W47202   0.285  13.719   3.179  0.2613  0.0453 -0.0746
31069W        W47203   4.336  12.655  13.197 -0.1679 -0.1932  0.1001
31070W        W47204   5.493   3.748   4.926  0.2104  0.2051  0.1030
31071W        W47205   5.260   5.354   1.650 -0.0888  0.1113 -0.3497
31072W        W47206   4.967   2.598  12.395 -0.1948  0.4363  0.0504
31073W        W47207  17.823   9.272   3.195 -0.0655  0.2055  0.0216
31074W        W47208  10.587  11.094   4.664  0.0350  0.0373  0.0170
31075W        W47209   9.505  18.157  12.216 -0.1718  0.1077  0.0660
31076W        W47210   4.496  15.234   0.861  0.1385  0.2254  0.2808
31077W        W47211  11.344   9.293  13.138 -0.3122  0.2597 -0.2084
31078W        W47212  17.864  14.924  10.606  0.0753  0.2493 -0.0057
31079W        W47213  18.257   7.734   0.802 -0.3738  0.0828 -0.1404
31080W        W47214   9.949  11.670   0.128  0.1554  0.1979 -0.0341
31081W        W47215   1.077   9.574  13.521 -0.0876  0.0142 -0.2305
31082W        W47216  19.268   2.112   2.286  0.0640  0.1431  0.4294
31083W        W47217   5.035  14.637   2.972  0.1164 -0.0485  0.1660
31084W        W47218   6.926  19.113   9.447 -0.2218  0.3441  0.1473
31085W        W47219  14.665   6.516  12.401 -0.1777  0.1017 -0.2718
31086W        W47220   7.157   8.479  13.251  0.1277  0.1586 -0.0736
31087W        W47221   5.076  12.404  12.155  0.1122 -0.2896 -0.1942
31088W        W47222   9.660   8.799  13.276  0.1202 -0.2264 -0.2692
31089W        W47223   1.929   2.821  14.944 -0.2483 -0.4913  0.2314
31090W        W47224   9.834   3.529  10.376  0.0636 -0.2844  0.0975
31091W        W47225   3.986   2.254   9.441 -0.3282  0.3023 -0.1550
31092W        W47226  14.914  16.346   9.830  0.4707 -0.2463 -0.3941
31093W        W47227   1.784  13.207  11.173 -0.1541 -0.0782  0.4466
31094W        W47228   9.124  11.455  10.999 -0.1615  0.1661  0.3109
31095W        W47229  16.740   8.533  12.591  0.1096 -0.1665  0.0655
31096W        W47230   4.104  15.678   3.123 -0.0063  0.0076 -0.0354
31097W        W47231   4.771  18.073   2.489 -0.0387  0.2087  0.2155
31098W        W47232  15.540  12.632  13.518  0.1338  0.0139 -0.0265
31099W        W47233  15.435   3.492   4.489 -0.2333  0.0790 -0.0250
31100W        W47234   1.645  15.490  14.574  0.1682 -0.0519  0.0665
31101W        W47235   4.529   5.738  11.968 -0.4053 -0.1553 -0.3409
31102W        W47236  13.746  14.853  11.865  0.0532  0.1204 -0.0129
31103W        W47237  15.554  16.008   1.571 -0.1650  0.3085 -0.3269
31104W        W47238  15.719   9.040  13.646  0.0792  0.1414 -0.0045
31105W        W47239   6.223   8.378   0.394  0.3003 -0.0105 -0.3546
31106W        W47240   2.012  11.034   2.852  0.2357  0.1567 -0.0074
31107W        W47241   0.139  17.566  14.843  0.6053  0.2692  0.2359
31108W        W47242   6.977   7.957   1.018 -0.2739  0.1747  0.0465
31109W        W47243  17.041  18.822  11.483 -0.1421 -0.1615 -0.2250
31110W        W47244   5.873  10.945   0.126  0.0225  0.1861 -0.0236
31111W        W47245   3.756   1.851   1.648 -0.1847  0.0543 -0.3508
31112W        W47246   0.409  10.202   1.100  0.2349 -0.4286  0.0990
31113W        W47247  11.856  12.139  11.704 -0.0240  0.1697  0.1719
31114W        W47248  13.121  12.963  14.044  0.0365  0.0046  0.3220
31115W        W47249   5.399  19.245  12.385 -0.0271 -0.2429 -0.2749
31116W        W47250   3.753  18.392  14.151 -0.1951 -0.1613  0.3765
31117W        W47251  15.629  17.945   0.709  0.2530 -0.0847 -0.1506
31118W        W47252  15.093   8.624   3.938  0.0841 -0.0814 -0.3541
31119W        W47253  18.431   5.559   3.365  0.2235 -0.1348  0.2420
31120W        W47254   2.730  11.171  13.236  0.3346 -0.0107  0.1638
31121W        W47255   5.796  16.910  13.180 -0.0346 -0.0205 -0.1952
31122W        W47256   3.026  13.268   1.400 -0.1534  0.3096 -0.1471
31123W        W47257  13.242   9.918  12.332  0.0071 -0.1104  0.0087
31124W        W47258   9.162  11.706   3.545  0.0909 -0.0948  0.0740
31125W        W47259   0.088   0.259   0.737 -0.1469 -0.0753 -0.1178
31126W        W47260  17.693  14.014   3.247 -0.0838 -0.0029  0.1061
31127W        W47261   5.365  16.800   2.743  0.1163 -0.0969 -0.0054
31128W        W47262  18.469   9.391   0.070 -0.2726 -0.1820 -0.1010
31129W        W47263   3.276   4.429   1.020  0.0248 -0.1239 -0.0095
31130W        W47264  19.175  12.275   2.504  0.4435 -0.0167  0.1170
31131W        W47265  17.413  16.465  13.959  0.0601 -0.4199 -0.1185
31132W        W47266  19.266  18.046   2.925 -0.1328 -0.1853  0.1506
31133W        W47267  10.833   4.473   2.618 -0.1703  0.2588  0.0550
31134W        W47268   2.400   3.129  13.571 -0.0819 -0.0143  0.4238
31135W        W47269   7.221   0.880   4.352 -0.0741 -0.0393 -0.2034
31136W        W47270   8.633   7.615   4.736 -0.0851 -0.1647 -0.0615
31137W        W47271   4.261   3.543  11.933  0.0828 -0.2014 -0.1682
31138W        W47272  16.048  14.356  12.135  0.0867  0.5314  0.0238
31139W        W47273  17.265   5.683  10.040 -0.2744  0.1494  0.0798
31140W        W47274   0.835  13.781   9.015 -0.0272 -0.0973  0.0933
31141W        W47275  17.968   3.126  13.121 -0.1542  0.0186  0.1566
31142W        W47276  12.019   2.483  12.569  0.3103 -0.1490  0.0438
31143W        W47277   7.200   6.204  11.449 -0.2029 -0.4702  0.2142
31144W        W47278   1.619  12.850  11.459  0.1355 -0.0145  0.0692
31145W        W47279  16.319   5.499  13.600 -0.2136 -0.0771  0.2232
31146W        W47280   4.038  18.119  14.783 -0.3261  0.0522 -0.3671
31147W        W47281  17.478   9.116  10.549 -0.0060 -0.0642  0.3167
31148W        W47282   4.764  16.122   0.513 -0.1515  0.2592  0.0677
31149W        W47283   7.605  11.509   3.983  0.0336 -0.0541  0.0635
31150W        W47284   9.973   7.639  10.728 -0.0887 -0.0232 -0.0329
31151W        W47285  13.618   0.096   4.863 -0.0239  0.0116  0.1540
31152W        W47286   3.404   9.771   9.619 -0.0417 -0.0531 -0.1613
31153W        W47287   0.961  16.384   1.755 -0.1729  0.1144 -0.0277
31154W        W47288   0.805   8.036   0.559 -0.0752  0.2570  0.0130
31155W        W47289   2.057   3.584  14.228  0.2813 -0.0688 -0.5422
31156W        W47290  18.398   2.611  10.406 -0.1359 -0.2214  0.0627
31157W        W47291  11.403  16.275   4.749  0.0168  0.2330 -0.2344
31158W        W47292   3.670   5.956   0.652  0.0843 -0.0959 -0.2575
31159W        W47293   9.947   1.009   1.696 -0.4163 -0.0834 -0.2774
31160W        W47294  10.555  14.486  12.671 -0.1198  0.0646  0.0348
31161W        W47295  10.478   2.877   3.711  0.1329  0.0936 -0.0405
31162W        W47296   4.033  10.618  11.095 -0.0276  0.3035  0.1419
31163W        W47297   7.045  17.734  13.919 -0.1509 -0.0652 -0.0146
31164W        W47298   9.620   4.265   2.844  0.0309  0.0782  0.2118
31165W        W47299   0.493   9.696   0.994 -0.1543  0.3499 -0.0793
31166W        W47300  15.065   0.330   4.950  0.1206  0.0804  0.1132
31167W        W47301   2.033   5.984   2.545 -0.0490  0.1023 -0.0697
31168W        W47302  16.294   4.255  10.509  0.0572 -0.1909 -0.1421
31169W        W47303  12.115  12.115   0.055  0.3973  0.0729 -0.2366
31170W        W47304   9.128   4.424   3.773  0.0127 -0.0376  0.0844
31171W        W47305   3.710   2.456   0.787 -0.1130 -0.0430  0.0047
31172W        W47306  15.803   0.012  12.148 -0.0785  0.1743 -0.0190
31173W        W47307   5.186  14.272  12.672 -0.4844  0.1029  0.2704
31174W        W47308   1.809   4.156   4.545 -0.1561 -0.0088  0.0565
31175W        W47309   6.296   6.824   9.999 -0.0568  0.2755 -0.0884
31176W        W47310   2.116  15.496  10.994  0.1622  0.2593 -0.0567
31177W        W47311  16.137   3.924  10.183  0.3866 -0.1014  0.2041
31178W        W47312   0.923   8.234  12.952 -0.1481  0.0591 -0.0196
31179W        W47313  18.400   1.939   3.963 -0.1382  0.0892  0.2100
31180W        W47314   8.794  14.284   0.717 -0.2142  0.0066 -0.1243
31181W        W47315   4.635   6.773  12.687 -0.0818  0.0808 -0.0525
31182W        W47316   2.575  15.464  11.259 -0.1048 -0.0923 -0.2207
31183W        W47317   8.443   5.140  10.338  0.2615  0.0005  0.2372
31184W        W47318   3.080  15.728   0.415  0.1266  0.0827 -0.2695
31185W        W47319   8.579   5.864   5.504  0.2687 -0.1622 -0.1309
31186W        W47320   7.281   6.133   4.588  0.2778 -0.0083 -0.3078
31187W        W47321   3.209  16.775  13.903 -0.1168 -0.2689  0.5785
31188W        W47322   3.778  14.419  13.673 -0.0365 -0.0064  0.0871
31189W        W47323   4.297  13.616   2.651  0.2486  0.1561  0.2461
31190W        W47324  17.262   7.208  12.521  0.1135  0.0840  0.3398
31191W        W47325   2.842   7.143   1.366  0.1338  0.0414 -0.0051
31192W        W47326   4.718  10.804   1.133  0.1147  0.0122 -0.0160
31193W        W47327   2.397   5.118   0.073 -0.0988 -0.3171 -0.2757
31194W        W47328   3.169  18.201   2.094  0.3009 -0.4000  0.0529
31195W        W47329  17.448   8.655   9.534 -0.0523  0.2555 -0.0658
31196W        W47330  13.789   3.919  14.073  0.0873 -0.0391  0.2914
31197W        W47331   2.240  13.078   2.495 -0.3322  0.1922 -0.2363
31198W        W47332   0.432   1.583  11.586  0.0436 -0.1130  0.0432
31199W        W47333  17.572   6.839  14.327  0.1077 -0.2184 -0.2433
31200W        W47334   2.764  11.466   0.696 -0.0896 -0.1549 -0.1933
31201W        W47335  13.865  18.426   4.004 -0.1956 -0.2173 -0.1020
31202W        W47336   3.039  15.390   4.623  0.0001  0.0911 -0.0453
31203W        W47337   0.885   0.525  10.224 -0.2453 -0.5272 -0.3110
31204W        W47338  13.009  14.052   4.300  0.1434  0.0598  0.1173
31205W        W47339  13.278   1.039  13.993 -0.2910 -0.3128  0.0636
31206W        W47340  17.222   2.039  13.057 -0.1349 -0.3076 -0.1533
31207W        W47341  14.638  12.393  12.833  0.1003  0.2147 -0.1167
31208W        W47342   1.407   6.272  13.918 -0.1513 -0.0267 -0.3991
31209W        W47343  16.553   2.333   4.506 -0.0003 -0.1182 -0.1160
31210W        W47344   1.693   5.708  10.410 -0.0540 -0.2159  0.0001
31211W        W47345  18.038   3.851   5.042  0.0551  0.1012 -0.3205
31212W        W47346   1.147   7.939  11.289 -0.0467  0.1962  0.1514
31213W        W47347   5.274   6.378   9.965  0.0096  0.1955 -0.0308
31214W        W47348   1.631  11.153   1.613 -0.0489  0.0641  0.1498
31215W        W47349   9.719  18.439  11.801  0.2291 -0.1558 -0.0332
31216W        W47350  17.999   2.393   0.365 -0.2445  0.3715  0.0131
31217W        W47351  17.425   5.542  11.052  0.1328  0.1551 -0.2659
31218W        W47352   6.864   4.931   2.280 -0.0524 -0.0962  0.0640
31219W        W47353   4.855  14.202   1.555  0.0306 -0.0623  0.3622
31220W        W47354  12.947   2.972  10.044  0.1012 -0.1424 -0.2465
31221W        W47355   0.848  16.522   2.750  0.1819  0.1972 -0.0185
31222W        W47356   8.586  13.402  14.459 -0.1968 -0.0233  0.2174
31223W        W47357  11.747   7.978  13.385 -0.1063  0.2846  0.1591
31224W        W47358  18.802   3.180  14.914 -0.0158  0.0534  0.1658
31225W        W47359   3.617   8.029   0.283  0.0256  0.3172  0.1440
31226W        W47360   1.927   6.347  10.124  0.0333 -0.2401 -0.0009
31227W        W47361   1.560   2.518   5.166 -0.0974 -0.0002  0.0710
31228W        W47362  15.073  15.926   2.768 -0.2656 -0.2241  0.1655
31229W        W47363   1.571  17.098  13.173 -0.0561 -0.0723  0.0138
31230W        W47364   9.460   4.596   1.212  0.1516  0.2387  0.0398
31231W        W47365  19.313   7.467   1.493 -0.0433  0.0636 -0.0049
31232W        W47366  11.068  15.092   3.687 -0.0109 -0.3595 -0.3533
31233W        W47367  17.314  11.058   9.823 -0.4459 -0.0883  0.1267
31234W        W47368  17.544   7.876  14.618  0.2278  0.0638 -0.0900
31235W        W47369   1.319  14.991   3.477 -0.1371  0.2306  0.1629
31236W        W47370   6.987   9.968   0.766 -0.0135 -0.1576  0.2096
31237W        W47371   6.938   4.350   0.193 -0.0892 -0.0015  0.3146
31238W        W47372   1.773   2.712   4.125  0.4441 -0.1427 -0.2381
31239W        W47373   2.325  11.989  13.007 -0.1122  0.0074  0.0759
31240W        W47374  17.256   5.812  14.396 -0.0571 -0.0370 -0.3969
31241W        W47375  16.349  18.408  12.928 -0.0848  0.0528 -0.2055
31242W        W47376   9.104  18.815  12.559 -0.0660  0.2587  0.1283
31243W        W47377  17.815  17.771  14.341  0.2201 -0.4023  0.2494
31244W        W47378  14.440  12.721   3.734 -0.1147  0.0984 -0.0008
31245W        W47379  19.335  15.364   0.823 -0.2803 -0.0421 -0.0159
31246W        W47380  12.964  10.521   0.479 -0.0896  0.3665 -0.0947
31247W        W47381  10.630   4.883   1.281  0.0596 -0.7442  0.1139
31248W        W47382  11.465  10.903   4.828 -0.3915  0.0532  0.0636
31249W        W47383  11.492  13.965   0.289  0.1717  0.2368  0.1270
31250W        W47384  13.198   3.898  11.281  0.0062 -0.1159  0.2045
31251W        W47385  16.708   9.790  12.878 -0.3904 -0.4935 -0.2886
31252W        W47386  10.122  15.256  14.001 -0.1166 -0.1341 -0.2837
31253W        W47387   3.264  14.664   5.287  0.1291 -0.1162  0.2870
31254W        W47388   3.412  12.461   0.291  0.0124 -0.2974  0.2211
31255W        W47389  10.468  13.557   1.987 -0.1578  0.1153  0.0187
31256W        W47390   6.027  15.674  13.162 -0.0986  0.2703  0.3278
31257W        W47391  14.484  16.877  13.110 -0.0282  0.0203 -0.3221
31258W        W47392  10.756   4.487   3.618  0.1924  0.4246  0.0089
31259W        W47393  17.247   1.722  12.698  0.0990 -0.0585  0.4800
31260W        W47394  18.037   6.800  12.402 -0.0056  0.0642  0.1354
31261W        W47395  10.757  18.861   2.402  0.1609 -0.0191  0.0431
31262W        W47396  11.578   0.624  13.913 -0.0202 -0.1334  0.1023
31263W        W47397   3.020   1.471  12.759 -0.1411  0.1923  0.0731
31264W        W47398  17.191  14.159  10.582 -0.0581 -0.3296  0.2447
31265W        W47399   8.070  16.688   0.555 -0.0686 -0.2315  0.2326
31266W        W47400   3.288   9.242   4.426 -0.0680  0.3568  0.2809
31267W        W47401   1.633  10.782   4.900  0.1510  0.1309 -0.0366
31268W        W47402  18.554   6.957   4.131  0.1166 -0.0342  0.0922
31269W        W47403   7.952   7.440   1.356  0.3395  0.1067  0.0411
31270W        W47404   5.249   1.200   3.260  0.0033  0.4418 -0.1555
31271W        W47405  10.151   3.595   1.353 -0.2938 -0.2787 -0.2057
31272W        W47406  12.263   1.139   0.232 -0.0160  0.2067  0.3045
31273W        W47407  10.241  10.758  14.247  0.0800  0.1756  0.0777
31274W        W47408  19.122   9.966   1.625 -0.2694 -0.1052 -0.1560
31275W        W47409  17.216  17.718  14.530  0.0453 -0.2346 -0.0804
31276W        W47410  13.284   2.760  13.735  0.2472 -0.1782 -0.4439
31277W        W47411  11.529  17.905   5.548 -0.1076  0.0856  0.2163
31278W        W47412   1.122  17.227  10.760 -0.0754  0.2501  0.1053
31279W        W47413   0.311   9.497   0.601 -0.0306 -0.0043 -0.1751
31280W        W47414   9.827   6.762  10.630  0.1223  0.0482  0.1733
31281W        W47415  16.530  18.763   4.015  0.1914 -0.1397 -0.0579
31282W        W47416   4.181   8.461   3.787 -0.0843 -0.3367  0.0016
31283W        W47417  14.218  14.560  13.087  0.3068  0.2405  0.0563
31284W        W47418  18.038  16.010   3.253  0.1111 -0.3692  0.0453
31285W        W47419  12.163  18.882   2.336  0.0112  0.0350 -0.1228
31286W        W47420  10.022  12.979   3.157  0.0587  0.2065 -0.1699
31287W        W47421  16.383   7.933  13.959  0.2175 -0.1652 -0.0976
31288W        W47422   2.441   6.116   3.729 -0.0671  0.2190  0.2281
31289W        W47423   4.118   9.311  14.055  0.2054  0.0992  0.5195
31290W        W47424  13.913   9.979  13.463  0.2085  0.0568  0.0889
31291W        W47425   2.925   0.173  13.289 -0.2682 -0.2167  0.0550
31292W        W47426  13.304   9.128   2.110  0.0014 -0.4322  0.4577
31293W        W47427   3.165   2.379   3.292  0.2043  0.0033  0.0577
31294W        W47428   1.207  12.114   3.471 -0.1195 -0.5246 -0.1561
31295W        W47429   7.484   8.569  14.855  0.1978 -0.1034  0.2233
31296W        W47430   0.020  10.448   0.943  0.4291 -0.1022 -0.1377
31297W        W47431   8.483  19.321  13.320 -0.1246  0.1402 -0.2388
31298W        W47432   7.577   9.734   8.788 -0.0565 -0.0738 -0.1026
31299W        W47433  18.649   0.446  14.332  0.3057 -0.1830 -0.0428
31300W        W47434  11.063   0.631  14.969  0.2590 -0.1882  0.3216
31301W        W47435  17.456   4.725  14.113 -0.0479  0.0215 -0.0618
31302W        W47436   9.649  14.012  13.891 -0.2055  0.1989 -0.1486
31303W        W47437   3.692   5.695  12.769  0.0168  0.1026 -0.1439
31304W        W47438  16.174   4.693  11.911  0.0847 -0.0833 -0.0158
31305W        W47439  19.343  16.648   0.927 -0.1213  0.0631 -0.1865
31306W        W47440  18.114   1.817   2.337 -0.0627 -0.0346  0.0968
31307W        W47441   0.047  18.197   2.478  0.2046 -0.2496  0.2614
31308W        W47442  12.755   5.401  12.977  0.3544 -0.0350  0.1201
31309W        W47443   2.681   0.866   1.683  0.0089  0.0953  0.0812
31310W        W47444  18.781  18.765  12.371  0.0619 -0.2154 -0.2402
31311W        W47445   3.865   7.555   1.869  0.0068 -0.0275 -0.0679
31312W        W47446   6.844   4.455  11.267 -0.0161  0.2549 -0.0650
31313W        W47447   0.729   2.674  14.646 -0.1693  0.0339 -0.0665
31314W        W47448   3.849   9.115   3.180 -0.0795  0.0023  0.0924
31315W        W47449   4.325  16.948  12.899 -0.0110  0.0646  0.0887
31316W        W47450  11.220  13.601   1.290 -0.0144  0.0973  0.0026
31317W        W47451  16.806   3.078   0.989  0.0565  0.1396 -0.4021
31318W        W47452   4.374  11.850   3.005 -0.0663 -0.1472  0.0798
31319W        W47453  12.799  17.512   2.457  0.1522  0.2160 -0.0342
31320W        W47454  18.418  16.806   4.818 -0.1848  0.2220 -0.0006
31321W        W47455  16.834   1.871  10.413  0.3506 -0.0640  0.2111
31322W        W47456   1.700   4.103  13.422 -0.0028 -0.0642  0.1823
31323W        W47457  18.627  14.014   0.697  0.0417 -0.1747  0.0744
31324W        W47458   7.910  17.644  12.295  0.0216  0.0501  0.1595
31325W        W47459  15.122   4.240  12.607  0.2957 -0.0079  0.5824
31326W        W47460  13.972   0.502   0.116  0.0078 -0.1019 -0.1993
31327W        W47461  15.113  18.151   5.804  0.2524 -0.2026  0.0381
31328W        W47462  11.594  19.352   4.793  0.0004 -0.3406  0.2073
31329W        W47463  17.870   8.088   0.522 -0.1698 -0.4349  0.3864
31330W        W47464  11.486  13.996   5.101  0.1034 -0.1779  0.1453
31331W        W47465   2.699  11.813   0.321  0.1614 -0.0627 -0.1339
31332W        W47466  12.598   8.420  11.062  0.2825 -0.0930 -0.2078
31333W        W47467   1.885  16.725  11.711 -0.2620  0.0527  0.0230
31334W        W47468   1.080   8.060   1.819  0.0008  0.2011  0.4538
31335W        W47469   5.015  13.708   3.589 -0.1249 -0.0593  0.2117
31336W        W47470   3.522  16.893   4.193  0.1210 -0.0216 -0.0960
31337W        W47471   9.794   1.963  14.729 -0.1261  0.0438 -0.2059
31338W        W47472   6.323   5.453  13.712 -0.0069 -0.2397 -0.1030
31339W        W47473  12.473  18.841  13.238  0.2526 -0.1140  0.0953
31340W        W47474  14.847  17.687   0.340 -0.1595 -0.0230  0.1794
31341W        W47475  19.112   8.548  14.008  0.0624 -0.2298  0.0710
31342W        W47476  16.170   9.583   4.882  0.0673  0.2457 -0.2582
31343W        W47477  12.398  12.283   2.660  0.2693  0.3303 -0.0659
31344W        W47478  10.612   6.923  14.317 -0.0745 -0.1297 -0.0607
31345W        W47479  12.402   2.612  12.883 -0.1678 -0.2051 -0.2302
31346W        W47480  14.756   6.588  10.231 -0.0481 -0.1394 -0.0873
31347W        W47481  16.577   5.788   3.457 -0.0665 -0.0720 -0.1313
31348W        W47482   5.181   3.947   1.167  0.0277 -0.1119 -0.1508
31349W        W47483   4.524  13.698  11.921 -0.1241 -0.1857 -0.0735
31350W        W47484   6.075  10.292  14.273 -0.1000  0.0478  0.2753
31351W        W47485  13.526  16.782   1.063 -0.0157  0.2126 -0.0167
31352W        W47486   3.164   5.649   0.491  0.0510  0.0576 -0.2384
31353W        W47487  17.963  13.576   3.045 -0.0289 -0.0857 -0.2764
31354W        W47488  15.952  18.358   1.231  0.2662 -0.5814  0.1467
31355W        W47489  13.716   4.851  13.326  0.2348  0.2779  0.2891
31356W        W47490   6.688   5.707  11.295 -0.0103  0.2020  0.0638
31357W        W47491  18.528   3.574   4.108 -0.1486  0.2025  0.0013
31358W        W47492   1.484  16.707   0.160  0.1843  0.0888  0.4845
31359W        W47493   0.960  15.260   4.295 -0.2076  0.1201  0.0070
31360W        W47494   7.580   8.380   1.579  0.0063  0.1410 -0.0933
31361W        W47495  17.819  15.476   1.043 -0.1630 -0.2000  0.2293
31362W        W47496   0.902   4.647   2.317  0.3286  0.0285 -0.3341
31363W        W47497  17.136   8.822  12.225 -0.0114  0.1539 -0.0403
31364W        W47498   1.946  10.926   0.306 -0.1366 -0.2062 -0.1004
31365W        W47499  15.251  15.144  12.861 -0.2280 -0.0622  0.0138
31366W        W47500   8.445   0.538   1.218 -0.1696 -0.1429  0.0690
31367W        W47501   0.131   8.262   4.562 -0.0454 -0.1895 -0.0185
31368W        W47502   4.797  17.261  12.920  0.0850 -0.1406 -0.2055
31369W        W47503  13.671   0.154   0.299  0.1128  0.0106 -0.1580
31370W        W47504   9.224  13.348   5.026 -0.0195 -0.2190 -0.0790
31371W        W47505  10.009  16.371   5.191  0.0919  0.0031  0.0224
31372W        W47506  12.641  14.291   4.585  0.0473  0.1045  0.0339
31373W        W47507   4.933  10.680  12.124  0.2134 -0.2587 -0.1354
31374W        W47508  15.771  17.112   1.264 -0.3669  0.1124 -0.1040
31375W        W47509  19.282   7.429  13.559 -0.2988 -0.2839 -0.1392
31376W        W47510   3.218  19.319   4.134  0.1976  0.0929  0.2598
31377W        W47511  12.445  14.229  12.914 -0.1743  0.2016  0.3498
31378W        W47512   1.031   9.708  11.423  0.3750  0.0185 -0.0734
31379W        W47513   0.282   6.963  10.856  0.3668  0.1149  0.0845
31380W        W47514  11.590  10.057   1.019  0.0960  0.1057  0.2119
31381W        W47515  18.609   6.366   0.884  0.0485 -0.4434 -0.1621
31382W        W47516   4.949   9.913  13.341  0.2325 -0.0785 -0.0323
31383W        W47517  18.501   9.949   4.734 -0.1648  0.1674 -0.0465
31384W        W47518  16.347  18.956  14.613  0.1398  0.0409  0.2399
31385W        W47519   9.932  10.972   3.788  0.3613 -0.3547  0.1778
31386W        W47520   3.060  11.281  10.879 -0.0492  0.1455 -0.0569
31387W        W47521  12.840   7.125  13.879 -0.0534 -0.2154 -0.1839
31388W        W47522  16.925   4.819  11.058 -0.2178 -0.3744 -0.4656
31389W        W47523   4.829   5.396   3.332  0.1104 -0.2253  0.0682
31390W        W47524   7.321   1.802   3.285  0.1423  0.2186 -0.0146
31391W        W47525   6.468  10.680   2.424  0.2219  0.2213  0.0102
31392W        W47526  11.838   1.800  13.182  0.1658  0.0359  0.1062
31393W        W47527   6.392   0.668  11.149  0.2539 -0.0438  0.0467
31394W        W47528   8.065   1.845   3.570  0.2252  0.3480 -0.1346
31395W        W47529   4.045   3.735  10.129  0.2426  0.1496  0.2948
31396W        W47530   8.666  17.508   3.032 -0.1344  0.0538  0.1293
31397W        W47531  18.340  12.758  12.421  0.2683  0.0868 -0.0392
31398W        W47532  19.215  14.447  10.591  0.1615 -0.3566  0.1484
31399W        W47533  10.137  12.766   3.552 -0.1098  0.2256 -0.1580
31400W        W47534  11.902  19.257   2.601 -0.0050 -0.0451 -0.4066
31401W        W47535  11.353  16.289   5.885 -0.0505 -0.2719  0.1150
31402W        W47536  10.173   2.717   3.233 -0.1781  0.3786 -0.5561
31403W        W47537   2.476  12.817  13.058  0.0639  0.4462  0.5633
31404W        W47538  18.399  18.356  12.021  0.0472  0.2125 -0.1840
31405W        W47539  10.820  12.386   4.719 -0.1625 -0.2095  0.1511
31406W        W47540   5.205   4.020  13.472 -0.2797  0.0446 -0.2085
31407W        W47541  11.067   6.161  12.304 -0.1257 -0.2386 -0.1989
31408W        W47542  18.333  17.641   3.284  0.2172  0.0724  0.0230
31409W        W47543   7.315   4.485  11.619 -0.2428 -0.0488 -0.2418
31410W        W47544  10.158   6.565  12.513 -0.0967  0.1614 -0.2672
31411W        W47545   7.786  10.633   1.758 -0.2676 -0.1564 -0.0253
31412W        W47546  15.081   5.585  11.717 -0.1380  0.1076  0.0992
31413W        W47547   0.279   9.641   4.841  0.0163 -0.0680  0.0295
31414W        W47548  16.011  12.311   5.295 -0.1077 -0.3303  0.0786
31415W        W47549  13.724   6.284   1.325 -0.1920  0.0394 -0.4778
31416W        W47550   6.790  15.603  12.840  0.0833  0.2244  0.2477
31417W        W47551  18.317   2.035  14.559 -0.0098  0.1292  0.0650
31418W        W47552  19.167  11.393  13.101  0.1513  0.0125  0.2929
31419W        W47553   1.109   3.097   3.428 -0.4117  0.2154 -0.2368
31420W        W47554  15.308   2.562  14.151  0.2391 -0.1298 -0.0568
31421W        W47555   5.894  15.214  13.967  0.0589 -0.2845  0.1586
31422W        W47556  11.468   3.495   1.249  0.0528  0.1199 -0.0541
31423W        W47557   0.466  10.321   4.413  0.1888 -0.0175 -0.0237
31424W        W47558  10.158  14.391   2.155  0.2137  0.0011  0.0388
31425W        W47559  13.511   5.269  14.772 -0.2248 -0.1292  0.0551
31426W        W47560   5.521   8.304  13.096  0.0563 -0.1527  0.3028
31427W        W47561  15.960  14.677   5.497  0.0166 -0.0721  0.0887
31428W        W47562   4.215   1.602   4.487  0.0735  0.0548 -0.8564
31429W        W47563  16.670   3.155  13.705  0.1312 -0.0533  0.1214
31430W        W47564  14.943  14.493   0.090  0.1529  0.1098  0.1480
31431W        W47565  11.844   7.814   3.083  0.2469 -0.0330 -0.0896
31432W        W47566  11.075   8.372   4.420 -0.0182  0.2328 -0.1189
31433W        W47567   5.609  17.968  13.135  0.3824  0.1350  0.1062
31434W        W47568  17.278   4.513   0.040  0.0003  0.0768  0.2988
31435W        W47569   0.272  10.938  13.717 -0.1969 -0.0471  0.2721
31436W        W47570   3.653   7.106  11.123 -0.0358 -0.0664 -0.0019
31437W        W47571   6.532  17.798  11.611 -0.0005  0.0980  0.3336
31438W        W47572   4.105  12.679   9.995  0.1724 -0.1028  0.0110
31439W        W47573  11.110  12.952  10.523 -0.0033 -0.0941  0.0277
31440W        W47574  16.797   5.493  10.272  0.0951  0.1854 -0.2750
31441W        W47575  13.625   8.825  10.996  0.1720 -0.1149 -0.0145
31442W        W47576   4.571   4.814  14.299  0.0983 -0.2055  0.2087
31443W        W47577  18.303  15.538   3.366 -0.0787 -0.2375  0.2644
31444W        W47578   1.469   0.890   4.210  0.1145 -0.4185  0.2160
31445W        W47579  15.920  15.679   2.492 -0.1076 -0.1817  0.1593
31446W        W47580  15.332   8.177  12.293 -0.3881 -0.4268  0.2791
31447W        W47581   7.751   5.119   4.147 -0.1891 -0.1017 -0.1013
31448W        W47582  13.339  13.479   2.452  0.4603  0.0242 -0.0460
31449W        W47583  10.900   7.329  10.945 -0.0271 -0.2814  0.2505
31450W        W47584   9.616   0.923   1.302  0.4349 -0.0689 -0.2554
31451W        W47585  11.389  12.000  14.385  0.1834 -0.1634  0.0167
31452W        W47586   6.977  17.648   2.906 -0.1117 -0.0831 -0.0291
31453W        W47587   9.466  16.417  14.529 -0.0686 -0.0324  0.0403
31454W        W47588   0.931  10.519   2.739  0.0142 -0.1436  0.0591
31455W        W47589   9.718   2.323   0.956 -0.0756  0.1277 -0.2403
31456W        W47590   8.956  10.686  12.682 -0.3905 -0.0132  0.1826
31457W        W47591   5.065  13.261   0.570 -0.2662  0.1717  0.0326
31458W        W47592   1.390  11.205  10.379 -0.2911  0.1744  0.0186
31459W        W47593   7.549   1.957   0.748  0.2848 -0.2783 -0.0750
31460W        W47594   5.028   7.321  14.628 -0.0279 -0.3994 -0.0643
31461W        W47595  17.330   4.851   9.888 -0.1653 -0.2148  0.2764
31462W        W47596   2.077   3.902  10.113 -0.1484 -0.0271 -0.0108
31463W        W47597   8.692  18.874   5.775 -0.0697  0.0293  0.1862
31464W        W47598   6.640  17.462  12.313 -0.1013  0.0598 -0.0862
31465W        W47599  11.266  14.355   4.858 -0.0320  0.1132 -0.0419
31466W        W47600   5.962  13.280   3.358  0.2155  0.0275 -0.2451
31467W        W47601  10.124   0.920   3.039  0.0427  0.2213  0.2299
31468W        W47602   8.040   7.958  10.877  0.0170 -0.1499 -0.1038
31469W        W47603  17.738   0.356  10.796 -0.2076  0.0701 -0.0906
31470W        W47604  17.647  16.118   2.972 -0.2630 -0.0553  0.2405
31471W        W47605  17.661   9.370   4.839 -0.1566 -0.3350 -0.0536
31472W        W47606   3.794  11.835  11.576 -0.2176 -0.4790 -0.4098
31473W        W47607   4.517   6.153   1.624  0.2900 -0.1740 -0.1071
31474W        W47608   2.979   1.612  12.289 -0.1576 -0.0255 -0.0018
31475W        W47609   7.336  10.503   3.541 -0.1777  0.0356  0.2118
31476W        W47610   1.846   2.705   1.053  0.0442  0.0551 -0.1949
31477W        W47611  17.630  16.670  11.678 -0.1422  0.0607  0.0915
31478W        W47612  11.473   9.899  12.872  0.1512  0.3220  0.1197
31479W        W47613   7.788  12.626  13.809 -0.2111 -0.0521  0.1864
31480W        W47614   5.179  17.525  12.688  0.4539 -0.1716  0.1157
31481W        W47615  18.394   3.556  10.454  0.1479 -0.3037  0.0911
31482W        W47616   8.734  14.238   2.823 -0.2474  0.1292 -0.2769
31483W        W47617  14.060  18.077  13.541 -0.2522  0.3133 -0.1754
31484W        W47618   8.012  15.470   2.251 -0.1912 -0.0987  0.0637
31485W        W47619   4.662   8.110   1.048  0.2589 -0.0041  0.4647
31486W        W47620  17.628  13.889  11.126  0.0074 -0.1146  0.3609
31487W        W47621  10.854   3.351  11.850  0.0356  0.0297 -0.0901
31488W        W47622  15.726   6.284  14.106  0.0673  0.0814  0.2385
31489W        W47623  12.461   3.248  13.485  0.0128 -0.1688 -0.1190
31490W        W47624  13.711   7.196   0.589  0.0047  0.0785 -0.2362
31491W        W47625  13.365   1.417  11.070 -0.0503  0.3123 -0.1071
31492W        W47626   8.561   2.942  13.905  0.4895  0.1435  0.2351
31493W        W47627   4.078   0.437   4.148 -0.0439  0.2731 -0.2639
31494W        W47628  14.286  10.554  13.282 -0.0739 -0.1717  0.0493
31495W        W47629   7.716   5.921   5.309 -0.0142  0.2225 -0.3218
31496W        W47630   8.529   6.555   4.450  0.1132 -0.1302  0.3029
31497W        W47631  17.269   1.096   2.045 -0.1594  0.1711 -0.1646
31498W        W47632  11.083   8.949  11.052 -0.0962 -0.0530  0.1804
31499W        W47633  15.841  15.025   1.537 -0.0325 -0.0517  0.0175
31500W        W47634   3.939   5.114  10.186  0.2756  0.1213  0.0754
31501W        W47635  16.901   7.159  14.795  0.0244 -0.4924 -0.1401
31502W        W47636  18.543   9.790  11.517 -0.3293 -0.0126 -0.2419
31503W        W47637  18.899   5.062  12.160  0.0384 -0.0098 -0.1821
31504W        W47638   5.499   9.740  13.044 -0.1567 -0.2808 -0.3883
31505W        W47639  17.961  17.228  14.428 -0.3099  0.1699 -0.2991
31506W        W47640   2.433  11.360  11.772 -0.2358  0.2387 -0.0095
31507W        W47641  10.203  13.111   5.101 -0.1919  0.1159  0.2620
31508W        W47642   5.440   6.120   4.323 -0.0084 -0.0425  0.1856
31509W        W47643   2.130   3.706   5.067  0.1686 -0.0610 -0.2295
31510W        W47644   5.378   1.360   2.790 -0.0659  0.1142  0.3116
31511W        W47645   5.708   0.064  10.628  0.1836  0.1935 -0.0184
31512W        W47646   0.815  15.721   3.524  0.0226  0.0316  0.0801
31513W        W47647  15.326   4.205  12.098  0.0267  0.3368 -0.0539
31514W        W47648   6.228   8.497   2.970 -0.2994  0.2355  0.2275
31515W        W47649   4.690  18.245  13.979  0.1089  0.1124 -0.2924
31516W        W47650  16.779   2.903  11.284 -0.1539  0.0785  0.1010
31517W        W47651  11.680  17.389  12.363 -0.0954 -0.2321 -0.2234
31518W        W47652  11.988  13.598  10.069  0.2710  0.3019 -0.4718
31519W        W47653   9.358   6.520   1.215 -0.0780 -0.1925  0.2826
31520W        W47654  18.484   0.270  14.751 -0.0508  0.1983  0.0063
31521W        W47655  16.524   4.216   0.846 -0.0586  0.0211 -0.3296
31522W        W47656  17.750  13.117   0.131 -0.1964 -0.1236 -0.2427
31523W        W47657   1.045   5.101   2.118  0.2276 -0.1274 -0.0719
31524W        W47658   1.656   5.309  11.240  0.3746 -0.4750  0.3730
31525W        W47659   8.809   0.037  14.048  0.0408 -0.0312  0.1290
31526W        W47660  12.726   7.003  14.420 -0.2798  0.1705 -0.0196
31527W        W47661   7.739  14.455  14.027  0.0131  0.1196  0.0026
31528W        W47662  12.917  10.962   5.116  0.0279  0.2405 -0.0253
31529W        W47663   3.213   9.622   1.638  0.0635  0.0122  0.4885
31530W        W47664   2.618   5.333  12.319  0.0070 -0.0853  0.0984
31531W        W47665  17.530  16.985  11.046  0.2800 -0.2052  0.0749
31532W        W47666  14.289   8.744  12.568 -0.0103  0.0943 -0.1510
31533W        W47667  15.344  18.919  12.244 -0.0023  0.0148 -0.0782
31534W        W47668   3.778  16.340  12.154  0.2336 -0.1453  0.2327
31535W        W47669   9.160  12.517   3.150 -0.0410 -0.0974  0.0168
31536W        W47670  12.637   9.043   1.095  0.1690 -0.0397 -0.1495
31537W        W47671   3.706   7.960   1.595 -0.1756 -0.0307  0.2373
31538W        W47672   2.113   4.901  10.923  0.1064  0.2530  0.0943
31539W        W47673   0.883   1.180   5.550 -0.0944  0.0871 -0.0948
31540W        W47674  16.107  10.021   4.643 -0.2582  0.0523  0.2801
31541W        W47675   0.021  16.967   3.687 -0.1813  0.3985 -0.0148
31542W        W47676  17.671  18.974  14.099 -0.0008  0.0064  0.1026
31543W        W47677  17.074   1.599   1.219 -0.0593  0.2922 -0.1812
31544W        W47678  18.497  12.907  11.838 -0.1257 -0.0046 -0.2816
31545W        W47679  13.064   0.110  12.148 -0.0836  0.1089  0.0745
31546W        W47680  16.123   0.853  14.640 -0.0921  0.1965 -0.0723
31547W        W47681  18.383  15.497  11.118  0.1914 -0.3791  0.0580
31548W        W47682  15.258  16.410  10.707  0.0641 -0.1007 -0.0856
31549W        W47683   5.357  15.967   2.136  0.0903 -0.1420 -0.2688
31550W        W47684   6.031   9.628  13.180  0.0184  0.0652 -0.1348
31551W        W47685   8.543   4.768  12.506  0.0755 -0.0650 -0.0458
31552W        W47686  10.446  15.853   3.102 -0.0187  0.0773 -0.3395
31553W        W47687  13.053  14.854   2.929 -0.1712 -0.1217 -0.1950
31554W        W47688   5.799   0.293   4.386  0.0912 -0.2130 -0.1394
31555W        W47689   2.346  10.290  10.580 -0.3166  0.0021 -0.2974
31556W        W47690   0.521   1.790  10.410  0.0744  0.1330  0.0272
31557W        W47691   1.888   8.219  11.589  0.1486  0.2394  0.3492
31558W        W47692  15.596   5.507  14.217  0.2884  0.2207  0.0938
31559W        W47693   7.502  18.294   2.184 -0.0068  0.1680 -0.0085
31560W        W47694  10.809  10.241   2.376 -0.1776 -0.0305 -0.2069
31561W        W47695   3.653   5.729   3.923 -0.0701  0.0551 -0.0912
31562W        W47696   6.076   0.780   3.107  0.2891  0.1592  0.2403
31563W        W47697  15.365   8.332  10.141  0.0672  0.0487  0.0972
31564W        W47698  18.958  17.716   0.561 -0.0561 -0.0138  0.1473
31565W        W47699  11.305   9.888  14.762  0.3767 -0.2658 -0.3885
31566W        W47700   8.948  12.370  12.396 -0.0847  0.0327 -0.3395
31567W        W47701  18.320  11.913   2.367 -0.0984 -0.0493  0.0653
31568W        W47702   7.647   4.013  14.445 -0.4210 -0.0858 -0.1082
31569W        W47703   6.015  17.138  10.629 -0.0155  0.1583 -0.0775
31570W        W47704  17.799   1.678   2.684 -0.1508 -0.0906  0.3699
31571W        W47705  11.548   3.167  11.267 -0.1037  0.1292  0.1338
31572W        W47706   6.725   6.908   4.375 -0.0887  0.1259 -0.1879
31573W        W47707   3.842  18.707  10.735 -0.1186 -0.1113 -0.2232
31574W        W47708   2.389  19.194  10.785  0.1945 -0.0977 -0.1126
31575W        W47709   0.849  13.079  12.217 -0.2725 -0.0693  0.3634
31576W        W47710   0.583  18.091  10.479 -0.1468 -0.0208 -0.0770
31577W        W47711   6.235  13.846  11.554 -0.0363 -0.0757 -0.0148
31578W        W47712   3.783  13.687   4.788  0.3742  0.0204  0.0717
31579W        W47713   8.027  16.513  11.475  0.0519 -0.1277 -0.2186
31580W        W47714   4.457  14.593  12.857  0.1224  0.0220 -0.0556
31581W        W47715  14.464   2.698   4.176  0.1016 -0.0595 -0.0376
31582W        W47716   9.174  18.421   1.539 -0.1057  0.1217 -0.0380
31583W        W47717  18.946   9.089  12.562  0.1646 -0.1386  0.0061
31584W        W47718  11.704   8.277   2.735  0.1851  0.2205 -0.1935
31585W        W47719   4.765  13.939  13.953 -0.3627 -0.1856 -0.0105
31586W        W47720  17.844  11.133   9.935 -0.2709 -0.1817  0.0403
31587W        W47721  18.270   3.695   3.203  0.2226 -0.1305  0.0033
31588W        W47722  16.242   7.806   4.271 -0.0552  0.1681  0.0856
31589W        W47723  16.974   4.445   0.631 -0.0704  0.0664 -0.1431
31590W        W47724   2.557   2.896   1.965 -0.0952  0.1826  0.1117
31591W        W47725   9.261   2.340  10.969 -0.1673  0.0668 -0.1210
31592W        W47726  12.494   2.275   1.856  0.0311  0.0113  0.0367
31593W        W47727   9.030   2.328   2.183  0.2482  0.1533 -0.1093
31594W        W47728   7.083   9.081  11.495  0.1191 -0.0099 -0.2789
31595W        W47729   9.905  16.156   1.057 -0.0810  0.3231 -0.0574
31596W        W47730  12.140   5.356  11.155  0.2221 -0.0117 -0.0648
31597W        W47731   9.919  12.970  11.848  0.0935 -0.0964 -0.0182
31598W        W47732   5.529   5.275  14.444 -0.2063 -0.1222  0.1333
31599W        W47733  18.350   1.644   2.827 -0.1810  0.1623 -0.0795
31600W        W47734   5.675  14.554  14.249 -0.0495 -0.0585 -0.1709
31601W        W47735  17.717   7.115  12.727 -0.0364  0.0442  0.1691
31602W        W47736   4.223   2.086  12.584 -0.0960  0.0179 -0.0700
31603W        W47737  15.492   7.987  13.182 -0.0067 -0.1172 -0.2136
31604W        W47738   8.011   2.732   5.307  0.3246  0.0485  0.0723
31605W        W47739   1.567  10.550   4.019 -0.2656  0.1291  0.1312
31606W        W47740   9.712   7.994   0.967  0.2861 -0.1607 -0.0262
31607W        W47741   9.417   8.965   3.038  0.0049 -0.0489  0.2719
31608W        W47742   8.332   3.323   1.740 -0.3150  0.0652  0.2705
31609W        W47743  10.121  17.527   3.206  0.4839  0.1066 -0.1800
31610W        W47744   3.379  16.461   0.644 -0.0247 -0.1000 -0.1163
31611W        W47745   4.879  17.687   2.131 -0.1061 -0.0707 -0.0728
31612W        W47746   3.757  12.656   1.962  0.3506 -0.1802 -0.1128
31613W        W47747  14.563  12.393   1.320 -0.1399 -0.1134  0.0535
31614W        W47748  17.815  14.208  10.707  0.4125 -0.0744 -0.1207
31615W        W47749  17.489  19.295   4.859 -0.0927  0.0759  0.3591
31616W        W47750   7.722   2.350  13.176 -0.1232 -0.0471 -0.0718
31617W        W47751  18.614   3.217  11.104  0.1633 -0.0176 -0.1278
31618W        W47752   3.163   9.020   4.883 -0.0161 -0.0575 -0.1167
31619W        W47753  16.350  16.865   0.199 -0.1677 -0.1734 -0.1823
31620W        W47754   8.767   0.872   1.754 -0.1058  0.2022 -0.1656
31621W        W47755   4.175   5.910   0.057  0.0588  0.0655 -0.4390
31622W        W47756  17.935  11.896   1.970  0.1493  0.3183  0.0520
31623W        W47757  14.512  13.045   0.500 -0.0543  0.0364 -0.0639
31624W        W47758  13.536   5.133   4.695  0.0946  0.1787 -0.0952
31625W        W47759   8.965   7.930  13.971  0.2801  0.1330 -0.2608
31626W        W47760   0.757  12.983   0.750  0.0070 -0.0647 -0.1704
31627W        W47761  19.308   2.173   3.002  0.1193  0.2728  0.3176
31628W        W47762   4.881  13.140  12.588  0.1634  0.1653 -0.2757
31629W        W47763  11.824   6.532   3.254 -0.0696  0.1950  0.2670
31630W        W47764  16.119   2.425  14.484 -0.1068 -0.0717 -0.4950
31631W        W47765  17.703  16.246  12.875 -0.0679  0.0541  0.0463
31632W        W47766   5.331  10.072  13.664 -0.1045  0.0191 -0.1381
31633W        W47767  18.414   7.061   2.346  0.0918  0.3167  0.3370
31634W        W47768  19.096  11.764  13.395 -0.1785  0.4136 -0.1558
31635W        W47769   1.878   0.969  14.658  0.0249 -0.1720  0.1430
31636W        W47770   7.348   6.489   0.137  0.0491  0.1311  0.2414
31637W        W47771   1.099   2.440   2.614  0.1405 -0.1096  0.2049
31638W        W47772  13.441  10.231   1.211 -0.3136 -0.0803 -0.0940
31639W        W47773   5.198  19.243   3.053 -0.2938 -0.0385 -0.1200
31640W        W47774  16.884   1.366  10.372  0.0064  0.1235  0.1932
31641W        W47775  16.408   7.900   3.634 -0.0389  0.1373 -0.1925
31642W        W47776   1.105   4.905   1.350  0.1896 -0.1484  0.1463
31643W        W47777   0.500  13.811  12.658  0.2204 -0.0519 -0.0123
31644W        W47778   7.557  15.779  14.150 -0.1680  0.0443 -0.1626
31645W        W47779   4.086  11.912  14.786 -0.1748  0.0123 -0.0833
31646W        W47780   6.326  16.475   2.181 -0.0201  0.1428 -0.0053
31647W        W47781   8.989   8.535  10.899 -0.0368 -0.1162 -0.0580
31648W        W47782  17.965   9.286   5.389 -0.0221  0.2147  0.0075
31649W        W47783  18.438  12.089   3.229  0.1927 -0.2327 -0.4713
31650W        W47784  11.846  14.895   0.215 -0.0185  0.0988 -0.4111
31651W        W47785  14.855  18.381   4.547 -0.2272  0.0626 -0.0139
31652W        W47786  19.341   3.886  12.574  0.2537  0.2920 -0.1485
31653W        W47787  14.462   7.898  10.374 -0.3536 -0.1566  0.0797
31654W        W47788   9.939  16.586  11.048  0.2401  0.0523 -0.1715
31655W        W47789   1.877  17.641  10.089  0.0005  0.0399  0.0778
31656W        W47790   1.473  12.173  14.161 -0.1720 -0.0350  0.1273
31657W        W47791  18.880  19.340   2.697 -0.2829 -0.0128 -0.1825
31658W        W47792   6.339   7.079   1.421 -0.1181  0.1657  0.2837
31659W        W47793   6.342  11.970  12.203  0.0824  0.0412  0.1304
31660W        W47794  15.679  19.207   1.106  0.2315  0.0444 -0.2719
31661W        W47795   0.267  10.049   0.654 -0.0023  0.1873  0.2282
31662W        W47796   7.580  12.303   4.778  0.0325  0.0609 -0.2758
31663W        W47797  11.461  10.859   4.274 -0.0118 -0.0893 -0.0425
31664W        W47798  18.221  12.592  11.558 -0.3615 -0.0041  0.5558
31665W        W47799   2.682  15.705   4.743  0.5374 -0.2716  0.0918
31666W        W47800   6.696   4.080  14.609 -0.0408  0.2881  0.0246
31667W        W47801  16.252   8.420   3.725 -0.1277  0.0571 -0.0135
31668W        W47802   0.885  15.015  13.144  0.2460 -0.2889  0.1891
31669W        W47803  13.526   2.130   2.461  0.1815  0.0487 -0.1449
31670W        W47804  18.719  18.197   3.589 -0.0885  0.0869  0.0928
31671W        W47805   2.329   2.048  12.879  0.2398 -0.1246 -0.1476
31672W        W47806  17.232  13.280  10.421  0.1159  0.4384  0.1310
31673W        W47807  13.780  18.987   3.269  0.3307  0.2282 -0.3427
31674W        W47808  11.069  18.631  12.967 -0.0799  0.3444 -0.1330
31675W        W47809   1.835  13.495  12.401 -0.1722  0.3719 -0.3404
31676W        W47810  14.819   0.884   4.309 -0.0579 -0.1877 -0.1606
31677W        W47811  11.399   0.210   4.111  0.3365  0.3321 -0.1424
31678W        W47812   3.313   3.666  10.941  0.3422 -0.0008 -0.2582
31679W        W47813   2.681   2.864   0.572 -0.3458  0.3705  0.1701
31680W        W47814  19.008   3.212  10.204  0.1190 -0.0996  0.1180
31681W        W47815  15.445  11.455  12.073 -0.2593  0.1809  0.1563
31682W        W47816   0.627  10.886  14.121  0.1054 -0.2336  0.1488
31683W        W47817   9.418   0.326   1.939  0.0549 -0.0551 -0.2914
31684W        W47818   9.197   0.305   3.163 -0.2426 -0.0891  0.0002
31685W        W47819  14.255   3.029   2.354 -0.1189 -0.0375 -0.0333
31686W        W47820   5.060   3.516  14.552  0.0463 -0.0325  0.0778
31687W        W47821   9.052  16.522  11.868 -0.1332 -0.1469  0.0538
31688W        W47822   8.170  10.673  13.662 -0.0709 -0.0419  0.4008
31689W        W47823   6.204  16.893   5.199  0.0511 -0.0253  0.0298
31690W        W47824  16.529   8.494   0.240 -0.0536  0.0998 -0.0396
31691W        W47825  15.957  18.696  12.669 -0.0458 -0.1468 -0.0180
31692W        W47826   5.556   2.855   4.846  0.3118  0.0873 -0.1899
31693W        W47827   1.181  15.432  11.594  0.0380 -0.0591 -0.0905
31694W        W47828   1.022  15.619  10.258  0.0801 -0.2225 -0.0411
31695W        W47829  11.082   2.191   0.302  0.3901  0.1806 -0.3538
31696W        W47830  17.456  12.258   3.520  0.1751 -0.3943  0.4542
31697W        W47831  13.761   6.722  11.402  0.1891 -0.0693 -0.3351
31698W        W47832   0.931  17.574  13.163  0.0761 -0.2966  0.0918
31699W        W47833   5.987  12.236  12.574 -0.3713  0.0696  0.0485
31700W        W47834   7.254  12.732   3.335  0.4067  0.0675  0.0712
31701W        W47835   9.462  11.712  13.700 -0.0114 -0.2021 -0.1056
31702W        W47836   6.325  19.041   4.057 -0.6851 -0.0351  0.1374
31703W        W47837   9.513   3.197  12.814 -0.0785 -0.1040 -0.0377
31704W        W47838   3.181  15.033   0.650  0.1209  0.0120 -0.3849
31705W        W47839  15.392  11.680  12.491 -0.1038 -0.1298 -0.1065
31706W        W47840  13.403   7.961  13.966 -0.0533 -0.0107 -0.0479
31707W        W47841   1.631  15.792  11.617  0.1264  0.0502  0.0788
31708W        W47842  11.002   3.492   1.005  0.0031  0.2747  0.0858
31709W        W47843  18.656  12.840   2.226  0.3799  0.2186 -0.3098
31710W        W47844  11.960  13.395  12.979 -0.1496 -0.0742 -0.1045
31711W        W47845   4.259  17.735  13.216 -0.2183 -0.1996 -0.4637
31712W        W47846   9.654   5.493  10.663 -0.0921  0.2334 -0.0051
31713W        W47847   4.005   2.976  13.424  0.0701  0.0909  0.1838
31714W        W47848   0.527   4.235  13.974 -0.2075  0.0101  0.1422
31715W        W47849   1.233   2.742  13.465 -0.2647 -0.0806 -0.3109
31716W        W47850  15.130   0.564   1.872 -0.0121 -0.1455  0.0995
31717W        W47851  10.535  15.759   4.887  0.0163 -0.1601  0.1469
31718W        W47852  19.151  13.356   4.230  0.1836  0.0714  0.0948
31719W        W47853  17.171  16.529   4.192  0.2644 -0.0098  0.0443
31720W        W47854  17.959   3.305  12.630 -0.1666  0.0390 -0.3461
31721W        W47855  14.945   9.285   0.509  0.2971 -0.3155 -0.1638
31722W        W47856   1.763   6.860  13.076 -0.0184  0.1368 -0.0896
31723W        W47857  14.324   3.904   1.163  0.1517 -0.2135 -0.2570
31724W        W47858  14.181   8.533   0.220  0.1427 -0.0675  0.1872
31725W        W47859  16.158  10.822  13.586 -0.1169 -0.0799 -0.1288
31726W        W47860   5.701  18.117   0.101  0.0741 -0.0414  0.1975
31727W        W47861   9.118  10.358  11.776 -0.0613 -0.1920  0.0801
31728W        W47862   8.218  13.994  13.671  0.0798 -0.1090  0.2579
31729W        W47863   8.375   5.432   2.347 -0.0171  0.1606 -0.1528
31730W        W47864   3.421  15.192  13.138  0.1157  0.0024 -0.1395
31731W        W47865   6.241   9.040   3.839 -0.2188  0.0767  0.0195
31732W        W47866   8.339   1.130   4.046  0.4520 -0.2656  0.2110
31733W        W47867  16.161  14.878  12.317 -0.3125 -0.1441  0.0508
31734W        W47868  16.387  12.238  14.724  0.1357 -0.2021 -0.4076
31735W        W47869  12.918  12.684   4.409  0.0868 -0.1054  0.0357
31736W        W47870   4.033   6.175   2.613 -0.2814 -0.3490  0.4418
31737W        W47871  15.230   1.780   4.742 -0.1400 -0.3132 -0.1237
31738W        W47872  14.225  17.675  12.629  0.0445 -0.0677  0.0050
31739W        W47873  10.135   3.950  12.906  0.2581 -0.1938 -0.1176
31740W        W47874   9.892   7.293   0.856 -0.3216 -0.0034 -0.3110
31741W        W47875   6.599   3.900   1.123 -0.0685 -0.1912  0.0406
31742W        W47876   1.366  11.965   1.424  0.3329 -0.1791  0.0972
31743W        W47877   6.701  10.058  10.222 -0.1230 -0.3195  0.0016
31744W        W47878   6.318   9.943   0.101  0.1128 -0.1557  0.1809
31745W        W47879   4.404  13.022   3.925 -0.1170 -0.2014 -0.1187
31746W        W47880  15.557   1.150   1.399  0.2237  0.1134 -0.3165
31747W        W47881  15.059  14.475   3.436  0.0420  0.0022  0.5608
31748W        W47882  15.498   1.274   3.151 -0.1793 -0.1818 -0.4066
31749W        W47883   3.966   1.525   3.191  0.1090  0.1638 -0.1822
31750W        W47884  10.027  16.078   3.618 -0.2364  0.2585  0.2437
31751W        W47885  11.812   1.976  12.712  0.0560  0.1646 -0.0193
31752W        W47886   9.225  10.417   0.385 -0.1387  0.1220  0.2251
31753W        W47887   0.663   2.717   2.494 -0.2039  0.1150  0.0458
31754W        W47888  12.610  11.251  11.847  0.0297 -0.4312  0.0809
31755W        W47889   5.440   0.291  10.172 -0.1510  0.1074  0.0308
31756W        W47890   5.535   0.491  14.738 -0.0441 -0.0549  0.1664
31757W        W47891   4.406  17.778  14.256  0.0596  0.0619 -0.0926
31758W        W47892  13.597  16.885  13.180 -0.1490  0.0095  0.0002
31759W        W47893  10.034  11.470   4.000 -0.1435 -0.3652 -0.1239
31760W        W47894   2.754  15.956   2.740  0.3523 -0.1608  0.3023
31761W        W47895  13.804   4.521   5.092  0.0589  0.3758 -0.0297
31762W        W47896   7.709   7.341  10.147  0.1229  0.0862 -0.4472
31763W        W47897  12.124   7.939   2.669 -0.2981 -0.0083  0.1081
31764W        W47898   2.912  10.293   4.444  0.2279 -0.0987  0.1987
31765W        W47899  16.060  11.278  13.366 -0.3376  0.1012  0.1488
31766W        W47900   5.851  11.760  13.973  0.1399  0.0481  0.0444
31767W        W47901   8.572  10.240   4.843  0.0986  0.1850 -0.3322
31768W        W47902  15.377   0.765   4.682  0.1099  0.5079 -0.1938
31769W        W47903   4.092   3.336  10.576  0.2190 -0.0069  0.0761
31770W        W47904  11.444  12.497  14.438  0.1900  0.0612 -0.0427
31771W        W47905   8.843   5.881   4.477  0.2129  0.1365 -0.0263
31772W        W47906  15.682  15.956   4.064  0.2283 -0.2363 -0.0141
31773W        W47907   2.587  18.231   4.947 -0.1669  0.1051 -0.1158
31774W        W47908  14.517  18.558  12.207 -0.1938 -0.1365  0.1055
31775W        W47909  15.150   4.863  10.502  0.0610 -0.0633  0.0119
31776W        W47910   7.609   7.881   2.001 -0.0910 -0.2520 -0.2420
31777W        W47911  16.265   8.672  12.430 -0.0243 -0.2244  0.3029
31778W        W47912   5.674   5.343   2.121 -0.2682 -0.0787  0.0808
31779W        W47913  17.064   8.695   3.509 -0.1042  0.1027  0.0334
31780W        W47914  12.302  12.898   0.271 -0.2121 -0.0218  0.1881
31781W        W47915   5.669   3.302  11.567  0.4876  0.4166 -0.1004
31782W        W47916   9.510   1.957   0.662  0.2668  0.1989  0.0232
31783W        W47917  11.515  12.956   2.744 -0.2354 -0.0130 -0.1074
31784W        W47918  15.305  14.630  13.779 -0.1355  0.0748  0.0765
31785W        W47919  15.923   8.251   0.984 -0.3158  0.0605  0.0023
31786W        W47920   6.488  18.372   5.209  0.3879 -0.1338 -0.2177
31787W        W47921  18.897  18.247   0.124 -0.0733  0.0043 -0.1628
31788W        W47922   6.048   1.620   3.885  0.0727 -0.0880 -0.2791
31789W        W47923   8.821  14.875   0.623  0.1932 -0.1464  0.3883
31790W        W47924   9.336   5.153   0.329 -0.2739  0.3326  0.0485
31791W        W47925  17.953   2.562   4.597  0.4287  0.2035  0.0143
31792W        W47926   2.532  18.968   0.578 -0.1081  0.1065  0.1257
31793W        W47927   9.650  15.966   0.160  0.3055 -0.3016 -0.0994
31794W        W47928   0.678   4.505   5.124  0.0857 -0.0497 -0.3880
31795W        W47929   5.962  17.254  13.523  0.1946  0.3469 -0.1503
31796W        W47930   3.743   2.660  13.146 -0.1950 -0.2131  0.3007
31797W        W47931   6.396  10.868   5.048  0.0981 -0.1984  0.0682
31798W        W47932   6.393  14.461   2.951  0.4378 -0.1893 -0.1144
31799W        W47933  17.382   4.032   3.582  0.0319 -0.1401 -0.3393
31800W        W47934  15.522   5.382   3.883 -0.0101 -0.2465 -0.2841
31801W        W47935  18.930   3.295  13.412 -0.1071  0.2843  0.0469
31802W        W47936   0.327   2.635   5.474  0.2655  0.0481  0.1160
31803W        W47937  12.648  14.887   4.508 -0.1099 -0.0188  0.1679
31804W        W47938  18.532   6.389   1.371 -0.2000 -0.0046 -0.0230
31805W        W47939  17.258  15.344   0.025 -0.3107 -0.0839  0.5180
31806W        W47940   5.238   9.783  10.466  0.1287  0.0109 -0.0316
31807W        W47941  18.254   4.326  13.970 -0.0479  0.0836  0.0882
31808W        W47942   4.692  12.688  13.614 -0.4729  0.0480  0.0121
31809W        W47943  14.473   2.230  11.740  0.0189  0.3191  0.1529
31810W        W47944  14.248   4.125  13.565 -0.0744  0.1841  0.3055
31811W        W47945  16.027   8.021   4.701  0.2205 -0.1649 -0.0390
31812W        W47946  16.319  14.323  14.024 -0.0186 -0.1027 -0.0074
31813W        W47947  14.519   7.931  11.431  0.1280 -0.1705 -0.3041
31814W        W47948   0.770  11.659   1.548  0.2346 -0.1904  0.0158
31815W        W47949  12.683   0.566   0.222 -0.0490 -0.2969 -0.3694
31816W        W47950  10.942  13.446   4.827  0.3714  0.0042  0.0106
31817W        W47951  14.962   9.134   3.460  0.3895 -0.0317 -0.0309
31818W        W47952  16.632  18.051   0.715 -0.1930 -0.0298  0.1151
31819W        W47953  13.435   9.805   1.809  0.0067  0.1647 -0.0677
31820W        W47954  18.061  14.165  11.203  0.1345 -0.3225  0.2641
31821W        W47955  16.797  13.743   2.455 -0.2838  0.0866  0.0058
31822W        W47956   5.037   2.638  12.883 -0.0549  0.0154 -0.2527
31823W        W47957   6.003  10.908   1.894  0.1034  0.1308  0.0180
31824W        W47958  11.618  17.258  11.505  0.0270  0.1688 -0.0233
31825W        W47959  10.108  10.452  12.358  0.1127 -0.1476 -0.0785
31826W        W47960   9.603   6.622  11.062  0.2021  0.2083  0.0418
31827W        W47961  12.073   8.321  12.185  0.3068  0.1729  0.0731
31828W        W47962   2.621   2.866   1.107 -0.1177 -0.3108  0.2180
31829W        W47963  15.641  13.248   0.965  0.2888  0.1986  0.4105
31830W        W47964   1.520  10.838  13.175  0.0972 -0.3088 -0.0210
31831W        W47965   1.275   1.335   2.224  0.2616  0.2774  0.0449
31832W        W47966  10.769   7.757  13.173  0.1066  0.0402 -0.1173
31833W        W47967  12.151  14.700  13.021 -0.3454 -0.0291 -0.3486
31834W        W47968   0.517   7.101   4.249  0.1724 -0.3074  0.0890
31835W        W47969  17.934  14.180  14.427 -0.1598  0.2700 -0.0693
31836W        W47970   4.300  11.435   0.583  0.1612 -0.2421 -0.0361
31837W        W47971  12.406   6.891  13.904 -0.2211  0.0267 -0.0464
31838W        W47972  17.190  17.638   3.957 -0.3014  0.0222  0.1985
31839W        W47973  15.629   9.146   5.985  0.0204 -0.0682  0.0322
31840W        W47974   5.121   5.494   4.503 -0.6515  0.2169  0.0973
31841W        W47975   1.439   3.840  10.011  0.0922 -0.1545 -0.0958
31842W        W47976   4.242  18.445  10.641 -0.0581 -0.1845  0.2805
31843W        W47977  17.634   2.131   4.925  0.0889  0.3466 -0.1058
31844W        W47978  15.551   1.643  11.598 -0.2648 -0.0135  0.1031
31845W        W47979  16.934   7.587  13.221  0.0914  0.3575  0.2764
31846W        W47980  16.055   6.129   1.603 -0.2009  0.0081  0.1046
31847W        W47981  15.330  17.922   0.141  0.1058 -0.2860  0.0797
31848W        W47982   4.528   1.642  14.711  0.0059  0.0199  0.0329
31849W        W47983   2.782   5.560  10.467  0.0614  0.1650  0.0036
31850W        W47984   9.107   3.642   1.168 -0.2563 -0.1845 -0.2581
31851W        W47985  15.100  10.564   1.297 -0.1037  0.1906 -0.0400
31852W        W47986  13.655   0.889   4.329 -0.4184 -0.1707 -0.2112
31853W        W47987   5.289   0.522  11.655 -0.0441  0.2370  0.0809
31854W        W47988   7.681   4.497  14.653  0.1459 -0.1093  0.2285
31855W        W47989   8.198  19.057   5.850  0.2979  0.1762  0.2653
31856W        W47990   0.860   2.319  13.543 -0.0742  0.1456 -0.1446
31857W        W47991   4.447  10.103  13.909 -0.1612 -0.4077 -0.1840
31858W        W47992   0.058  16.356  12.468 -0.0138 -0.0182  0.0460
31859W        W47993   7.376  10.431  13.737  0.2019  0.2194 -0.1454
31860W        W47994  13.413   1.375  13.606  0.1080 -0.1725 -0.2509
31861W        W47995  15.928  12.295  13.067 -0.1165  0.1661 -0.0048
31862W        W47996   2.351   0.514   1.984  0.2378  0.1133  0.1300
31863W        W47997  10.806   0.868   4.425 -0.0753  0.1067 -0.3133
31864W        W47998  17.952   5.874  10.751 -0.2675 -0.1419 -0.1228
31865W        W47999  16.487  14.180   2.561  0.1173 -0.2143 -0.0915
31866W        W48000  16.001   8.965  10.480  0.1053 -0.0932 -0.1489
31867W        W48001   3.845  15.136  14.452  0.1747 -0.0035  0.0800
31868W        W48002  12.830   1.637  12.861  0.1030 -0.1187  0.1340
31869W        W48003   5.819   8.249  12.181  0.1226 -0.0995 -0.1846
31870W        W48004  13.597   8.393  13.885  0.2332 -0.0552  0.1843
31871W        W48005   1.938   1.804  10.516 -0.0763 -0.2093 -0.0556
31872W        W48006   5.009   6.099   1.605 -0.3708 -0.3120 -0.1989
31873W        W48007  16.819   9.287   3.750  0.1629  0.1694 -0.2553
31874W        W48008   9.072   8.051  13.528  0.3442 -0.1850 -0.1542
31875W        W48009   0.251   7.979   1.871 -0.1431  0.1779  0.0642
31876W        W48010   2.490  11.262  10.287 -0.3673  0.0480  0.3334
31877W        W48011  15.585  10.899   3.252 -0.0252  0.1104 -0.1367
31878W        W48012   3.675   4.292   2.964  0.0251  0.0160 -0.0479
31879W        W48013   0.148  14.201   1.842  0.0367 -0.2671 -0.1077
31880W        W48014  19.212  13.502   3.354  0.1005  0.2702  0.0406
31881W        W48015  16.246  15.616   3.958 -0.1895 -0.1652 -0.0375
31882W        W48016  13.904   0.093   2.953  0.0163 -0.0240 -0.1022
31883W        W48017   1.396   5.661   0.675  0.1185 -0.1172 -0.0506
31884W        W48018  16.580  11.054  10.160  0.2792  0.0126  0.2799
31885W        W48019  10.015  17.181  13.782 -0.2337 -0.0794  0.3164
31886W        W48020  18.026   3.316   4.109 -0.2725  0.0716  0.0203
31887W        W48021  16.017  13.542  14.004 -0.1016  0.2760  0.2227
31888W        W48022  17.070   9.881   3.012  0.0942 -0.1868  0.2520
31889W        W48023  12.966  14.298  12.827 -0.0142 -0.1728 -0.0212
31890W        W48024   2.062  17.125  13.827 -0.1071  0.1124 -0.1217
31891W        W48025   9.259   9.709   1.086 -0.2376  0.2933  0.0467
31892W        W48026   3.909   7.853  13.858 -0.1210  0.0046  0.2331
31893W        W48027  16.862   6.843   3.967  0.2453 -0.1195 -0.0757
31894W        W48028  17.962   5.659  13.171 -0.1776  0.2053 -0.1674
31895W        W48029   4.516   3.531  13.336 -0.0481 -0.0259  0.3114
31896W        W48030  15.807  12.297   3.485  0.2625 -0.2008 -0.1101
31897W        W48031   8.210  12.296   3.394  0.0591 -0.2166 -0.0137
31898W        W48032   7.547   4.865  14.010  0.1016 -0.0861 -0.1427
31899W        W48033   1.377   9.592  10.184 -0.1903 -0.2684  0.2946
31900W        W48034   4.061  17.361   2.694 -0.0113 -0.0729  0.0727
31901W        W48035  13.986   2.025   5.446  0.1518  0.0471 -0.1674
31902W        W48036  11.755  19.314  11.977 -0.0101 -0.2476  0.1526
31903W        W48037   0.799  17.843  12.628 -0.0366  0.3307  0.0346
31904W        W48038   3.504   3.811  12.312 -0.1090  0.2691  0.1032
31905W        W48039  18.981   6.155   3.895 -0.0369  0.0526  0.0084
31906W        W48040   8.509  13.528   1.006 -0.0895 -0.0257  0.0946
31907W        W48041  13.005   0.977   0.340  0.4227  0.0054 -0.0302
31908W        W48042   2.220   1.686  13.934 -0.0662 -0.0112 -0.1143
31909W        W48043  16.900  12.117  14.522  0.2444  0.0333  0.1748
31910W        W48044   4.180   7.867  14.261 -0.1321  0.0786 -0.2486
31911W        W48045   8.645  17.561   6.078 -0.0144  0.5236  0.0423
31912W        W48046  14.141   8.407  12.246  0.0220 -0.0964  0.2603
31913W        W48047  14.750  15.677   6.069  0.0533  0.5628  0.1081
31914W        W48048  16.580   1.610  10.013 -0.0917  0.0372 -0.2372
31915W        W48049   5.979   2.064  12.136 -0.3310 -0.2084  0.0799
31916W        W48050   4.583  15.658  12.580 -0.0124  0.2380 -0.0260
31917W        W48051   6.381   4.989   9.946  0.1306 -0.1985 -0.0184
31918W        W48052  17.958  15.725   2.185  0.2614  0.2862 -0.1927
31919W        W48053  11.576   0.126   2.976  0.1200  0.2258  0.3256
31920W        W48054   8.235   0.455   3.398 -0.0832 -0.4256 -0.0855
31921W        W48055   1.429   3.593  11.337  0.1332 -0.2423  0.2088
31922W        W48056   6.540  15.060   9.728  0.1191  0.0615 -0.3115
31923W        W48057  16.323  10.377   3.315 -0.2063  0.4257 -0.0942
31924W        W48058   2.697  11.503  14.826  0.0248 -0.1501  0.0258
31925W        W48059  14.549  19.167   3.847 -0.0975 -0.2109 -0.3698
31926W        W48060  14.239   4.631   4.826 -0.3160 -0.3134 -0.0932
31927W        W48061   3.017  12.773  12.895 -0.0473 -0.1266 -0.2842
31928W        W48062  18.134  10.797   0.068  0.1661 -0.3149  0.1896
31929W        W48063   4.643   9.869   0.078  0.1290 -0.1750  0.2661
31930W        W48064   2.053   5.127  12.246  0.3463  0.1815 -0.0279
31931W        W48065   1.708  12.236   4.691 -0.0063  0.2618 -0.0055
31932W        W48066  14.711   0.730  12.490 -0.0996 -0.3409  0.2256
31933W        W48067  15.569  16.057  13.611  0.2478  0.0602  0.1673
31934W        W48068  11.223   0.021  11.699  0.0490  0.2458  0.1515
31935W        W48069  17.911  12.326  13.836 -0.0571 -0.1351  0.1814
31936W        W48070   8.102  11.682   5.302 -0.4539  0.2542 -0.0965
31937W        W48071  10.429  10.751   1.690  0.0500 -0.0635 -0.0664
31938W        W48072   0.859   2.616   0.770 -0.2114 -0.0184  0.4125
31939W        W48073  15.309  14.978  14.333  0.1616 -0.2034  0.0384
31940W        W48074   0.734   9.974   0.603  0.1967 -0.0255  0.1582
31941W        W48075   8.553   6.691  12.716  0.0013 -0.0207 -0.1972
31942W        W48076   7.655  13.112  13.696 -0.1724  0.2051 -0.2513
31943W        W48077   1.878  16.722   1.870 -0.3642  0.0295  0.2500
31944W        W48078  17.609   2.552   5.300  0.3357  0.2641  0.0340
31945W        W48079  17.601  17.379   2.909  0.1632  0.3053  0.1399
31946W        W48080  11.677   0.523  13.335  0.0481  0.1536 -0.0922
31947W        W48081  13.820  18.085   2.605  0.1341 -0.3606  0.0348
31948W        W48082  16.979   6.276   2.547  0.2912  0.2096 -0.1552
31949W        W48083   5.556   5.745   0.534  0.1793  0.0183  0.0173
31950W        W48084   9.967   7.604   4.712  0.0402  0.0568  0.0830
31951W        W48085  11.985  19.137  11.375 -0.0323 -0.1494  0.0093
31952W        W48086  17.459   3.748   4.443 -0.0119 -0.1906 -0.0697
31953W        W48087  16.927  13.351   1.978  0.2621  0.1726 -0.2649
31954W        W48088  16.459  10.276   0.745 -0.1656  0.0195 -0.1144
31955W        W48089   2.339  12.235   1.934 -0.1202  0.0641  0.0664
31956W        W48090  18.729   9.268  13.733  0.1948  0.2107  0.0903
31957W        W48091  17.457   2.926  13.068  0.3689 -0.0373 -0.0102
31958W        W48092  15.645   1.604   4.575  0.0205 -0.2384 -0.0435
31959W        W48093   9.418   7.508  13.298  0.1006  0.2181 -0.2225
31960W        W48094   0.453  16.838   2.784  0.0573 -0.0883 -0.2451
31961W        W48095  10.205   3.732   2.185  0.3666 -0.0475 -0.1194
31962W        W48096  13.444   3.477  12.603  0.1685 -0.5595  0.1423
31963W        W48097   1.794  17.342   1.084 -0.0848  0.1002 -0.3682
31964W        W48098   0.695  15.595   2.604 -0.5121  0.0764 -0.2298
31965W        W48099  15.787   3.465  12.227  0.0775 -0.0596 -0.0637
31966W        W48100  14.271  10.099  13.097  0.0553  0.0539  0.2216
31967W        W48101   6.436   9.615  14.123  0.3506 -0.3187  0.3853
31968W        W48102   1.741   4.330   2.137  0.2011  0.1947 -0.0644
31969W        W48103  12.112  15.767  14.412  0.4275 -0.1580  0.0306
31970W        W48104  18.222  18.657   0.421 -0.0053 -0.3515 -0.0477
31971W        W48105   0.358   0.482  11.026 -0.1313  0.3354  0.0902
31972W        W48106  14.615   9.735  11.542 -0.1909 -0.1241  0.3158
31973W        W48107   4.112   1.060   4.418 -0.1502  0.2391  0.2760
31974W        W48108  18.808   4.089  13.231 -0.0769 -0.0001 -0.3109
31975W        W48109  19.105  18.129   4.801  0.2052  0.0669  0.0484
31976W        W48110   4.759   4.094  11.724  0.2039 -0.0341 -0.0422
31977W        W48111  10.747  12.100  13.414 -0.1447  0.3514 -0.1748
31978W        W48112  10.586  13.531   5.153 -0.1131 -0.1123  0.1063
31979W        W48113  15.705   6.803   2.791 -0.4511 -0.0223  0.2775
31980W        W48114   6.961  10.964  14.292 -0.1660 -0.3474 -0.3175
31981W        W48115   5.451  13.310   4.594 -0.1868  0.2337  0.0599
31982W        W48116  12.262  17.513  11.058 -0.0888 -0.2263 -0.2022
31983W        W48117   8.615   1.807   3.474 -0.0193  0.1099  0.1346
31984W        W48118   7.286  11.873   1.385  0.0293 -0.0002  0.0829
31985W        W48119   9.068  17.099  13.778  0.1159 -0.1781 -0.2322
31986W        W48120  15.276  14.079   1.977 -0.0348  0.2012 -0.1178
31987W        W48121  17.419  13.224   2.787 -0.1717  0.0130 -0.1168
31988W        W48122   4.315  11.899   4.686 -0.1622  0.0226 -0.3546
31989W        W48123  15.596  16.456  11.070 -0.1564 -0.0507  0.1256
31990W        W48124  11.383   4.006   1.897  0.0430 -0.0278  0.1960
31991W        W48125  13.896  16.047  10.008  0.0507 -0.0547  0.3568
31992W        W48126   4.077  11.383  10.079  0.4476 -0.1231 -0.0448
31993W        W48127  10.543  17.967   2.864 -0.0044 -0.1110 -0.0112
31994W        W48128   3.087   2.240   1.580 -0.1006  0.2252  0.0898
31995W        W48129   9.890  17.587  14.376  0.1196  0.0829 -0.0580
31996W        W48130   7.473  10.716   2.316  0.2261  0.1044  0.0879
31997W        W48131   3.755  10.652  10.617  0.1488 -0.4292  0.0526
31998W        W48132   5.732   6.075   3.946  0.1259  0.0007  0.2388
31999W        W48133  14.683   2.545   0.957 -0.1806  0.2383  0.0178
32000W        W48134  13.808  12.855  13.810  0.0070 -0.3138 -0.1858
32001W        W48135  17.722   0.332  13.298  0.2443 -0.0065 -0.1835
32002W        W48136  11.903  18.330  12.543  0.1489  0.3518  0.0075
32003W        W48137   7.298  11.881   0.871 -0.0238 -0.0916 -0.0477
32004W        W48138   8.228  18.290   0.986 -0.0233  0.3900 -0.3471
32005W        W48139   8.696   7.382  14.007 -0.1299  0.0319 -0.1211
32006W        W48140   3.444  18.734   3.937  0.3158  0.2956 -0.1074
32007W        W48141   5.307   4.341  12.561  0.3037  0.1407 -0.1092
32008W        W48142  17.848   2.804  12.765 -0.0193  0.0044 -0.1536
32009W        W48143  12.623  11.572  11.278 -0.0982  0.2404  0.0048
32010W        W48144   4.725   2.159  12.298  0.0154  0.2468  0.2350
32011W        W48145  11.245   1.032   2.266  0.3483  0.2314  0.1126
32012W        W48146   1.012   7.861   4.764 -0.0705  0.2513  0.1714
32013W        W48147   4.259   6.333  14.315 -0.2580 -0.0336  0.0041
32014W        W48148   7.005  10.478   2.499  0.3755  0.2288  0.1701
32015W        W48149   6.564  13.218   0.587 -0.4009 -0.3096  0.0761
32016W        W48150   8.890  16.571  13.062 -0.0169  0.3176  0.0194
32017W        W48151   5.263   9.074   2.546 -0.1187 -0.2139  0.0260
32018W        W48152   3.834  17.660  12.938  0.0923  0.2339 -0.1233
32019W        W48153  12.463   1.313   4.027  0.0351 -0.4033 -0.1249
32020W        W48154   4.990  13.374  12.986  0.1012  0.0502 -0.0155
32021W        W48155   0.328   2.589   4.954  0.2050 -0.0771  0.1432
32022W        W48156  14.009  16.693  13.753 -0.0128  0.2008 -0.0331
32023W        W48157  18.720  15.410  12.286 -0.2833  0.3990 -0.0738
32024W        W48158  17.037  11.329   1.571  0.1730 -0.0169  0.1292
32025W        W48159  15.962  12.521   4.519  0.1812  0.0212  0.1085
32026W        W48160  12.454   7.469   0.112 -0.0192  0.0995 -0.2578
32027W        W48161  11.110   8.788  10.461  0.0235 -0.2183  0.3140
32028W        W48162  15.925   5.879  13.689 -0.1554 -0.0390  0.3369
32029W        W48163   1.377   8.535  14.191  0.1176 -0.2931  0.2995
32030W        W48164  15.019  12.056  12.498  0.0720 -0.2164 -0.2393
32031W        W48165  18.955  17.978   2.501 -0.0956 -0.2507 -0.0822
32032W        W48166  10.320   8.172   9.910 -0.2733  0.0645 -0.0471
32033W        W48167   5.472   1.640   0.481  0.0811  0.1951 -0.3849
32034W        W48168  16.616  17.207  13.837 -0.1509 -0.2232  0.1872
32035W        W48169  15.809  11.019   3.700  0.4173 -0.2470  0.0581
32036W        W48170  14.148   6.394  13.586  0.1416  0.1971  0.3033
32037W        W48171   3.596  16.978   0.359  0.1446 -0.0203  0.0045
32038W        W48172  18.106  14.128  13.606  0.1005 -0.2123  0.3440
32039W        W48173   6.986  11.693  13.525 -0.1693 -0.1812 -0.1972
32040W        W48174   8.901  14.657  11.081 -0.3057  0.2593 -0.0092
32041W        W48175  14.666  16.616  14.552  0.3418  0.0148 -0.0829
32042W        W48176  13.824   6.108  12.652 -0.1823  0.1450  0.2542
32043W        W48177   0.437  16.581  11.462 -0.2726  0.0119 -0.1852
32044W        W48178  11.251   3.764   0.489 -0.1973  0.2489  0.2264
32045W        W48179  12.877  15.944   5.485  0.3115  0.0289 -0.2069
32046W        W48180   4.461  15.738   3.501  0.1030 -0.1247  0.0267
32047W        W48181  17.917  11.648   2.800 -0.2348  0.0616 -0.0674
32048W        W48182   1.986  17.705   4.614  0.0876 -0.3883 -0.0667
32049W        W48183   8.415   8.070   4.020 -0.0716  0.1436 -0.2767
32050W        W48184  10.461  18.501   3.678 -0.0851  0.4715  0.0874
32051W        W48185   1.951  11.150  13.536  0.0199 -0.1405  0.0426
32052W        W48186  13.478  18.761  11.926  0.1256 -0.1071  0.2173
32053W        W48187  10.079   1.805   4.249 -0.3804  0.0358  0.0632
32054W        W48188  16.500  18.426  10.643  0.2351 -0.2194 -0.1988
32055W        W48189  15.226  13.803   4.285  0.2252 -0.0299 -0.0798
32056W        W48190  12.999  10.266   2.556 -0.1407 -0.1711 -0.0054
32057W        W48191  13.754   5.868   2.376 -0.0778 -0.0239 -0.1089
32058W        W48192  18.133  14.946  14.457  0.0113  0.3852  0.0291
32059W        W48193  11.453  16.386   6.444 -0.0228 -0.2204 -0.0162
32060W        W48194  18.130  13.331   1.338  0.0682 -0.1142  0.2512
32061W        W48195  17.233   9.669  10.503  0.0325 -0.0903  0.0313
32062W        W48196   3.184  16.961   3.133  0.0466 -0.0005 -0.0414
32063W        W48197   6.282   4.614   2.765  0.1520  0.0860 -0.0439
32064W        W48198   6.772   8.934   2.144 -0.1352  0.1591 -0.0946
32065W        W48199   4.743   5.242  11.890 -0.2547  0.0235 -0.1745
32066W        W48200   9.048  16.507  11.141 -0.1344 -0.0179 -0.1052
32067W        W48201   0.162   4.894   4.294 -0.1101  0.2949  0.1535
32068W        W48202  11.257   9.254  10.578  0.0392  0.0955  0.4591
32069W        W48203   1.188   9.998  11.018 -0.4676 -0.2699 -0.0557
32070W        W48204  11.665  13.040  10.544 -0.0649  0.2793  0.3995
32071W        W48205   8.064  16.507   0.002 -0.1193  0.1868 -0.2392
32072W        W48206   6.726   4.009  13.919  0.0003  0.0424 -0.0087
32073W        W48207  11.087  10.789   3.444 -0.1534  0.0961  0.3207
32074W        W48208  18.092   2.539   1.700 -0.2509 -0.0919 -0.0240
32075W        W48209   3.179   2.950  14.814 -0.2796 -0.0802 -0.2596
32076W        W48210   5.365   0.905  12.017  0.0719  0.1581 -0.4036
32077W        W48211  18.614   7.422  12.853 -0.0072  0.2128 -0.0862
32078W        W48212  19.190  17.159  14.593  0.0032 -0.0358 -0.0359
32079W        W48213   4.449  15.672  10.281  0.1433  0.1492  0.2211
32080W        W48214  16.027  14.486  11.322  0.2783 -0.0805  0.0811
32081W        W48215   6.350   4.537   1.483 -0.1460 -0.0657 -0.0431
32082W        W48216   2.653   5.423   1.315 -0.3985  0.1369  0.1402
32083W        W48217   2.501   5.454  13.678 -0.1904  0.0105  0.0395
32084W        W48218  13.884   0.920  13.682 -0.2050  0.2524  0.2621
32085W        W48219  10.898  13.547  14.608 -0.2379 -0.0002  0.1416
32086W        W48220   5.881  15.561   4.896  0.1251 -0.1044 -0.0648
32087W        W48221  12.001   6.010  10.578  0.0145 -0.1339  0.1456
32088W        W48222  18.237   9.564   3.082 -0.1860 -0.3461  0.1347
32089W        W48223   1.046   2.537  13.927 -0.0181  0.0298 -0.0135
32090W        W48224  18.437   2.343   2.501 -0.4424  0.3277  0.3144
32091W        W48225  10.518  10.370  11.357  0.2280 -0.0935  0.2849
32092W        W48226  16.002   3.321  11.218  0.2279  0.0353 -0.1135
32093W        W48227  17.838   4.530  12.168  0.0088 -0.0316 -0.2049
32094W        W48228   4.335   3.470   2.173  0.5340  0.2129  0.0517
32095W        W48229  14.574   1.533  10.780  0.1332  0.0632 -0.0183
32096W        W48230   2.190  12.001   0.399 -0.2456 -0.0199 -0.2686
32097W        W48231  12.691   7.743  10.465 -0.1329  0.0850 -0.1204
32098W        W48232  18.634   9.219  10.576 -0.0716 -0.3605  0.0295
32099W        W48233   8.676   6.524   0.958 -0.2317 -0.0547 -0.0285
32100W        W48234   2.712  16.804   4.497  0.3751  0.1777 -0.2006
32101W        W48235   3.030  17.504   0.673  0.0462 -0.2149 -0.0804
32102W        W48236   8.558   9.762  10.075 -0.0922 -0.0024 -0.2381
32103W        W48237  10.615  15.009  13.223 -0.1053  0.1002 -0.0298
32104W        W48238  10.945  10.950   1.667 -0.0621 -0.0848  0.0530
32105W        W48239   5.800  12.072  11.187 -0.1412 -0.3083  0.1656
32106W        W48240  13.924   8.424  10.215 -0.0228 -0.2117 -0.1064
32107W        W48241  17.228  14.210   0.989  0.0708  0.0293 -0.0366
32108W        W48242   9.464   1.672  14.083 -0.1607 -0.3116  0.0037
32109W        W48243   9.682   7.181  10.959  0.1348  0.4539  0.0576
32110W        W48244  14.639  15.032   1.568  0.0098  0.1156  0.3229
32111W        W48245  14.064  17.546   1.562 -0.1194 -0.1492 -0.0507
32112W        W48246   8.770   5.840   3.643  0.0934 -0.3012 -0.0944
32113W        W48247  12.539   8.950  14.796 -0.2013 -0.1866 -0.1191
32114W        W48248   1.337  15.919  10.706 -0.0260  0.0475  0.0034
32115W        W48249   1.156  15.517  13.574  0.1872  0.1540  0.0616
32116W        W48250   8.569   5.611  11.702 -0.1008 -0.4891  0.3525
32117W        W48251   1.802   0.634   0.079  0.0446  0.2796  0.1796
32118W        W48252  18.475   9.647  14.624  0.5713  0.0462 -0.1632
32119W        W48253   2.399   4.769  12.329  0.1711  0.0394 -0.0028
32120W        W48254  18.722   5.558  11.280  0.1277  0.0948  0.1414
32121W        W48255   2.738   7.819  14.804  0.1287 -0.0719  0.2286
32122W        W48256   7.470  16.251  13.309 -0.1013  0.3029 -0.2013
32123W        W48257   3.694   0.671  14.271  0.2346  0.2350  0.1272
32124W        W48258   9.268  10.248   5.470  0.1213  0.0407 -0.0254
32125W        W48259   8.887  16.277  13.834 -0.3478 -0.0738 -0.1503
32126W        W48260   0.670   8.285   4.389 -0.0918 -0.1695  0.1777
32127W        W48261  12.315  13.743   0.528 -0.2045  0.3032 -0.0719
32128W        W48262  16.310   8.314   0.634  0.1462 -0.1093 -0.0870
32129W        W48263  18.196   8.812  10.633 -0.1103  0.1324  0.0996
32130W        W48264   3.401  11.251  14.232  0.1277  0.4151 -0.3907
32131W        W48265   7.301  11.869  12.274 -0.1969  0.1648  0.1028
32132W        W48266  17.935   4.841   1.013 -0.2403 -0.1562 -0.1485
32133W        W48267   1.234   4.112  12.205 -0.0004  0.0307 -0.4329
32134W        W48268   9.108   9.498   4.775  0.0140  0.0787 -0.1431
32135W        W48269  16.153  10.318   1.926 -0.0338  0.0847 -0.0222
32136W        W48270   3.905  13.408   3.101  0.2611  0.2673 -0.3709
32137W        W48271  11.031   3.258  14.098  0.1686 -0.0693 -0.0535
32138W        W48272  13.749   9.954   2.211  0.0319  0.0500  0.2277
32139W        W48273   4.473  14.443  10.579  0.1301 -0.0446 -0.1575
32140W        W48274   3.958   5.262  13.985  0.0250  0.1944  0.1368
32141W        W48275  12.226  11.333  13.058 -0.0232  0.0899  0.0572
32142W        W48276  11.849  14.373  12.788 -0.1091  0.1997 -0.3951
32143W        W48277   3.692   0.505   1.110 -0.4670 -0.3209 -0.0925
32144W        W48278   8.962  19.349   2.818  0.1223  0.0528  0.0175
32145W        W48279   1.207  12.145   2.910 -0.2620 -0.0715  0.0754
32146W        W48280  17.637  14.920   0.294 -0.0514 -0.2827  0.1369
32147W        W48281   1.766  14.331   2.997 -0.2017 -0.2939 -0.1247
32148W        W48282  15.387  13.079   4.867  0.0279 -0.3705  0.0762
32149W        W48283   8.707   9.077   0.197 -0.3099  0.2734  0.0886
32150W        W48284   8.744   6.382  13.519  0.0649 -0.0927 -0.0688
32151W        W48285  10.696  18.348   1.933  0.0428  0.0981 -0.5884
32152W        W48286  17.410   2.556  10.272 -0.0786  0.0483 -0.0510
32153W        W48287   2.216   3.046   0.840  0.2585  0.1004 -0.1104
32154W        W48288  12.202  13.794  14.694  0.2228  0.2000  0.3950
32155W        W48289   3.217   8.852  12.794  0.3121  0.0427 -0.0362
32156W        W48290   4.619   8.572  14.232 -0.4258 -0.1952  0.2542
32157W        W48291   2.799   0.488  12.958  0.0981 -0.0358 -0.0918
32158W        W48292   2.789   4.072  13.274 -0.1125 -0.0154  0.0916
32159W        W48293  17.548   4.630   2.542  0.1146 -0.0280 -0.3470
32160W        W48294   5.391   6.941  10.043  0.3024 -0.0128  0.0876
32161W        W48295   4.171   0.235   3.104 -0.0917  0.1618  0.0726
32162W        W48296   7.436   5.956   3.217  0.0111  0.4204 -0.2480
32163W        W48297   3.454  14.086   0.097  0.0351  0.0722  0.0200
32164W        W48298  12.379   6.567   4.287  0.0302 -0.1123  0.1403
32165W        W48299   4.359  16.531   3.950 -0.2952  0.0176 -0.0625
32166W        W48300   5.712  15.145   0.959 -0.2352  0.2945  0.2319
32167W        W48301  10.858  16.319  12.531 -0.0291  0.1321 -0.0333
32168W        W48302  14.584  11.987   5.453 -0.0841 -0.1563 -0.0142
32169W        W48303  13.950  14.429  12.663  0.1367 -0.2184 -0.0728
32170W        W48304  11.337   8.205   1.624 -0.1932  0.0714  0.2917
32171W        W48305   8.371   9.182   0.782  0.1782 -0.1407  0.0311
32172W        W48306   8.278   7.833   1.220 -0.0378 -0.1149 -0.1232
32173W        W48307  14.383   2.419   4.612 -0.1179  0.2872 -0.5036
32174W        W48308  17.815   4.421   4.974  0.2215 -0.2259 -0.0868
32175W        W48309   0.083  16.183  11.162  0.0305  0.1295  0.1618
32176W        W48310   4.398   2.740  14.557 -0.2388 -0.0542 -0.1904
32177W        W48311  18.487   9.979  12.497 -0.2066  0.0216 -0.0016
32178W        W48312   0.424  11.771   4.616  0.0850  0.1801 -0.1288
32179W        W48313   2.770   9.764  13.489 -0.1863  0.2533  0.0733
32180W        W48314   8.573  18.420  14.468 -0.1959  0.1530 -0.2872
32181W        W48315   6.748   4.528   1.821  0.1645 -0.0788  0.0604
32182W        W48316  17.948   8.110   3.093 -0.3860 -0.0075  0.2238
32183W        W48317   7.130   2.267  13.113  0.3831 -0.2379 -0.1281
32184W        W48318  17.122  18.082   3.641 -0.4745  0.0128  0.1893
32185W        W48319   7.086  17.189   4.646  0.0953  0.3171 -0.2759
32186W        W48320  16.131   9.549   2.607 -0.2512 -0.2757  0.1232
32187W        W48321  15.276   4.980   5.013 -0.0694 -0.0923  0.1609
32188W        W48322   1.129   0.428   2.770  0.1393 -0.2433 -0.0863
32189W        W48323  15.780  13.852  13.018 -0.1936  0.0191  0.0668
32190W        W48324   0.706  13.074  11.014 -0.1000  0.2117 -0.3175
32191W        W48325   8.501   9.384  12.718 -0.2709  0.0063  0.0316
32192W        W48326  11.107   5.387  11.860  0.2814 -0.1823  0.0368
32193W        W48327  18.839  14.464   3.289 -0.3365 -0.0079  0.0598
32194W        W48328   6.995   9.906   1.667  0.1669  0.0697 -0.0615
32195W        W48329   5.196  13.514  14.588  0.0333 -0.0156  0.1445
32196W        W48330  13.169  16.987  10.313 -0.0579  0.1366 -0.0675
32197W        W48331  18.917  18.319  13.828 -0.0844  0.3711 -0.0161
32198W        W48332   6.008  18.765  12.056  0.0988  0.0774 -0.0473
32199W        W48333   7.805   2.802   0.656  0.2481  0.1594  0.0897
32200W        W48334   5.481   6.491  13.607 -0.1580  0.2383  0.1472
32201W        W48335   3.632  18.219   4.125 -0.1833 -0.0374  0.0667
32202W        W48336  13.716   4.034   5.239  0.1440  0.1053 -0.2392
32203W        W48337   8.859   7.011   0.692  0.0740 -0.1564 -0.0310
32204W        W48338  14.097  18.490   1.537  0.0645 -0.1744 -0.0106
32205W        W48339   7.634   6.333  10.113  0.1062  0.1015 -0.1841
32206W        W48340  15.642  16.139   0.142 -0.0071  0.0044 -0.0837
32207W        W48341  18.253   8.915   1.802  0.0923  0.3632 -0.1057
32208W        W48342  13.901   5.036   2.996  0.0318  0.0382 -0.2324
32209W        W48343  12.637   8.213   4.022  0.0558  0.1369  0.1724
32210W        W48344   3.186   7.383  10.971  0.1691 -0.0057 -0.3347
32211W        W48345  12.780  13.519   0.319 -0.1764  0.2234  0.0698
32212W        W48346  18.210  14.862   4.995 -0.2064 -0.1039  0.3038
32213W        W48347   9.921  15.701  11.218 -0.3116  0.0497 -0.0382
32214W        W48348  13.909   9.278  10.244  0.0737 -0.0754  0.1759
32215W        W48349  15.438  14.661  12.952  0.0747  0.3390 -0.0594
32216W        W48350   1.301  13.194   3.134  0.0213  0.2735 -0.0435
32217W        W48351   9.048   9.998   5.041  0.2142 -0.0999 -0.1746
32218W        W48352  14.838   5.030   0.812  0.3821  0.1532 -0.0512
32219W        W48353  15.629  12.249   2.218 -0.0365 -0.0494 -0.0577
32220W        W48354   3.582  13.123   2.889 -0.0892 -0.0782 -0.1229
32221W        W48355  18.568  15.374  11.675 -0.0081 -0.0283  0.0286
32222W        W48356  11.450  18.564   2.230 -0.0445 -0.2572 -0.0967
32223W        W48357   1.417  13.042  14.462  0.2852 -0.3900  0.2774
32224W        W48358   8.031   8.424   4.231  0.0001 -0.1480  0.0371
32225W        W48359  15.384   2.379   1.697 -0.1487  0.0752  0.0766
32226W        W48360  15.860  10.638   9.877 -0.1305  0.1560 -0.2609
32227W        W48361  18.680   0.804   3.118 -0.0981  0.1578  0.0044
32228W        W48362   0.746  13.791  14.701 -0.0344  0.0762 -0.1543
32229W        W48363  11.353   2.326  14.214 -0.1303 -0.0537  0.0401
32230W        W48364  15.240  12.254   3.613 -0.3340  0.1668 -0.1349
32231W        W48365   8.634   9.007  13.399 -0.1954  0.0078  0.0758
32232W        W48366  10.379   6.017  11.022 -0.2025  0.0893  0.0550
32233W        W48367  17.608  18.163  12.051 -0.1214  0.0615  0.0285
32234W        W48368  13.100   6.772  10.614 -0.3441 -0.1454 -0.3213
32235W        W48369   1.267   7.810   0.017 -0.1005 -0.2751 -0.1198
32236W        W48370  18.702  17.253   0.603  0.3615  0.0910  0.1475
32237W        W48371   6.685   3.361  12.583 -0.0795 -0.0511  0.0489
32238W        W48372   3.507   1.320  14.876  0.1562  0.1914  0.2888
32239W        W48373   3.952  15.951   5.239 -0.2610  0.1175  0.2929
32240W        W48374  15.187   5.730   2.629  0.0277  0.0035  0.4242
32241W        W48375   2.848   1.553   2.144 -0.0286  0.3740  0.1340
32242W        W48376   5.437  12.274   1.938  0.2650  0.0614 -0.1146
32243W        W48377   5.908   6.093  12.439 -0.1288 -0.0192 -0.0990
32244W        W48378   5.056   3.791  12.002  0.0278 -0.0171 -0.2754
32245W        W48379  10.407   6.053  10.390 -0.0877 -0.0274  0.1694
32246W        W48380  12.481   2.432   3.339  0.0574 -0.1613 -0.5124
32247W        W48381  19.135   2.391  10.373 -0.1397 -0.2383  0.1581
32248W        W48382   7.063  13.401   0.392  0.0166 -0.2119 -0.2211
32249W        W48383   4.966   4.404   1.308 -0.1105 -0.2152  0.0159
32250W        W48384  19.336  13.717   4.629  0.2685 -0.3276  0.2961
32251W        W48385  19.085   3.121  11.225  0.1674 -0.2238  0.0513
32252W        W48386   4.663   6.414  11.119 -0.0823 -0.3381 -0.1171
32253W        W48387  10.597   2.208  13.391  0.1137 -0.0923  0.0553
32254W        W48388   8.504   1.876   3.980 -0.2614  0.0777 -0.0745
32255W        W48389   5.866   1.599   1.251 -0.2384  0.0864  0.0999
32256W        W48390  18.210   8.368   9.542  0.3195 -0.0375 -0.1571
32257W        W48391   6.582  18.163  14.237 -0.3543 -0.2526  0.2060
32258W        W48392   6.955   2.420   3.184 -0.1973  0.3298 -0.3210
32259W        W48393  17.217   5.745  12.746 -0.2102  0.0654 -0.1499
32260W        W48394   4.072   1.001   2.704 -0.1869 -0.2481 -0.0592
32261W        W48395  10.727   6.932  10.108 -0.0271 -0.1379 -0.0941
32262W        W48396   7.806   6.140   1.828 -0.0650 -0.0490 -0.0270
32263W        W48397  12.538  11.278  13.817 -0.1016 -0.2727 -0.1372
32264W        W48398   8.557  12.742  14.146 -0.1234  0.1181 -0.1965
32265W        W48399   6.574  14.563   0.462 -0.2113 -0.2387  0.2406
32266W        W48400   7.110   3.658   2.930  0.4090  0.0532 -0.1728
32267W        W48401  10.717   4.417   1.523  0.2893  0.2795 -0.4456
32268W        W48402   6.371  14.204  10.582  0.0794  0.1569  0.0776
32269W        W48403   1.215  13.938   1.593 -0.1926  0.1012 -0.0447
32270W        W48404  15.596  13.761   1.622  0.0956 -0.0565  0.1278
32271W        W48405   2.825   0.227   3.310 -0.2336 -0.2153 -0.4901
32272W        W48406   4.998  10.757   0.603 -0.1318  0.1626 -0.2118
32273W        W48407   1.897  12.895   1.286  0.4095  0.0230 -0.1629
32274W        W48408   8.325   6.531  13.649  0.1146  0.0871 -0.2553
32275W        W48409   2.301  10.566  11.863 -0.5308  0.0449 -0.1817
32276W        W48410   9.438  17.157  10.671 -0.0512  0.1645 -0.3931
32277W        W48411   1.282  15.899   9.931 -0.0817 -0.2259  0.0496
32278W        W48412  18.479  17.750   0.042 -0.0166 -0.1200  0.1987
32279W        W48413  16.111  12.676   0.534  0.1674  0.0118  0.0758
32280W        W48414   8.946  16.184   2.943  0.1492 -0.0553  0.0123
32281W        W48415  11.637   5.624   3.310 -0.1004  0.0169 -0.1856
32282W        W48416  16.984   6.393  11.160 -0.3945  0.2487 -0.1537
32283W        W48417  16.737   3.860  11.367 -0.2553  0.0142 -0.2702
32284W        W48418   0.688  10.906  13.194  0.1838 -0.2678 -0.0296
32285W        W48419   0.989  17.616  13.738  0.1287 -0.1545 -0.2581
32286W        W48420   6.331   4.044   4.440 -0.2144 -0.2986  0.0943
32287W        W48421   6.095  14.414   0.741  0.0686  0.2523  0.0271
32288W        W48422   2.577  17.123  13.556  0.0311  0.0924  0.3321
32289W        W48423  11.923   5.791  12.574 -0.1642 -0.3015 -0.2779
32290W        W48424  12.822   2.926  14.345 -0.2821 -0.2782 -0.0710
32291W        W48425   6.613   6.725   3.132 -0.1343 -0.1438  0.1003
32292W        W48426  17.407   3.134   1.557 -0.2240  0.1867 -0.1038
32293W        W48427   4.385   9.623   1.634 -0.1227  0.1663  0.2505
32294W        W48428   5.679   9.269  11.312  0.0664 -0.1499 -0.0849
32295W        W48429  15.912  12.897   4.143 -0.1155 -0.2141  0.0360
32296W        W48430  17.592  18.157  12.724 -0.1638 -0.0543 -0.1679
32297W        W48431   1.302   1.541  14.030  0.0465  0.0537  0.4508
32298W        W48432   4.387   5.118   3.317 -0.0610  0.2969  0.3803
32299W        W48433  10.527   4.943  10.150  0.1061  0.0884 -0.0837
32300W        W48434  17.621  16.651   2.336  0.1262  0.0124  0.3607
32301W        W48435   7.269   9.203   2.446  0.0535  0.0629 -0.0465
32302W        W48436   9.529  18.776  11.094 -0.2155  0.0071 -0.1071
32303W        W48437  11.081   2.904   2.915  0.0400 -0.3830  0.1905
32304W        W48438   8.176   8.417   3.719 -0.3616  0.0488  0.0100
32305W        W48439  11.846   0.998  14.943  0.0153 -0.1243  0.2909
32306W        W48440   7.085  19.285   2.935  0.2703 -0.0043  0.2397
32307W        W48441  10.084  13.623  11.018 -0.4049  0.1004  0.2687
32308W        W48442  15.955  18.223  11.546  0.1854  0.0901  0.0859
32309W        W48443  16.187  18.718   6.037 -0.1881 -0.1239 -0.4426
32310W        W48444  14.273  18.280   3.843  0.1111 -0.3929 -0.1876
32311W        W48445  13.167   0.865  12.388 -0.0023 -0.3153  0.0738
32312W        W48446  19.261  12.619   0.897  0.1862  0.0730 -0.2066
32313W        W48447   5.527   5.765  14.653  0.0500 -0.0448 -0.2036
32314W        W48448  14.384   4.894  13.334  0.1666 -0.4107 -0.0686
32315W        W48449   9.436   7.421   3.842  0.0946 -0.0126  0.2308
32316W        W48450  17.020   6.724  11.695  0.0039  0.4025 -0.2857
32317W        W48451   0.830  14.199  13.715 -0.1996  0.2082  0.0871
32318W        W48452   6.469  17.979   4.617  0.0636  0.1426  0.1533
32319W        W48453  13.352   2.984   0.831 -0.0835  0.1272  0.0380
32320W        W48454   6.362   6.549  11.579  0.1084  0.0638 -0.2032
32321W        W48455   0.707   0.478  14.470 -0.2362 -0.0353 -0.0827
32322W        W48456   5.285  13.892   0.365  0.1560 -0.2476  0.0062
32323W        W48457  12.555   8.563   2.841  0.3647  0.3644  0.1248
32324W        W48458   6.688   4.435   2.515 -0.1223 -0.1033  0.0756
32325W        W48459  18.755  16.302   2.009 -0.2056 -0.0368  0.0408
32326W        W48460  14.159  14.652  12.233  0.1214 -0.0746  0.1582
32327W        W48461  14.617  12.527   0.475  0.0378  0.1399  0.3135
32328W        W48462  13.662  15.102   0.116 -0.1800  0.0412 -0.0472
32329W        W48463  11.492  14.505  13.975 -0.1321 -0.2166 -0.0903
32330W        W48464  16.759   0.102   2.488  0.0101  0.1076  0.1597
32331W        W48465  16.169   8.836  10.992  0.3068 -0.1679  0.3988
32332W        W48466   2.969  18.160   9.837 -0.0057  0.1567 -0.3934
32333W        W48467  16.363  10.627  13.088  0.0179  0.0152  0.0832
32334W        W48468  12.627   5.424  10.232  0.1935 -0.0508 -0.0576
32335W        W48469  11.062  12.231   4.181 -0.4449  0.1100  0.2484
32336W        W48470   6.731  10.001   9.205 -0.1495  0.3698 -0.0956
32337W        W48471  11.955  10.391   6.234  0.2379 -0.0491 -0.2094
32338W        W48472  17.076  11.127  12.271  0.0772 -0.1992 -0.0642
32339W        W48473  16.713  11.325   2.456  0.4386 -0.1355 -0.0604
32340W        W48474  14.874   7.158  13.619  0.1020  0.2425 -0.0432
32341W        W48475   2.632  15.180  13.311  0.1715  0.1129 -0.2799
32342W        W48476  17.052   6.458   5.136  0.0561  0.1406 -0.2590
32343W        W48477   4.497   2.237   9.315 -0.2038  0.5619 -0.2514
32344W        W48478   4.997  11.628   1.648  0.2175 -0.1417 -0.0270
32345W        W48479   3.597  10.603   1.611 -0.0665  0.1241 -0.1093
32346W        W48480  15.707  12.798   5.054 -0.1536 -0.0477  0.2263
32347W        W48481  18.357  13.821   4.056 -0.0236  0.1119 -0.1717
32348W        W48482   4.904  17.826   4.539  0.2850  0.0961  0.0082
32349W        W48483   7.388   0.822   0.231  0.2842  0.1252 -0.2068
32350W        W48484  17.041   2.753   1.392  0.3098  0.1437  0.1106
32351W        W48485   4.975   8.991   3.520  0.2366 -0.2426  0.0698
32352W        W48486  16.650   2.471  11.478 -0.2837 -0.1938  0.2279
32353W        W48487  18.607  17.897  13.110  0.1638  0.4787  0.1125
32354W        W48488   5.429  14.146   5.177 -0.2886  0.2159  0.3863
32355W        W48489   3.041   3.754  13.733  0.0154 -0.1379 -0.0541
32356W        W48490   5.103   4.003  14.116 -0.0604  0.1912  0.2486
32357W        W48491  17.764   9.428  13.469 -0.0655  0.0956  0.1450
32358W        W48492  16.328  15.027   2.859  0.2609  0.1528  0.0613
32359W        W48493  10.328  16.354   4.059 -0.0730  0.0556  0.3210
32360W        W48494   7.306  16.935  14.329  0.0173 -0.3801 -0.0533
32361W        W48495   3.907  19.340  11.471  0.0082 -0.1607 -0.0395
32362W        W48496  14.202  18.990  14.087 -0.2096 -0.0891  0.0308
32363W        W48497  14.823   0.882   5.332  0.3871 -0.2061 -0.0543
32364W        W48498   8.171   2.136  10.769  0.0123 -0.1414  0.1783
32365W        W48499  19.170   1.750   2.642  0.0078  0.1407  0.0048
32366W        W48500   6.758   0.238   9.709 -0.4495  0.0758 -0.0268
32367W        W48501  12.363   1.958   0.826  0.0627  0.3894  0.0370
32368W        W48502  16.625   8.352   2.074 -0.2285 -0.1576 -0.0033
32369W        W48503   4.620  14.730   1.407 -0.0114  0.0510 -0.0728
32370W        W48504  10.670   8.802   4.290 -0.0005 -0.3762 -0.4931
32371W        W48505   1.823   9.728  12.301  0.2816  0.0796 -0.0906
32372W        W48506   9.121  10.212   2.046  0.2713  0.0159 -0.4484
32373W        W48507   5.973   3.782  12.945 -0.1910  0.1744 -0.3934
32374W        W48508  18.561  12.794   0.256 -0.2860 -0.0997  0.0879
32375W        W48509   6.279   5.820   0.383  0.0758  0.2491 -0.2407
32376W        W48510  13.303   5.081   2.543  0.2770  0.1784 -0.0104
32377W        W48511   5.972   6.696   0.088  0.0183  0.1824  0.0031
32378W        W48512  10.579  18.950   1.837 -0.3567 -0.0099  0.3318
32379W        W48513   2.753  19.224   4.407  0.0286 -0.2551 -0.0816
32380W        W48514  19.213  18.327   1.406 -0.0530 -0.2125  0.1536
32381W        W48515   8.401  15.796   4.292 -0.0486 -0.1050 -0.4061
32382W        W48516  14.852  11.059  13.993 -0.6001  0.0580 -0.0868
32383W        W48517   9.143  13.821  13.080  0.0813  0.0906  0.1870
32384W        W48518   6.728   7.050  12.961  0.0814 -0.2307  0.3189
32385W        W48519   7.560   7.991  10.972  0.1736  0.4102  0.2201
32386W        W48520   4.160   4.984   0.761  0.1415 -0.4562 -0.1276
32387W        W48521   7.574   2.206   1.889 -0.3451 -0.1955  0.0046
32388W        W48522   0.555   3.359   9.228 -0.0558  0.0298  0.3157
32389W        W48523  12.492  11.794   4.138 -0.2409 -0.2692 -0.0148
32390W        W48524   9.267   9.564  13.342 -0.1488 -0.1580 -0.0146
32391W        W48525  18.791  17.433  12.844 -0.1932 -0.1635  0.0986
32392W        W48526  14.597   5.087  13.743 -0.0843  0.2780  0.0002
32393W        W48527   2.512   7.799   3.553 -0.6044  0.4911 -0.1116
32394W        W48528  17.347  18.580  12.721  0.1472  0.1696  0.0081
32395W        W48529  11.273  18.090  14.920  0.1088  0.2091 -0.5744
32396W        W48530   5.766   2.342  12.546  0.2540  0.2833 -0.0045
32397W        W48531   6.923  10.178  13.804 -0.4864  0.1404  0.4235
32398W        W48532  13.536  13.931  11.672 -0.0570 -0.2650  0.1607
32399W        W48533   2.086   8.171   0.793 -0.0887  0.1405 -0.4922
32400W        W48534   2.411   8.865   4.356  0.0501 -0.0055  0.4286
32401W        W48535   9.436   9.941  14.883  0.0899  0.2980  0.0856
32402W        W48536  10.268  18.312  12.621 -0.0438  0.1517 -0.2502
32403W        W48537  10.431  14.840   2.326  0.1543 -0.0451  0.1027
32404W        W48538   5.322   6.078   0.164  0.1977 -0.0177 -0.0719
32405W        W48539   9.281   7.953   9.465  0.0676 -0.0834 -0.0831
32406W        W48540  12.289   5.023  10.348  0.2501  0.0941  0.4530
32407W        W48541  10.372   4.745   2.506 -0.0516 -0.1433 -0.0872
32408W        W48542   9.158   6.567   2.837 -0.2101  0.0940  0.2125
32409W        W48543  10.759  10.604   3.787 -0.0853 -0.0422  0.6259
32410W        W48544  16.603  10.146   1.708  0.0739  0.4170  0.2210
32411W        W48545  13.762  16.482   1.963  0.0942 -0.0496 -0.0111
32412W        W48546   3.606   9.681  12.711  0.0486  0.0455 -0.1324
32413W        W48547  16.734  13.995   2.976 -0.0413  0.0556 -0.2075
32414W        W48548   9.801   9.985   4.415 -0.0952  0.1716 -0.0893
32415W        W48549   0.508   8.036  10.345  0.0222 -0.0451 -0.4135
32416W        W48550   8.873   8.815   1.173  0.2646  0.0392  0.0997
32417W        W48551  13.377   6.804  13.664 -0.1227  0.0850 -0.2365
32418W        W48552  16.830   3.185   0.100  0.0047 -0.0540  0.2630
32419W        W48553  14.154  11.348  13.345  0.1240  0.0705 -0.1689
32420W        W48554   4.475   7.297   0.862 -0.2279  0.0960 -0.3768
32421W        W48555   6.293  14.316  12.325 -0.2579  0.1756  0.0931
32422W        W48556   9.235   0.226   0.735  0.1324 -0.1440 -0.1550
32423W        W48557   8.094   4.211  13.726 -0.2370 -0.1530  0.0996
32424W        W48558   1.967  14.776  14.030  0.1637  0.2388 -0.2248
32425W        W48559   0.644  16.388   3.526  0.0489  0.3111 -0.0892
32426W        W48560   6.891   1.705  13.057  0.0439  0.1878 -0.0131
32427W        W48561   5.619   5.991   9.793  0.0075 -0.2107 -0.0634
32428W        W48562   7.956  11.038   3.069 -0.0947 -0.1497  0.3278
32429W        W48563   3.779   7.060   2.410 -0.1973 -0.0176  0.1794
32430W        W48564  12.694  14.042   0.524  0.2043  0.0257  0.1350
32431W        W48565   5.346   9.126   4.268 -0.0074  0.0419  0.1642
32432W        W48566  14.238  13.195   2.820  0.1690 -0.1185 -0.0617
32433W        W48567  15.793   9.821   2.302  0.1836 -0.1879  0.1934
32434W        W48568   5.653   4.504  11.827 -0.0072  0.0178 -0.1570
32435W        W48569   5.365  15.773  12.810 -0.0492 -0.1252 -0.1214
32436W        W48570  11.772  16.571   4.963 -0.0818  0.0637  0.1358
32437W        W48571   9.679  10.686   1.158 -0.0243 -0.1592 -0.0775
32438W        W48572   9.859  13.438   5.208  0.1740 -0.1064 -0.1189
32439W        W48573  15.591   2.011   3.628 -0.0711 -0.0515 -0.1503
32440W        W48574  11.907   8.772   4.049 -0.1469  0.1034  0.2027
32441W        W48575  15.051  16.613   6.172  0.3485  0.4408  0.0318
32442W        W48576  10.067   6.058   3.111 -0.1952 -0.1052 -0.0563
32443W        W48577  12.880   5.569  10.656 -0.1499  0.0612  0.1691
32444W        W48578  12.724   4.467   1.753  0.0166  0.0712  0.0592
32445W        W48579  12.430   4.661   2.759  0.0864  0.3131  0.0009
32446W        W48580   6.523   6.684  12.093  0.1357 -0.1582  0.1136
32447W        W48581  10.112   8.346  14.807 -0.3362 -0.2003  0.0447
32448W        W48582   9.660  11.970   4.738  0.0820 -0.0569  0.1474
32449W        W48583  12.334   2.914  14.411 -0.1565  0.0069  0.2139
32450W        W48584  10.734   4.781   1.819  0.0917 -0.0269 -0.2038
32451W        W48585   5.034  11.353  10.677  0.0347 -0.2445 -0.2497
32452W        W48586   9.174  14.826   5.500 -0.0268  0.1599 -0.0314
32453W        W48587   8.270   7.523   3.249  0.1217  0.2361  0.0245
32454W        W48588   7.705   1.975  14.536 -0.0058  0.1569  0.1497
32455W        W48589  11.008  17.707   0.807  0.1377 -0.3005 -0.4996
32456W        W48590   8.775   3.379  14.662  0.2289 -0.0472  0.1860
32457W        W48591   6.042  17.508  11.041  0.0222  0.1854  0.0463
32458W        W48592   9.940  14.338   0.025  0.1487 -0.2221  0.0321
32459W        W48593   1.417   9.562   1.844 -0.0598  0.1138 -0.2569
32460W        W48594  10.730  17.058   5.568 -0.0349 -0.0403 -0.2615
32461W        W48595   0.789  18.239  14.476  0.3631 -0.2744 -0.3167
32462W        W48596   1.758  17.587   0.410  0.1534 -0.0910  0.1076
32463W        W48597   3.324   1.505   2.445  0.2297 -0.2023 -0.1691
32464W        W48598  10.536  13.502  10.611 -0.1190 -0.0601 -0.0240
32465W        W48599   1.488   2.709  14.753 -0.3055  0.0379 -0.2661
32466W        W48600  14.359  16.069   5.118  0.1406  0.0094  0.0122
32467W        W48601   4.529   6.639  12.174  0.0839  0.0585 -0.0047
32468W        W48602  12.113  18.959  13.975 -0.3676  0.1121 -0.1234
32469W        W48603  10.251   1.985  13.812  0.1134  0.0392 -0.0316
32470W        W48604  14.270  13.812  11.416  0.2029 -0.2660  0.0408
32471ION     NA48605  11.857   6.736  14.529  0.0067 -0.3146  0.0134
32472ION     NA48606   8.540   7.496   5.205  0.0572  0.1443  0.1481
32473ION     NA48607   4.394   6.026   4.418 -0.1816 -0.1281  0.3341
32474ION     NA48608  13.790   6.272  14.486  0.1171  0.0142  0.2000
32475ION     NA48609  18.075  11.714  14.974 -0.0899  0.2795 -0.0944
32476ION     NA48610   1.786   4.125   3.923  0.1281 -0.3836  0.0432
32477ION     NA48611   2.330   4.692   9.383 -0.0515  0.0284 -0.0221
32478ION     NA48612  18.608  14.995   0.228  0.1087 -0.1860 -0.1822
32479ION     NA48613  10.800  14.981   1.106  0.2981  0.0665 -0.1388
32480ION     NA48614  16.793  15.672   9.740  0.0998  0.3050  0.3562
32481ION     NA48615  11.024   3.275   9.798 -0.0480 -0.0972 -0.2598
32482ION     NA48616   4.842  18.205   1.878 -0.3987 -0.1030 -0.3020
32483ION     NA48617   6.700  10.355   9.627 -0.1761  0.0670 -0.0912
32484ION     NA48618  14.804   9.896   4.320 -0.1832 -0.2444  0.2397
32485ION     NA48619   4.653   8.247   9.114  0.0541  0.0310  0.3634
32486ION     NA48620  12.776   8.138   9.494 -0.3128 -0.0735 -0.1336
32487ION     NA48621   0.297  10.078   9.264  0.1703  0.2807  0.1579
32488ION     NA48622  18.004  10.833   2.448  0.0773 -0.0174  0.0448
32489ION     NA48623   6.917   2.538   9.632 -0.3434 -0.1584 -0.1737
32490ION     NA48624   2.633  16.221   4.532 -0.0834 -0.0962 -0.4497
32491ION     NA48625   9.593   2.537   9.806 -0.0683  0.0856 -0.2405
32492ION     NA48626  14.272  15.896   6.013  0.0013 -0.0716 -0.0324
32493ION     NA48627  18.938   5.569   9.436  0.1937 -0.3535 -0.2108
32494ION     NA48628  17.717   9.724   5.154  0.0509  0.2716 -0.0197
32495ION     NA48629   3.596   0.974  11.183 -0.1784  0.1890 -0.2437
32496ION     NA48630  10.613  15.154   2.656 -0.0053 -0.1988 -0.2078
32497ION     NA48631  18.780   1.767   3.654 -0.0433  0.0916 -0.0536
32498ION     NA48632   7.788   3.618  14.842 -0.0994 -0.0700  0.0895
32499ION     NA48633  16.065  18.227   0.699 -0.0942 -0.1857  0.0125
32500ION     NA48634   8.483  16.094  10.241 -0.3906 -0.0739  0.0440
32501ION     NA48635  18.271  10.662  13.504 -0.2958  0.1212 -0.2994
32502ION     NA48636   8.638   9.878   8.986 -0.0988  0.0270 -0.1777
32503ION     NA48637  13.340  18.038  11.592 -0.0567  0.0881  0.1452
32504ION     NA48638   3.575   9.096   1.452 -0.2248 -0.0892  0.1696
32505ION     NA48639   9.926   1.686   9.842 -0.0143  0.3280 -0.2020
32506ION     NA48640  13.901   4.071  10.047 -0.1776  0.1477  0.1096
32507ION     NA48641  18.536   0.986   9.874  0.1307 -0.2697  0.0042
32508ION     NA48642  12.147  12.540   5.655 -0.1078 -0.0038 -0.1683
32509ION     NA48643  18.471  10.711   9.245 -0.5254  0.1888 -0.0084
32510ION     NA48644  12.551   4.957   3.186 -0.0908 -0.2686 -0.1279
32511ION     NA48645   6.535  11.982   9.730  0.0812 -0.1551  0.3024
32512ION     NA48646  13.279   1.095  10.157 -0.1214 -0.2462 -0.0893
32513ION     NA48647   4.920  17.635   1.107  0.0476 -0.1394  0.2675
32514ION     NA48648   1.937   9.003   4.516  0.3113 -0.0178 -0.1913
32515ION     NA48649  11.469   7.460   4.527 -0.0464  0.1259  0.2753
32516ION     NA48650   0.478  16.060   9.149  0.1106 -0.2416  0.0953
32517ION     NA48651   6.778   0.268  10.227 -0.2408 -0.0555 -0.0962
32518ION     NA48652   1.694  17.576   9.598 -0.0075  0.1132  0.0593
32519ION     NA48653  14.605   9.816  12.076 -0.0963  0.1552 -0.0295
32520ION     NA48654   3.746  11.652   9.730  0.1897 -0.0551 -0.2776
32521ION     NA48655  18.293  15.473   9.638  0.4316 -0.2655  0.0202
32522ION     NA48656  19.151  17.417   9.640  0.0159 -0.2234  0.0973
32523ION     NA48657  12.166  17.447  10.025 -0.0244 -0.1494  0.0867
32524ION     NA48658   1.824   2.109   9.348  0.0444  0.0783  0.1005
32525ION     NA48659   8.957  18.621  11.236 -0.0189  0.0928 -0.1246
32526ION     NA48660   3.081  17.336   2.716 -0.1271  0.1991 -0.2649
32527ION     NA48661  16.003   6.077   5.081 -0.0242 -0.0296  0.1086
32528ION     NA48662   0.701  19.137   9.646 -0.0879 -0.0181  0.0598
32529ION     NA48663  18.353   3.554   1.405 -0.0405 -0.1560 -0.2215
32530ION     NA48664  10.823  11.775   0.469  0.0898 -0.2458 -0.1711
32531ION     NA48665   2.064  14.236   9.470  0.0122 -0.1174  0.2714
32532ION     NA48666  16.808  14.058   9.603  0.0222  0.0178 -0.1135
32533ION     NA48667  14.145   5.098   3.645  0.0441  0.0387  0.0833
32534ION     NA48668  11.699  12.882   2.262  0.1220  0.0576  0.1499
32535ION     NA48669  13.644   9.357   9.702 -0.2036  0.2086 -0.4576
32536ION     NA48670   0.234   4.066   4.142  0.0609  0.0592  0.1632
32537ION     NA48671   1.942  10.667  14.808  0.2408  0.3375 -0.1334
32538ION     NA48672  13.132  18.699   0.041 -0.3651 -0.2401 -0.2217
32539ION     NA48673  15.049  17.413   5.026  0.2630  0.1968 -0.1661
32540ION     NA48674  18.909   7.809   5.194  0.1062  0.4954 -0.1311
32541ION     NA48675  13.155  17.398   5.189 -0.0682  0.0602 -0.1316
32542ION     NA48676   9.440  10.710   0.761 -0.0212 -0.1144  0.1658
32543ION     NA48677  11.267   6.223   5.001  0.0698  0.0673 -0.0326
32544ION     NA48678   8.973   6.090   9.268  0.2805  0.0170  0.0757
32545ION     NA48679   7.224   8.115   3.931  0.0429  0.0280 -0.1911
32546ION     NA48680  13.801   3.076  10.226 -0.0608  0.0452  0.0910
32547ION     NA48681   9.218   8.129   4.918 -0.1455 -0.3032 -0.2188
32548ION     NA48682  16.010   7.043   9.384 -0.0196  0.3346  0.3011
32549ION     NA48683  12.402   5.473   1.904 -0.0226 -0.1212  0.0393
32550ION     NA48684   6.447   7.058   0.914 -0.1391  0.0805 -0.0933
32551ION     NA48685  16.091  12.579   2.603 -0.3287 -0.0866 -0.2521
32552ION     NA48686  15.374  16.345   1.252 -0.2223 -0.0584 -0.1285
32553ION     NA48687   1.650  17.707   3.913 -0.0713 -0.0059  0.4981
32554ION     NA48688   7.198   9.232   9.481  0.0514 -0.0714 -0.1341
32555ION     NA48689   7.563   6.545   4.495  0.2830 -0.2763  0.0127
32556ION     NA48690  12.715  13.027   0.449  0.0966  0.2362 -0.1013
32557ION     NA48691   6.654  14.747   5.796 -0.3644 -0.1388 -0.0443
32558ION     NA48692   8.893   0.723   3.228  0.2155 -0.1207  0.0758
32559ION     NA48693  13.695   6.238   9.787  0.0728 -0.2230  0.1690
32560ION     NA48694   7.046  13.927   5.401 -0.2834 -0.0945  0.2251
32561ION     NA48695  17.732  11.284  12.827 -0.1105 -0.0368 -0.0326
32562ION     NA48696   3.195   5.947  10.495 -0.0814  0.1037  0.0880
32563ION     NA48697   0.732   2.368   9.335 -0.1142  0.0890 -0.3353
32564ION     NA48698  14.621   7.657   9.454  0.0323  0.3784  0.3535
32565ION     NA48699  14.854  13.041   3.075  0.0255  0.0118  0.1652
32566ION     NA48700   0.344  11.804   2.330 -0.1843  0.0441 -0.2720
32567ION     NA48701  12.222  10.443  12.358 -0.0909 -0.0456  0.0670
32568ION     NA48702   7.325  15.487  10.121  0.2924 -0.1786 -0.1399
32569ION     NA48703  15.782  18.218   3.933 -0.1032 -0.0879 -0.0763
32570ION     NA48704  11.255   7.038   9.208  0.0485 -0.3736  0.4281
32571ION     NA48705   9.008  13.722   5.346 -0.1018 -0.0652  0.0640
32572ION     NA48706  13.897  15.972  10.588 -0.0357 -0.0376 -0.6264
32573ION     NA48707  17.288   7.677   4.341  0.1332 -0.0947  0.0627
32574ION     NA48708   5.635  13.584   9.820 -0.2945  0.0254 -0.0077
32575ION     NA48709   1.293   1.176   9.402  0.1125 -0.2022 -0.1927
32576ION     NA48710   2.257   9.062   3.018  0.0573  0.1209 -0.0675
32577ION     NA48711  13.343   4.894   4.333  0.2061 -0.0304  0.2296
32578ION     NA48712  15.594   3.114   4.785  0.1223 -0.0227  0.0805
32579ION     NA48713  10.825   9.228   9.722  0.0696  0.0148 -0.0638
32580ION     NA48714   4.783   1.442   1.214  0.1736  0.2329  0.4303
32581ION     NA48715  16.649   7.675   9.324  0.0670  0.1328 -0.0790
32582ION     NA48716   0.145  12.507   9.443 -0.0946  0.0786  0.1549
32583ION     NA48717  16.208   0.256   4.258 -0.0882 -0.1910  0.1452
32584ION     NA48718  10.800   7.772   4.901 -0.0337 -0.3629  0.0607
32585ION     NA48719  10.274   5.044  13.997 -0.1465  0.4548 -0.2740
32586ION     NA48720  18.172  12.800   9.045 -0.3924  0.1859 -0.1504
32587ION     NA48721   3.951  15.644   5.698  0.0200 -0.1098  0.1437
32588ION     NA48722   8.406  14.420  11.080  0.0868 -0.0857 -0.4156
32589ION     NA48723   9.209  12.701   4.466  0.2512  0.0627  0.2677
32590ION     NA48724   2.791  17.327   5.576  0.1747 -0.2101  0.4219
32591ION     NA48725   3.580  16.333  13.926  0.5080 -0.0460 -0.1210
32592ION     NA48726  11.156   0.385  10.110  0.2047  0.1292  0.0238
32593ION     NA48727  15.543  14.983   5.527  0.0706 -0.2068  0.0253
32594ION     NA48728   6.223   0.452   2.235  0.2075  0.0280  0.1632
32595ION     NA48729   4.677   8.531   4.754  0.3772 -0.1378  0.1854
32596ION     NA48730   2.917  17.156  13.889 -0.2140 -0.1306 -0.1238
32597ION     NA48731   9.690   0.537  10.107 -0.0657  0.3292 -0.0548
32598ION     NA48732   2.174  16.694  13.561 -0.0003 -0.1279 -0.1076
32599ION     NA48733   1.778   0.932   9.573  0.1977  0.1531 -0.0378
32600ION     NA48734   5.417  17.221  10.133  0.4974 -0.1087 -0.0645
32601ION     NA48735   6.852   8.998   4.302 -0.2940  0.1414  0.0672
32602ION     NA48736   4.671   7.581   5.137 -0.3001  0.2517  0.2550
32603ION     NA48737   4.557  11.016   5.009  0.4097 -0.3833 -0.2359
32604ION     NA48738   3.099  18.964   9.523 -0.1196  0.1460  0.5695
32605ION     NA48739   9.008   4.071   4.716  0.1271  0.0630 -0.3587
32606ION     NA48740   8.326   1.479  10.061  0.2064 -0.0560  0.0857
32607ION     NA48741   7.555  18.853  11.665 -0.2784 -0.0971 -0.1397
32608ION     NA48742   0.243   0.978  13.384 -0.1274  0.2986  0.3060
32609ION     NA48743   2.858  19.148   1.268 -0.1938  0.1975  0.0680
32610ION     NA48744  15.208   9.938   5.477  0.1226  0.1465 -0.0592
32611ION     NA48745  12.134  13.026   4.422 -0.0124  0.2047 -0.0886
32612ION     NA48746   1.581  12.816   4.764  0.1249  0.0965 -0.0168
32613ION     NA48747   1.767   3.588  13.340 -0.0694  0.0111  0.2665
32614ION     NA48748   2.331   2.084   4.915  0.2334  0.0751 -0.2111
32615ION     NA48749   3.002  16.535   2.924 -0.1998 -0.2546  0.0111
32616ION     NA48750   6.040  10.476   5.010 -0.2317  0.0201 -0.1356
32617ION     NA48751   5.296   4.109   4.687 -0.2480  0.1463 -0.0379
32618ION     NA48752   0.037   4.310   2.098 -0.0174 -0.0537  0.0120
32619ION     NA48753   4.822   6.595   4.807 -0.3892 -0.0075 -0.0228
32620ION     NA48754  11.982  18.532   3.159  0.3209  0.0614 -0.1583
32621ION     NA48755  10.830  17.512   2.727  0.0541 -0.1120  0.1419
32622ION     NA48756  16.481  17.267   9.928 -0.1640 -0.2010 -0.0231
32623ION     NA48757   9.464   5.053   4.964  0.1354  0.0484  0.5101
32624ION     NA48758   4.992   1.430   9.328  0.1177  0.0137 -0.1243
32625ION     NA48759   3.800  13.920   0.998  0.1126 -0.2501  0.4672
32626ION     NA48760  13.622  16.412   1.484  0.0577  0.0015  0.0948
32627ION     NA48761   3.812   3.505   8.947  0.0937 -0.2297 -0.2444
32628ION     NA48762  18.752   6.737  10.703  0.2127  0.2314  0.1929
32629ION     NA48763   5.514  18.858   3.858  0.0974 -0.1086 -0.1589
32630ION     NA48764   1.078  13.750  13.374  0.0534 -0.1543  0.1702
32631ION     NA48765   4.667  18.186   5.535  0.0965 -0.2275 -0.1843
32632ION     NA48766   6.080   1.193  13.068 -0.2974 -0.5073  0.0007
32633ION     NA48767   2.411   7.258   3.380 -0.2177  0.1685  0.1224
32634ION     NA48768   6.270   5.373  13.138 -0.3331 -0.1063  0.3067
32635ION     NA48769   6.135  13.946   5.752 -0.1604 -0.2150  0.0191
32636ION     NA48770   4.953   0.358  14.953  0.0214  0.0300  0.0144
32637ION     NA48771  11.531   1.172  12.499  0.0089  0.1440  0.0065
32638ION     NA48772   5.038   8.922  10.011  0.1583  0.1652 -0.2581
32639ION     NA48773   9.169   0.706   5.733  0.0508 -0.0058 -0.0886
32640ION     NA48774  17.207  14.039  14.502 -0.1001  0.3860  0.2573
32641ION     NA48775   8.113  14.899   5.743 -0.0723  0.4336 -0.2136
32642ION     NA48776  16.205   1.862  10.525  0.1662 -0.1891  0.1457
32643ION     NA48777  13.426   7.060  10.303  0.2372 -0.1389 -0.0893
32644ION     NA48778  15.342  16.489   2.852  0.0265 -0.2965 -0.2674
32645ION     NA48779   2.626   8.858   4.835 -0.1063  0.1834 -0.1823
32646ION     NA48780  13.169  12.020   5.687 -0.0802 -0.2089  0.0709
32647ION     NA48781  13.563  16.769  10.559 -0.1900 -0.0337 -0.2429
32648ION     NA48782   2.722   5.739   4.911 -0.2017 -0.2226 -0.0166
32649ION     NA48783  15.229   0.667   2.487  0.0790  0.0217  0.1720
32650ION     NA48784   1.420  11.448   0.504 -0.0975 -0.1973 -0.0712
32651ION     NA48785  13.062   4.477  12.234  0.0205 -0.0720 -0.1980
32652ION     NA48786   8.968  11.221   1.232  0.0085  0.1290 -0.0795
32653ION     NA48787  17.106  18.565   5.298 -0.0730 -0.0519  0.1925
32654ION     NA48788   3.020   5.218   9.200  0.2761  0.0878 -0.1613
32655ION     NA48789  14.475  17.181  10.603  0.0618  0.0823  0.2946
32656ION     NA48790  14.765  11.495   5.355 -0.0450 -0.2038  0.4583
32657ION     NA48791  12.682   4.197   4.124  0.0302  0.1584 -0.1168
32658ION     NA48792  17.671  10.265   4.904  0.1834 -0.2005  0.0857
32659ION     NA48793   9.834  15.023  11.439  0.3246  0.2702  0.0204
32660ION     NA48794   5.092  11.233   2.834  0.0082  0.2489 -0.1905
32661ION     NA48795   1.751   3.829   8.865 -0.2797  0.5041  0.0427
32662ION     NA48796   1.894  15.579   9.504 -0.2990  0.1506 -0.1243
32663ION     NA48797  11.368  19.105   9.919 -0.0794 -0.1881 -0.1825
32664ION     NA48798  11.457   7.829   9.175 -0.1603 -0.0194 -0.2104
32665ION     NA48799   9.738  13.350  10.379  0.0779 -0.1373  0.0785
32666ION     NA48800  15.620  13.350   4.171  0.0303  0.1149  0.2288
32667ION     NA48801  12.175   5.320   0.776  0.0733 -0.2113 -0.1511
32668ION     NA48802   6.913  10.822   2.142  0.2258  0.0324  0.3466
32669ION     NA48803   8.326   5.374   4.982 -0.2419 -0.2131 -0.0864
32670ION     NA48804  18.844   2.960   4.865 -0.1107  0.1944 -0.0743
32671ION     NA48805  18.416   4.184   0.847 -0.1790 -0.0358 -0.1188
32672ION     NA48806  11.134   1.337  11.124 -0.3844  0.1448  0.1956
32673ION     NA48807  19.174   3.925   3.076 -0.2565 -0.1630  0.1036
32674ION     NA48808   9.512  18.117  10.570 -0.3178  0.0324 -0.1380
32675ION     NA48809   4.613  16.450   5.632  0.3306 -0.1716  0.0826
32676ION     NA48810   5.288  16.037   1.134 -0.0030 -0.0620 -0.0708
32677ION     NA48811   4.586   7.803   0.625  0.0998 -0.1421 -0.2098
32678ION     NA48812   2.282   2.571   0.276  0.2179 -0.0751  0.1124
32679ION     NA48813   0.689   9.519   9.326 -0.0993  0.1799 -0.0237
32680ION     NA48814   3.889   7.295   4.759 -0.2119 -0.1344 -0.1348
32681ION     NA48815  16.558  18.663  10.180  0.0412 -0.1890 -0.4370
32682ION     NA48816  17.075   3.721   5.007 -0.2264 -0.1075  0.2239
32683ION     NA48817   0.986   3.179   0.328  0.0453  0.1557 -0.1694
32684ION     NA48818  19.231   6.137  11.352 -0.3624 -0.0013 -0.1740
32685ION     NA48819  15.683  16.232  13.146  0.3336  0.3867 -0.1179
32686ION     NA48820  12.226  16.866   9.901 -0.1990  0.0310  0.4125
32687ION     NA48821   5.517  15.707  12.265  0.3651 -0.0153 -0.0169
32688ION     NA48822  13.116   8.579   9.879  0.1640  0.1695 -0.1696
32689ION     NA48823  16.701  15.684  14.635 -0.1413 -0.4415 -0.1487
32690ION     NA48824   1.165  15.188   4.845  0.0967  0.0074  0.0242
32691ION     NA48825  11.155   7.317   5.404 -0.2428 -0.2294  0.1996
32692ION     NA48826   3.651   1.306   9.639 -0.2085 -0.2118 -0.0088
32693ION     NA48827   4.750   5.502   2.367  0.0314  0.0262  0.2481
32694ION     NA48828  15.670   1.513   5.579  0.3272  0.0143  0.0365
32695ION     NA48829  10.280   7.233   0.527  0.0808 -0.0593  0.0418
32696ION     NA48830   2.402   7.712   9.189  0.0561 -0.1699 -0.2964
32697ION     NA48831   8.776  17.487   0.507 -0.1631  0.3551  0.3490
32698ION     NA48832   6.264   2.127   0.505  0.0200  0.1765 -0.2372
32699ION     NA48833   8.435   3.532   4.360  0.1906 -0.3232 -0.1257
32700ION     NA48834  14.487  11.038   2.533 -0.2010  0.1428 -0.4002
32701ION     NA48835   5.638   8.760   4.982  0.0781 -0.0805  0.2116
32702ION     NA48836  15.795   9.669   0.253  0.0018  0.1886  0.1161
32703ION     NA48837  16.577   1.624   5.666  0.2817  0.1625  0.1543
32704ION     NA48838  19.076   0.155   9.975 -0.1798 -0.2295  0.0516
32705ION     NA48839  15.743   3.728  13.959  0.1960  0.0175 -0.2311
32706ION     NA48840   2.855   4.944   2.703  0.1199  0.0513  0.0318
32707ION     NA48841  10.684   3.750   3.942 -0.1931 -0.3356 -0.0906
32708ION     NA48842  15.937   3.812   0.343 -0.3071 -0.0016 -0.0825
32709ION     NA48843   7.941  15.955  10.171 -0.2104 -0.0157 -0.1170
32710ION     NA48844  11.367  15.926  12.814  0.0364 -0.3387  0.0411
32711ION     NA48845   2.929  18.421  13.174 -0.1827  0.0595 -0.1842
32712ION     NA48846  19.109  16.555   9.306 -0.0588 -0.0014  0.0613
32713ION     NA48847   9.908   0.229   0.661  0.0075 -0.0484  0.0249
32714ION     NA48848  15.384  16.600  10.194  0.1889  0.0955 -0.1190
32715ION     NA48849  18.591   0.672   1.522  0.1728 -0.1403  0.1215
32716ION     NA48850   7.541  14.393   9.939 -0.2649  0.2241 -0.0418
32717ION     NA48851   9.606   6.659  13.708 -0.2352 -0.0228  0.2322
32718ION     NA48852  12.790   4.395   5.736  0.1328 -0.2559  0.0521
32719ION     NA48853   8.163  17.491  10.365 -0.3369  0.1525  0.2671
32720ION     NA48854   5.452   7.316   9.091 -0.0549  0.0029 -0.4506
32721ION     NA48855   8.326   7.934   4.964 -0.1139 -0.1947  0.2425
32722ION     NA48856  12.850  10.444   3.676  0.0649 -0.1143 -0.1931
32723ION     NA48857   5.660   4.979   9.128 -0.2341  0.2868 -0.3366
32724ION     NA48858   1.247  16.406   9.711  0.1316 -0.0281  0.3048
32725ION     NA48859  14.171   3.491   3.831  0.3167  0.1067  0.2976
32726ION     NA48860   3.029   8.263   2.068  0.0246 -0.0244  0.0738
32727ION     NA48861   2.935   9.132   9.262 -0.3426 -0.1910  0.1158
32728ION     NA48862  12.562  17.894   2.243  0.0313  0.1242 -0.2585
32729ION     NA48863   1.554   6.389   4.837 -0.0734  0.2109  0.2555
32730ION     NA48864  13.383  12.613   5.211  0.4183  0.1358 -0.3227
32731ION     NA48865  17.817  18.205   5.557  0.0115 -0.2258 -0.0165
32732ION     NA48866  16.140   3.208   9.963  0.2003  0.3765  0.0944
32733ION     NA48867   8.748   2.547   9.754  0.2042  0.4806 -0.1246
32734ION     NA48868  10.346  12.112   9.937 -0.2190  0.1564 -0.1197
32735ION     NA48869   5.056   1.983   4.623  0.0728 -0.0709  0.0070
32736ION     NA48870  10.221  15.493   6.163  0.1703 -0.0517  0.0604
32737ION     NA48871   6.711   3.402   1.085 -0.3386 -0.3567 -0.0842
32738ION     NA48872   4.748  16.690  12.034 -0.0084  0.1740 -0.1107
32739ION     NA48873   6.955  11.629   0.272 -0.1424  0.1535 -0.0999
32740ION     NA48874   8.295   6.799   0.579 -0.0358 -0.1108  0.1360
32741ION     NA48875  19.126  13.164  12.871 -0.1524  0.0656 -0.2267
32742ION     NA48876   4.579   9.797  12.292 -0.1208  0.0372  0.1698
32743ION     NA48877   1.277  14.809   9.474  0.0568  0.0521 -0.3609
32744ION     NA48878   7.949  16.318   1.467  0.3274 -0.0513  0.1114
32745ION     NA48879  17.736  16.647   5.400 -0.2122  0.1549 -0.2663
32746ION     NA48880   2.709  10.924   9.450 -0.3448 -0.0609  0.0952
32747ION     NA48881   3.626  10.832   9.386  0.0535 -0.1650  0.0060
32748ION     NA48882   6.420   6.784   4.942 -0.0806  0.0405  0.3059
32749ION     NA48883  19.272  14.832  12.195 -0.3319 -0.1247  0.2598
32750ION     NA48884   7.068  15.468   4.480 -0.0374 -0.4070 -0.1246
32751ION     NA48885  13.252  14.682  14.924  0.0124  0.2084  0.2613
32752ION     NA48886   0.114  16.078   1.260 -0.0338 -0.1632  0.3183
32753ION     NA48887   2.455   3.186   4.863  0.1021 -0.3071 -0.1771
32754ION     NA48888   6.832   7.612   1.318 -0.2914 -0.1996  0.2328
32755ION     NA48889  12.498  14.976   1.623 -0.1879  0.1112  0.0213
32756ION     NA48890   8.993   4.818   1.173  0.0366  0.2335 -0.0808
32757ION     NA48891   2.438   4.003   0.084  0.2433  0.0330 -0.2343
32758ION     NA48892   6.021  16.536   1.343 -0.0679  0.2442  0.1147
32759ION     NA48893   8.955  14.308  12.848  0.4295  0.3208 -0.0653
32760ION     NA48894  15.307   0.766   4.174  0.1570 -0.3655  0.1527
32761ION     NA48895  17.485  16.899   4.991  0.1540 -0.1933  0.1969
32762ION     NA48896  15.751   4.146   9.932  0.0440 -0.1080  0.0539
32763ION     NA48897   3.308   0.411   3.638 -0.1663 -0.2908 -0.0726
32764ION     NA48898   1.165   0.381  14.077 -0.0424 -0.1160  0.1468
32765ION     NA48899   5.825  10.493   9.514 -0.1796 -0.3499 -0.1795
32766ION     NA48900  18.141   7.878   9.519  0.1758 -0.1286  0.1269
32767ION     NA48901  17.254   4.639   4.932  0.1293  0.0900 -0.5193
32768ION     NA48902   0.155   1.655   4.438  0.1689 -0.2256 -0.4019
32769ION     NA48903   7.355  16.422  14.151  0.2253  0.2910 -0.0406
32770ION     NA48904  18.652   3.082   9.466 -0.2672 -0.0717 -0.2675
32771ION     NA48905  19.236   5.105  11.519  0.0610  0.0666 -0.4501
32772ION     NA48906  10.013  12.280   5.818  0.1196  0.0249  0.0531
32773ION     NA48907  11.837  15.449  10.556 -0.3371 -0.0369 -0.1385
32774ION     NA48908  17.887   9.928   9.200  0.2943 -0.2503 -0.0843
32775ION     NA48909   3.463   3.808   0.175  0.0517 -0.0771 -0.1027
32776ION     NA48910   6.514  15.684   5.679 -0.3242 -0.0223  0.0168
32777ION     NA48911   1.495   6.141   9.291  0.0868  0.1715 -0.1934
32778ION     NA48912  12.451  10.694  14.477  0.1223 -0.0133 -0.1645
32779ION     NA48913   1.984  12.096  14.501  0.2081 -0.0013  0.1360
32780ION     NA48914  10.034   9.786   9.752  0.0043 -0.1300  0.1703
32781ION     NA48915  17.149  17.843  10.030  0.1469 -0.1154 -0.1968
32782ION     NA48916  17.544  11.377   9.015  0.4888 -0.1737 -0.2540
32783ION     NA48917   7.263  17.367  10.068  0.0925 -0.1422 -0.0335
32784ION     NA48918   1.089  15.368   3.259 -0.2631 -0.3533  0.1557
32785ION     NA48919   8.080   6.618  12.614 -0.1553 -0.0022 -0.0976
32786ION     NA48920   8.848   2.196   5.138  0.1603 -0.1689 -0.0622
32787ION     NA48921   9.759  16.499   0.043 -0.0290 -0.1033 -0.0374
32788ION     NA48922   5.492  14.521   9.661  0.0412 -0.1174 -0.1916
32789ION     NA48923   2.496  13.783   2.861 -0.1025 -0.2270  0.3174
32790ION     NA48924  11.814   9.928  11.920  0.0338  0.0844  0.0543
32791ION     NA48925   3.310  16.636   9.981 -0.2470  0.0801 -0.0502
32792ION     NA48926  14.239   4.105  13.012  0.1319  0.0911  0.2725
32793ION     NA48927   3.738  14.925   9.447 -0.0553  0.2746 -0.2616
32794ION     NA48928   5.001   2.388   9.170  0.0079  0.2148 -0.0708
32795ION     NA48929   8.273  13.245  12.479  0.1289  0.3631  0.3194
32796ION     NA48930  11.120   0.247  12.645 -0.1977 -0.1194  0.2164
32797ION     NA48931   0.708   5.180   8.941  0.0798 -0.0804  0.0244
32798ION     NA48932  12.014   2.002   5.736  0.1358  0.0541 -0.2606
32799ION     NA48933   0.244   7.082   9.214 -0.3208 -0.0175  0.1997
32800ION     NA48934   9.461  19.268   5.721 -0.2235  0.0477  0.1162
32801ION     NA48935  17.780   8.273   1.234 -0.0107  0.0374 -0.0619
32802ION     NA48936   4.628   7.387   1.810  0.2940  0.1739  0.0568
32803ION     NA48937  10.814  16.476   3.952 -0.1940 -0.0499 -0.1348
32804ION     NA48938   0.937  17.454   5.284 -0.1700  0.1675 -0.1165
32805ION     NA48939  15.695  17.537   9.951 -0.0925 -0.3551  0.0007
32806ION     NA48940   8.672   7.987   1.494 -0.1774  0.1470 -0.0256
32807ION     NA48941  14.314  15.708  10.273  0.0723 -0.3559 -0.1643
32808ION     NA48942  14.539  13.074  10.108  0.1378 -0.1548 -0.1068
32809ION     NA48943   4.099   8.334   1.889  0.2362 -0.2156 -0.1798
32810ION     NA48944   2.874   0.702  14.633  0.2362  0.0733  0.0465
32811ION     NA48945  12.498   9.619   5.114 -0.0346 -0.0258  0.0227
32812ION     NA48946   3.148  17.379   4.028 -0.1527  0.0715  0.0383
32813ION     NA48947   0.216   0.834   3.466 -0.1155 -0.2011  0.1686
32814ION     NA48948  14.736   6.794   9.760 -0.0605  0.0994  0.1509
32815ION     NA48949  13.138   7.145   9.735  0.1998 -0.0774 -0.1891
32816ION     NA48950  18.194   3.892   9.197  0.0390 -0.0436 -0.1721
32817ION     NA48951   7.979   7.692  14.876  0.2616  0.0647  0.3916
32818ION     NA48952   6.330   3.775   9.214  0.0330 -0.1537 -0.4594
32819ION     NA48953  13.566   3.301  10.662 -0.2363  0.2400  0.4700
32820ION     NA48954   4.526   4.229   8.899 -0.2335  0.4594 -0.1256
32821ION     NA48955   8.361  15.745   5.855 -0.0076  0.2709 -0.2518
32822ION     NA48956   2.965   6.433   9.233  0.0519  0.1334  0.0658
32823ION     NA48957   5.712   9.025  11.769 -0.2709 -0.0013  0.3549
32824ION     NA48958  14.763   6.024   0.591 -0.1022  0.2004 -0.0949
32825ION     NA48959   0.477  10.860  14.729  0.1458  0.4962  0.4338
32826ION     NA48960   5.342  11.197   9.223  0.2876 -0.3293  0.1781
32827ION     NA48961  18.424   1.189   3.005 -0.1049  0.0891 -0.1047
32828ION     NA48962  16.444   8.551   1.655  0.3109  0.0372  0.2108
32829ION     NA48963   4.213   0.687   9.703  0.0308 -0.3901 -0.0452
32830ION     NA48964  17.192   9.134   9.478  0.1404 -0.4257  0.1386
32831ION     NA48965  13.047   9.264   0.698 -0.2053 -0.0421 -0.3426
32832ION     NA48966   0.930  10.992   9.418  0.2203 -0.1782  0.2064
32833ION     NA48967   6.941   5.798   1.392 -0.1114  0.0661  0.1360
32834ION     NA48968  10.812   3.673   2.677 -0.4535 -0.0327 -0.4004
32835ION     NA48969   7.536   2.822   0.201 -0.2443  0.0859  0.0766
32836ION     NA48970  13.253   8.379   1.632 -0.0487 -0.1132 -0.3385
32837ION     NA48971  14.834   0.037   4.627  0.2648 -0.1462  0.1087
32838ION     NA48972   6.409   0.635   9.561  0.3054 -0.2446  0.0096
32839ION     NA48973   4.381   6.578  11.579 -0.1139  0.0032 -0.0229
32840ION     NA48974  12.875  10.058   9.592  0.1900  0.1690  0.3149
32841ION     NA48975   2.801   9.512  10.647  0.1332  0.0448 -0.2924
32842ION     NA48976   3.740   8.328   9.076  0.4675  0.0174 -0.2984
32843ION     NA48977   6.882  14.057  13.588  0.1028  0.0708  0.1145
32844ION     NA48978  11.724   4.688   1.578  0.0105  0.1027 -0.1267
32845ION     NA48979   8.446  13.167   9.863 -0.4352 -0.2613 -0.2779
32846ION     NA48980   0.040   7.546   4.077  0.1609  0.3797  0.2604
32847ION     NA48981  15.526  10.053   2.762  0.1125 -0.2113  0.5949
32848ION     NA48982   3.393   7.612   9.267  0.0843 -0.0724 -0.2130
32849ION     NA48983   2.727   4.273  11.205  0.2427 -0.0270 -0.0535
32850ION     NA48984  12.364  18.440  10.322 -0.0360  0.1466 -0.0487
32851ION     NA48985   9.502   2.856   4.766 -0.0365  0.1018 -0.3400
32852ION     NA48986   0.243  15.935   5.335  0.0507  0.1254 -0.2841
32853ION     NA48987   0.859  11.947   9.240  0.1837 -0.1470 -0.0133
32854ION     NA48988   4.557   6.973   4.642 -0.0098  0.2183  0.1276
32855ION     NA48989  18.711  14.386   9.344 -0.2700 -0.0130  0.2956
32856ION     NA48990  10.104   7.624   5.228  0.1916 -0.0949 -0.0227
32857ION     NA48991   6.556   9.068   5.240  0.1718  0.4530 -0.4368
32858ION     NA48992  17.317   6.816   9.120 -0.1320  0.0189 -0.1454
32859ION     NA48993   9.711   3.338   9.899  0.1017 -0.1014 -0.0182
32860ION     NA48994   8.242   3.202   2.582  0.0111 -0.0550 -0.3157
32861ION     NA48995   8.337  16.698   5.716 -0.3335  0.0592 -0.0603
32862ION     NA48996  18.384  18.172  13.522  0.2419 -0.0831 -0.2909
32863ION     NA48997   8.002   6.694   9.294 -0.3654  0.0252  0.0819
32864ION     NA48998  17.954   7.184   2.588  0.1899  0.2205 -0.0797
32865ION     NA48999   5.771   7.901   9.160  0.3505  0.0349  0.0761
32866ION     NA49000  17.950   4.880   9.270  0.1600  0.1688 -0.1821
32867ION     NA49001   2.334   3.126   9.245 -0.1853 -0.1321 -0.2623
32868ION     NA49002   4.816   3.466   2.859 -0.2003 -0.2853  0.2174
32869ION     NA49003   7.592  14.046  10.666 -0.1010  0.0166  0.1800
32870ION     NA49004  12.992  16.537   3.159 -0.0735  0.0355 -0.3719
32871ION     NA49005   6.356   4.816   5.158  0.0817 -0.1479 -0.1659
32872ION     NA49006  17.616   0.935   1.673 -0.0218  0.1223 -0.3977
32873ION     NA49007  11.941   6.353   3.658 -0.0560 -0.0285  0.0222
32874ION     NA49008  12.621   6.631   1.334 -0.1376 -0.0886  0.3446
32875ION     NA49009   4.814   6.556   1.484 -0.2446 -0.1569 -0.2620
32876ION     NA49010  18.803  12.948   4.431  0.1020 -0.3588  0.0844
32877ION     NA49011   5.431   0.606   9.658  0.3752 -0.4199 -0.2244
32878ION     NA49012   7.802   4.438   4.446  0.1546  0.0487 -0.2846
32879ION     NA49013  18.555  15.136   4.060  0.1679 -0.1936  0.1812
32880ION     NA49014  14.164  14.121  13.449 -0.1682 -0.0584 -0.3559
32881ION     NA49015  10.304  10.328   0.380 -0.0264  0.2200  0.1446
32882ION     NA49016  13.155   1.450  13.200 -0.2279  0.2069 -0.0805
32883ION     NA49017   6.366  12.741   5.327  0.0179 -0.0981  0.5186
32884ION     NA49018   8.549   4.224  10.419 -0.2016 -0.0910 -0.2321
32885ION     NA49019  13.698  16.829  14.134  0.3549  0.2064  0.0214
32886ION     NA49020  11.512   0.193   0.875 -0.1374  0.2029 -0.1128
32887ION     NA49021  17.559   2.510   9.825 -0.2193 -0.2268 -0.0353
32888ION     NA49022   0.424   5.344   3.989 -0.1383  0.0578  0.0313
32889ION     NA49023   4.278  13.545   5.441  0.0013 -0.1124  0.1788
32890ION     NA49024   3.403  15.910   5.135  0.1176  0.2316 -0.2402
32891ION     NA49025   8.946   7.027   9.308 -0.1413  0.2246 -0.0354
32892ION     NA49026  13.796  15.449  14.420 -0.2601 -0.1465  0.0216
32893ION     NA49027   1.701  16.110  13.172  0.2149  0.0366 -0.1600
32894ION     NA49028  13.255  17.364   0.330 -0.0001  0.1108 -0.1783
32895ION     NA49029  12.957   5.559   5.618 -0.6676  0.0745 -0.0093
32896ION     NA49030   3.760  18.255   2.768 -0.1432  0.2885 -0.2410
32897ION     NA49031   2.333   1.603   4.911 -0.0152  0.1794  0.0705
32898ION     NA49032   9.146   1.081  10.000  0.2332 -0.1460  0.2611
32899ION     NA49033  10.398  17.688  10.213 -0.0801 -0.0722  0.0023
32900ION     NA49034   9.460   1.725  13.564 -0.0972  0.0169  0.0489
32901ION     NA49035   5.481   5.136   4.777  0.0125  0.3087 -0.0276
32902ION     NA49036   4.163  16.914  14.285 -0.1095  0.2532  0.1359
32903ION     NA49037   4.298   5.014   1.573 -0.2146 -0.1779  0.0715
32904ION     NA49038   9.100   6.686   5.228 -0.0142  0.1796  0.0199
32905ION     NA49039  14.325   1.799  12.165  0.3459 -0.1090 -0.1245
32906ION     NA49040   1.316   5.348  14.525 -0.0268 -0.2757 -0.0822
32907ION     NA49041   4.670   5.834   0.750 -0.2567 -0.0774 -0.2173
32908ION     NA49042  11.444  18.166  14.352  0.2338 -0.0120 -0.1452
32909ION     NA49043  14.590   0.223   0.660 -0.1785  0.1800  0.0540
32910ION     NA49044   5.190  18.577   0.777 -0.0420  0.1788  0.1532
32911ION     NA49045   9.680   1.074  14.923 -0.3734 -0.0359 -0.2042
32912ION     NA49046   5.705   8.716   0.586 -0.0232 -0.2363  0.2099
32913ION     NA49047  14.109  18.506  10.805 -0.2405  0.1656 -0.0618
32914ION     NA49048   4.869   3.304  13.657  0.1666 -0.3905  0.0926
32915ION     NA49049   6.357   7.912   1.986 -0.0656  0.0163  0.0557
32916ION     NA49050  11.876   1.587  10.458  0.0015  0.1178  0.2700
32917ION     NA49051  19.331  12.281  13.855  0.0658  0.3549 -0.1329
32918ION     NA49052   0.033  14.686   1.689 -0.2101  0.2777  0.1644
32919ION     NA49053   3.277   2.674  13.857 -0.0801  0.0409  0.2653
32920ION     NA49054   2.357  11.919   1.264 -0.1782  0.2717  0.1000
32921ION     NA49055  15.094   2.322   2.853 -0.0715  0.2787  0.0013
32922ION     NA49056   8.312  13.783  12.330  0.0416 -0.0993 -0.0076
32923ION     NA49057   9.087   8.876  12.310  0.1488  0.3587 -0.1120
32924ION     NA49058  12.410  13.337  10.109  0.1143 -0.2089 -0.2919
32925ION     NA49059  10.538  11.672  13.671  0.0495 -0.4326 -0.2457
32926ION     NA49060   2.431   8.005   0.495  0.0517  0.0392  0.1350
32927ION     NA49061  12.523  11.048   9.947  0.0570  0.0403  0.0672
32928ION     NA49062  13.713   6.628   2.890 -0.1548  0.0863 -0.0962
32929ION     NA49063  11.284  17.142  10.246  0.0562 -0.1695  0.0671
32930ION     NA49064   9.732   7.586   9.553  0.1402 -0.2808  0.1115
32931ION     NA49065   1.124   1.935   2.298 -0.3498  0.0114 -0.2431
32932ION     NA49066   1.773  16.556   9.493  0.1684  0.2677 -0.1343
32933ION     NA49067  15.559  18.662   5.462  0.0032 -0.2574  0.0218
32934ION     NA49068  11.865   4.053  10.232 -0.1375  0.1572  0.2177
32935ION     NA49069  11.970   1.239   1.574  0.0399  0.0723 -0.1902
32936ION     NA49070  13.753  10.966   1.584 -0.0526  0.0125 -0.1456
32937ION     NA49071   7.333   6.237   9.065 -0.1194 -0.0267 -0.3046
32938ION     NA49072   0.381   3.606   4.991  0.1197  0.1277 -0.3860
32939ION     NA49073  18.219  16.191   5.170 -0.0804  0.1074  0.1258
32940ION     NA49074   4.542   7.097   9.023  0.3169  0.2269 -0.0293
32941ION     NA49075   9.189   3.280  14.887 -0.1549  0.0799  0.2663
32942ION     NA49076   7.527  12.676   5.643  0.0710 -0.1952 -0.0109
32943ION     NA49077   6.726  12.874   9.691 -0.0918  0.1190  0.1714
32944ION     NA49078  12.205   8.109   0.869  0.0223  0.1228 -0.1170
32945ION     NA49079   3.709  16.886  11.421  0.1662 -0.1828  0.0867
32946ION     NA49080   8.639   9.340   3.009 -0.2276 -0.0911  0.0651
32947ION     NA49081  18.980  10.818   1.946  0.2844  0.1960  0.1314
32948ION     NA49082   7.324  16.695   4.194 -0.1184  0.0960 -0.0690
32949ION     NA49083   9.795  13.449   0.644  0.0929  0.1457  0.0293
32950ION     NA49084   4.386  19.038   3.107 -0.0173 -0.0164  0.0387
32951ION     NA49085  18.798  12.066   9.165  0.1330 -0.3692  0.0255
32952ION     NA49086  10.289   5.173   9.477 -0.1568 -0.3058  0.1282
32953ION     NA49087  12.257   5.170   5.450 -0.1702  0.0884  0.0296
32954ION     NA49088  12.060   1.623   3.994 -0.1373  0.1279  0.0889
32955ION     NA49089   1.351   2.964   9.157  0.1569 -0.2308 -0.1909
32956ION     NA49090  11.680  17.757  11.390  0.0087  0.0379 -0.1723
32957ION     NA49091   4.949   7.905  14.680  0.0254 -0.1492 -0.2093
32958ION     NA49092  18.993   0.369  14.763  0.2421  0.0545  0.1753
32959ION     NA49093   4.412  15.182  12.065 -0.2450 -0.3193 -0.0621
32960ION     NA49094  12.891  16.624   4.173 -0.0792 -0.0958 -0.2643
32961ION     NA49095   2.069  14.011   3.620  0.3677 -0.3750  0.0572
32962ION     NA49096  11.036  16.081   6.245  0.1331  0.0206  0.3543
32963ION     NA49097   7.835   4.879   1.799 -0.1362 -0.1431  0.1369
32964ION     NA49098   2.586   0.367   9.741 -0.1206 -0.3893 -0.0577
32965ION     NA49099   6.827  11.538   9.370 -0.2215  0.1204  0.0086
32966ION     NA49100  10.178  18.075   0.903  0.4486 -0.0646  0.3221
32967ION     NA49101   1.281   5.504   4.974 -0.0161 -0.2173 -0.5289
32968ION     NA49102  18.258   5.830  13.750  0.1750  0.0161  0.1412
32969ION     NA49103  12.192  17.369   4.106 -0.3715  0.0124  0.1758
32970ION     NA49104   4.616   1.749   0.211 -0.0882  0.0554 -0.1384
32971ION     NA49105  18.004  18.918  10.023 -0.0244 -0.1194 -0.2697
32972ION     NA49106  18.566  17.818  14.400  0.3579  0.2135 -0.1904
32973ION     NA49107   5.602   3.946   2.382  0.0600 -0.2059 -0.2100
32974ION     NA49108   0.504   9.183   4.798  0.3696  0.0187  0.0327
32975ION     NA49109   6.445   1.642   3.035 -0.2786  0.1522  0.1258
32976ION     NA49110   9.049  14.603   0.944 -0.2540  0.2709  0.2058
32977ION     NA49111   5.549  17.760  14.226 -0.0880  0.3451  0.2488
32978ION     NA49112   4.342  13.045   5.402  0.2867 -0.4642 -0.1570
32979ION     NA49113   9.865  14.580  10.582 -0.1634 -0.1211 -0.0798
32980ION     NA49114   7.458   4.876   3.179  0.0303  0.1127 -0.0027
32981ION     NA49115  12.487  15.627   2.723 -0.0096  0.2301 -0.0210
32982ION     NA49116   7.634  14.798   2.282 -0.2698 -0.2666  0.2407
32983ION     NA49117  14.605  11.444   9.980 -0.0793  0.1302 -0.1943
32984ION     NA49118   8.974  11.397  13.379 -0.2984  0.1039  0.1293
32985ION     NA49119  14.390   9.240   9.894 -0.0168  0.1451 -0.0503
32986ION     NA49120   6.288   1.493   9.312 -0.2652 -0.3725 -0.0055
32987ION     NA49121   2.223  13.442   9.440 -0.1368  0.0655 -0.0803
32988ION     NA49122   8.236   0.937   1.461 -0.1152 -0.2871  0.1072
32989ION     NA49123   7.747  11.316   9.673  0.1016 -0.0802  0.3187
32990ION     NA49124   3.490   1.988   5.079  0.2809  0.2093 -0.1835
32991ION     NA49125  15.556  10.130  14.103  0.1755 -0.3144 -0.1494
32992ION     NA49126   5.779  18.564   9.893  0.1360 -0.0171  0.0037
32993ION     NA49127  11.270  13.982   1.996 -0.0237  0.3028 -0.3178
32994ION     NA49128   1.745  10.244  11.880  0.0407 -0.0276 -0.0898
32995ION     NA49129   3.401  11.018   2.903  0.1008  0.1948  0.4499
32996ION     NA49130  11.989  12.560   9.936  0.0810  0.3558 -0.0645
32997ION     NA49131   4.503  15.409   2.040  0.0094  0.0124 -0.1803
32998ION     NA49132   4.371  10.230   9.324 -0.0071 -0.0916 -0.1567
32999ION     NA49133  10.614  17.864   5.329 -0.0084  0.0529 -0.0220
33000ION     NA49134  16.150   3.188   5.765  0.1883 -0.1029 -0.1545
33001ION     NA49135  14.817  11.966   3.550  0.0170 -0.1636  0.2241
33002ION     NA49136  11.188  11.916  10.045 -0.1781  0.3527  0.0513
33003ION     NA49137  14.903  10.545   9.610  0.2079  0.0069 -0.4307
33004ION     NA49138   0.406  16.869   9.452 -0.0242  0.3897  0.1585
33005ION     NA49139   6.504   4.514   9.167  0.1922  0.0938  0.0270
33006ION     NA49140   3.646   4.632   8.781 -0.2035  0.2271  0.0573
33007ION     NA49141  13.370  12.445  11.700  0.4959 -0.1625  0.1474
33008ION     NA49142  13.069   2.381   2.127  0.1968 -0.2396 -0.5046
33009ION     NA49143  18.682   0.165   0.663 -0.3594 -0.1683 -0.1285
33010ION     NA49144   6.404  11.936   4.035 -0.0110 -0.3318  0.1844
33011ION     NA49145   8.693   4.246   9.446 -0.1451  0.4483  0.0186
33012ION     NA49146   4.681  17.325   4.386  0.0635  0.2639  0.0111
33013ION     NA49147  12.620  16.154   5.943 -0.2866 -0.3035 -0.0513
33014ION     NA49148  17.071   9.195   0.089  0.0386  0.0432 -0.1299
33015ION     NA49149   7.596  18.305   5.992  0.3543  0.2987 -0.0434
33016ION     NA49150  15.096   6.830   3.361 -0.0046 -0.1808  0.1132
33017ION     NA49151  15.774   3.165   1.979 -0.2911  0.2547  0.1039
33018ION     NA49152   9.643   5.991   9.461  0.0626 -0.1125  0.0752
33019ION     NA49153   8.982  11.473  10.525  0.1268 -0.1883 -0.4595
33020ION     NA49154   1.690  12.044   3.637  0.2951  0.0437 -0.2812
33021ION     NA49155   2.492  11.607   9.323 -0.0797 -0.2308  0.2558
33022ION     NA49156   7.522   3.731   3.190 -0.0743  0.0827  0.0913
33023ION     NA49157  13.939   4.929   9.905  0.2580  0.2371 -0.0075
33024ION     NA49158  13.770  13.271   5.685 -0.2112  0.0747 -0.0742
33025ION     NA49159   3.486   0.998   0.846  0.3254 -0.0988  0.0673
33026ION     NA49160   2.974   2.371  11.427 -0.2491  0.0847  0.1239
33027ION     NA49161   9.350  11.176  14.342 -0.1500 -0.2082  0.2112
33028ION     NA49162   8.580   6.978  14.323 -0.1704 -0.2977  0.0719
33029ION     NA49163  15.603   2.826  13.383  0.1221  0.0509  0.5205
33030ION     NA49164  17.822  18.064  11.332 -0.1579 -0.3757 -0.1803
33031ION     NA49165  11.026  14.576  10.468  0.4223  0.3698 -0.1038
33032ION     NA49166   3.914   6.378   8.983  0.4988 -0.1313 -0.0206
33033ION     NA49167  11.209  14.655  10.942  0.1662 -0.0992 -0.3217
33034ION     NA49168   9.167  16.869  12.787  0.1890 -0.2046 -0.1877
33035ION     NA49169  10.669   4.067   9.639 -0.3004  0.2445 -0.0268
33036ION     NA49170  12.589  16.134  10.281 -0.2981  0.2660  0.3006
33037ION     NA49171   9.662   0.056  13.045  0.0027 -0.3476 -0.1670
33038ION     NA49172   1.009   8.413   3.142 -0.6037  0.0751 -0.0764
33039ION     NA49173  15.705  10.107   9.656 -0.1914  0.1639  0.1058
33040ION     NA49174   4.056  16.302   2.442  0.1527 -0.0658 -0.1330
33041ION     NA49175   7.642   1.400   1.095 -0.3583 -0.4290 -0.1808
33042ION     NA49176   9.184   2.459  11.909  0.3973  0.0147  0.2514
33043ION     NA49177   4.937  14.002   3.999  0.0018 -0.1389  0.0158
33044ION     NA49178   2.723  15.071   9.512  0.4044  0.4888  0.0470
33045ION     NA49179   0.389  15.050   1.165  0.2708  0.0348 -0.0192
33046ION     NA49180   9.680   1.613   5.424 -0.1812  0.0425  0.1601
33047ION     NA49181  18.684  10.354  12.194 -0.0967 -0.0795  0.0664
33048ION     NA49182   2.698   5.233  11.426  0.2312  0.2700 -0.4729
33049ION     NA49183  14.087  18.306   5.994  0.2678 -0.0133  0.0783
33050ION     NA49184   3.944  11.480   1.073  0.4143 -0.1808  0.3073
33051ION     NA49185  12.502   7.145   3.224  0.0351  0.0328 -0.1616
33052ION     NA49186   7.129  13.581  10.172  0.1896  0.1972 -0.3323
33053ION     NA49187   9.598  17.039  10.219  0.0797 -0.0231  0.1340
33054ION     NA49188   3.782   8.274  12.953 -0.1624  0.1551 -0.0083
33055ION     NA49189   3.465  18.173   9.948 -0.2955  0.0957  0.0122
33056ION     NA49190  18.837  17.408   5.294  0.2531  0.2365 -0.3109
33057ION     NA49191   2.336  12.467   4.771 -0.1717  0.0416 -0.1335
33058ION     NA49192   6.222  14.113   9.809 -0.0301  0.0376  0.1664
33059ION     NA49193   6.544   7.554   9.339 -0.2487 -0.2137  0.2885
33060ION     NA49194   8.145  16.920  11.107  0.0371 -0.1262  0.0163
33061ION     NA49195  14.886   3.407  14.400  0.0301 -0.3160 -0.2125
33062ION     NA49196  15.735  19.056  10.309  0.1900  0.1691  0.2586
33063ION     NA49197   2.765  15.262  12.732  0.0488  0.2302 -0.3553
33064ION     NA49198   6.516   8.670  12.255  0.1043  0.2460  0.4467
33065ION     NA49199  13.399   8.369   4.542  0.0753  0.1290 -0.1317
33066ION     NA49200  17.991  14.903  13.996  0.1128 -0.0211 -0.0182
33067ION     NA49201   5.749  16.062  10.078 -0.0203 -0.0143 -0.0714
33068ION     NA49202  10.341  13.302   4.654 -0.0022  0.0238  0.0713
33069ION     NA49203  12.064   9.343  13.568  0.2314 -0.0680 -0.3984
33070ION     NA49204   4.780   3.271   4.685 -0.0508 -0.0887  0.0783
33071ION     NA49205   2.003   6.573  11.353 -0.3963 -0.2254  0.0140
33072ION     NA49206   5.410  11.224   4.817  0.0439 -0.3147  0.3362
33073ION     NA49207   9.615  18.874   5.402  0.0454 -0.0640 -0.2633
33074ION     NA49208  19.155  18.187   0.620 -0.0500  0.0239 -0.1027
33075ION     NA49209  10.106   0.943   9.971  0.1168 -0.1131 -0.2338
33076ION     NA49210   3.118  13.694   9.572  0.0430 -0.3038 -0.0696
33077ION     NA49211  10.338   3.275   5.163 -0.1924 -0.0041  0.0022
33078ION     NA49212   9.915  11.123   3.032 -0.1577 -0.0846  0.0790
33079ION     NA49213   0.138   9.356   1.220 -0.0895  0.0892  0.0949
33080ION     NA49214  15.547  12.131   5.210 -0.1321  0.1737 -0.3163
33081ION     NA49215   2.758   3.867   8.815  0.1802  0.1773  0.0866
33082ION     NA49216   6.715   9.574  10.160 -0.1996  0.1857 -0.4693
33083ION     NA49217  11.134   2.616  14.933 -0.1325  0.3986  0.3542
33084ION     NA49218   5.651  12.010   5.125 -0.0530 -0.1787 -0.0103
33085ION     NA49219   6.192  15.446   1.835  0.2519  0.2789  0.2909
33086ION     NA49220   7.633   9.971   9.232 -0.1942  0.2583  0.0128
33087ION     NA49221  16.780   3.740   2.546 -0.2285  0.1580  0.2171
33088ION     NA49222  18.309  17.170   0.934  0.0747 -0.3069  0.6921
33089ION     NA49223   4.488   7.018   9.912  0.1285 -0.0286 -0.0163
33090ION     NA49224   8.479   0.502  10.499  0.0155  0.3376  0.0814
33091ION     NA49225   6.288  18.634   5.846  0.1609  0.0747  0.2534
33092ION     NA49226  16.921  14.515   4.907 -0.0123  0.1529 -0.0976
33093ION     NA49227  13.328   5.198  14.220 -0.4215 -0.1415  0.1073
33094ION     NA49228  14.364  18.643   5.696  0.3916  0.1812 -0.0302
33095ION     NA49229   8.337   3.843  12.846 -0.0308 -0.0699  0.1702
33096ION     NA49230  19.124   4.866   9.277  0.0050  0.2886  0.2509
33097ION     NA49231   8.006  15.676  14.091 -0.3271  0.1188 -0.1536
33098ION     NA49232  10.767  15.179   6.203  0.3503  0.0047 -0.0190
33099ION     NA49233  17.608  16.343   9.762  0.1075 -0.1046  0.2626
33100ION     NA49234  13.021   1.271   3.272  0.1904  0.2610  0.2387
33101ION     NA49235   5.512  15.049   9.693 -0.4696  0.1747 -0.1864
33102ION     NA49236   3.045   1.949   9.349 -0.0759  0.0954  0.0278
33103ION     NA49237   7.934   5.883  14.171 -0.1821  0.1329 -0.1303
33104ION     NA49238  10.717   1.136   5.838  0.0764 -0.1553 -0.3534
33105ION     NA49239  17.526   1.504   3.620 -0.0277 -0.0778 -0.1475
33106ION     NA49240   3.526   0.288   9.540 -0.3744 -0.1536 -0.2333
33107ION     NA49241  16.750  12.077  13.015  0.1186  0.0960  0.1177
33108ION     NA49242  10.607   5.207  14.780  0.1385 -0.1211 -0.1985
33109ION     NA49243  16.926   0.749   0.791 -0.1140 -0.1818 -0.1962
33110ION     NA49244  15.310   7.598   9.529 -0.0810 -0.0160 -0.2124
33111ION     NA49245   5.492   7.601  10.686 -0.3104 -0.2420 -0.2129
33112ION     NA49246  12.660   8.490   2.172 -0.0969  0.3704  0.0046
33113ION     NA49247   1.337   3.658  12.025  0.1701 -0.1482 -0.4207
33114ION     NA49248   0.467   8.673   9.057 -0.1049  0.1032  0.3387
33115ION     NA49249  10.311   6.471   9.458 -0.2437  0.2189  0.1832
33116ION     NA49250  18.596  15.656  12.759  0.0969  0.2156  0.1902
33117ION     NA49251  14.731   2.066   1.241  0.0209  0.0345 -0.0025
33118ION     NA49252   3.284  12.320   9.587 -0.0456 -0.1371  0.2000
33119ION     NA49253  10.080   1.763  11.766 -0.2710 -0.2484 -0.0366
33120ION     NA49254   7.894  18.635  13.051  0.0785  0.1927  0.1082
33121ION     NA49255   8.595   4.323   0.822 -0.3065 -0.1882  0.0947
33122ION     NA49256   5.437   6.757   0.048 -0.1199 -0.1678 -0.0689
33123ION     NA49257   6.407  16.856  10.245  0.1083 -0.3908 -0.0738
33124ION     NA49258  15.051   3.301  10.019  0.1964  0.0192 -0.2377
33125ION     NA49259  17.041   4.021   4.078 -0.0725  0.3889  0.3611
33126ION     NA49260  12.638   1.472  14.131  0.0169  0.0185 -0.0059
33127ION     NA49261  14.597   7.878   5.188 -0.0768  0.2083 -0.0628
33128ION     NA49262  16.889   5.027   3.726  0.1675  0.1823  0.0060
33129ION     NA49263  12.108  15.231   5.502 -0.0439 -0.2701  0.1745
33130ION     NA49264   0.243  16.901   0.385 -0.0107 -0.1191  0.1620
33131ION     NA49265   5.306   1.418  10.893 -0.2303  0.1187  0.2612
33132ION     NA49266   1.964   6.494  12.729  0.0425 -0.2416  0.0840
33133ION     NA49267   8.522   7.898   9.273  0.0095 -0.0167 -0.0647
33134ION     NA49268   3.828   1.140  14.367 -0.0147 -0.3943  0.0031
33135ION     NA49269   4.673   9.289   0.226 -0.1360 -0.1111  0.3965
33136ION     NA49270  18.912   5.065   4.795  0.0183 -0.0483 -0.1861
33137ION     NA49271   6.904   8.176   4.935  0.0216 -0.0053 -0.2686
33138ION     NA49272   2.998   6.997   4.968 -0.0330  0.1931  0.2246
33139ION     NA49273  14.656  16.829   4.385 -0.1723 -0.1387 -0.2184
33140ION     NA49274   7.475   5.007  12.923 -0.2357 -0.1195  0.1129
33141ION     NA49275   5.978   2.926   9.240 -0.0044 -0.3977 -0.0461
33142ION     NA49276   3.138   8.607   9.212  0.1147 -0.0772  0.2230
33143ION     NA49277   0.862  13.714   5.188 -0.1580  0.0616 -0.1112
33144ION     NA49278   8.961   5.264   9.472  0.2209  0.0786 -0.0582
33145ION     NA49279  13.833  11.426   5.371 -0.0613 -0.0777  0.1820
33146ION     NA49280   6.108   9.723   9.348 -0.2580 -0.3461  0.1952
33147ION     NA49281  18.521  10.985   4.769  0.2080 -0.1086 -0.0553
33148ION     NA49282   4.573  15.035   9.695 -0.3437 -0.1142 -0.0463
33149ION     NA49283   4.914   9.775   3.667 -0.1553 -0.2364 -0.1315
33150ION     NA49284  18.346  11.189   3.449  0.2382 -0.2373  0.1529
33151ION     NA49285   5.934   5.699   1.340 -0.4112  0.0078  0.1080
33152ION     NA49286   3.767  13.054  10.149 -0.2622 -0.0138  0.2510
33153ION     NA49287   5.369   7.165  14.135 -0.1237  0.3985 -0.3410
33154ION     NA49288   4.414  13.486   9.842 -0.1967  0.0051 -0.1406
33155ION     NA49289   2.621   8.218   1.397  0.0776 -0.1458 -0.0404
33156ION     NA49290   2.516  17.708  11.744  0.0646 -0.2662 -0.3832
33157ION     NA49291  18.839   6.881   9.021 -0.1639 -0.1540  0.2055
33158ION     NA49292  14.854   8.142   3.390 -0.1699 -0.0697  0.2250
33159ION     NA49293   8.226   1.321   5.379 -0.1088 -0.3364  0.1072
33160ION     NA49294  19.328   1.801  14.466  0.1709 -0.1143 -0.2589
33161ION     NA49295   2.149  18.785   0.328 -0.1868 -0.1147  0.0405
33162ION     NA49296  17.032  12.824   2.128 -0.2831 -0.1007  0.1097
33163ION     NA49297   8.636   2.643   1.221 -0.0390 -0.2879 -0.0563
33164ION     NA49298   2.509   5.710   3.403 -0.3539 -0.0620 -0.2941
33165ION     NA49299   5.714   3.846   9.219 -0.0123 -0.1339  0.4110
33166ION     NA49300   8.375  10.606   9.388 -0.0741  0.2891  0.1298
33167ION     NA49301   3.026  12.083   3.623  0.0132 -0.0372 -0.1526
33168ION     NA49302  12.282   9.327   1.281 -0.1673  0.0104 -0.2231
33169ION     NA49303  14.277  10.050   9.945  0.0320 -0.1972 -0.1157
33170ION     NA49304  18.315  10.661   1.424 -0.0028 -0.0971  0.0450
33171ION     NA49305  11.477   7.753   9.710 -0.1283 -0.2490 -0.0785
33172ION     NA49306   0.614   6.899   5.292  0.0569  0.0130  0.1668
33173ION     NA49307  12.511  13.951   2.034  0.1588  0.0091 -0.1519
33174ION     NA49308  11.652  11.888  12.866  0.0385 -0.6389 -0.0080
33175ION     NA49309   6.393  17.651  14.689  0.1936 -0.1078  0.1213
33176ION     NA49310   8.209  18.909   0.837 -0.1795 -0.1376  0.0116
33177ION     NA49311   9.639  14.991   5.532  0.1505  0.1729  0.1112
33178ION     NA49312   0.462  15.093   9.195  0.0454 -0.2554  0.1220
33179ION     NA49313  13.428  10.983   3.185  0.1122 -0.2116  0.3741
33180ION     NA49314   8.829   3.294   5.166  0.1067 -0.1171 -0.2597
33181ION     NA49315   4.561  12.227  13.461  0.1051  0.0259 -0.2897
33182ION     NA49316  18.040  16.922  12.470 -0.0605 -0.0299 -0.2588
33183ION     NA49317   8.052   8.750   9.542  0.1523  0.1257  0.2462
33184ION     NA49318   2.014  16.752   0.329  0.1268 -0.0462 -0.0528
33185ION     NA49319   2.625   0.819   2.549  0.3416 -0.0582 -0.0370
33186ION     NA49320   4.187  18.571   9.795  0.0541  0.3054 -0.0030
33187ION     NA49321   6.267  11.360   5.239  0.2112 -0.0414  0.1248
33188ION     NA49322   1.937   1.820  11.622  0.3164 -0.0890  0.1654
33189ION     NA49323   6.394   2.880  13.895  0.2547  0.1462 -0.0614
33190ION     NA49324   9.133  12.685   9.935 -0.4294 -0.0327  0.1084
33191ION     NA49325  18.003   0.704   5.478  0.3429  0.0656  0.1641
33192ION     NA49326   4.790   5.007   9.204  0.0339  0.2713  0.0386
33193ION     NA49327  13.905   7.204   2.302 -0.2392  0.1682  0.0653
33194ION     NA49328   5.900  12.654   9.591 -0.0256  0.2078  0.1741
33195ION     NA49329  15.121   6.496  11.519 -0.2251 -0.2788 -0.0703
33196ION     NA49330   2.443  10.891  14.008 -0.1375 -0.1567 -0.2580
33197ION     NA49331   5.239   6.221  10.459 -0.1197 -0.0838  0.3755
33198ION     NA49332   7.890   2.890   9.503  0.4220 -0.0259  0.2205
33199ION     NA49333   6.042   6.911  12.239 -0.0024  0.2808 -0.0313
33200ION     NA49334  13.437  10.646   5.751 -0.0037 -0.0546 -0.0790
33201ION     NA49335   6.684   0.689   5.483 -0.3416  0.1094 -0.0115
33202ION     NA49336  15.472  13.147  13.271 -0.0742  0.0626  0.0870
33203ION     NA49337   0.625  18.986  12.031 -0.3822  0.1143 -0.1329
33204ION     NA49338  11.000   3.181   5.032 -0.1938  0.1051  0.0885
33205ION     NA49339  17.163   6.383   0.888 -0.2167 -0.1834 -0.0005
33206ION     NA49340  15.417   4.570  12.847 -0.0299 -0.1901 -0.1100
33207ION     NA49341   5.517   4.465  10.205 -0.3421  0.3610  0.2077
33208ION     NA49342   9.233  15.931  10.292  0.1438 -0.0977  0.2641
33209ION     NA49343   0.893   3.218   4.417 -0.1435  0.1692 -0.0461
33210ION     NA49344  12.849  10.905   0.801 -0.1400 -0.0213 -0.0744
33211ION     NA49345  11.453  12.155   2.977  0.2821 -0.5137  0.2481
33212ION     NA49346  17.820  13.707   9.289 -0.1332 -0.0554 -0.2280
33213ION     NA49347   1.203   6.945  10.412  0.0309 -0.0011  0.0916
33214ION     NA49348   4.270  16.878   9.964 -0.3218  0.1695  0.1975
33215ION     NA49349   3.172   7.007  13.062 -0.1854  0.0892 -0.0467
33216ION     NA49350   0.093   5.787  14.715  0.2567 -0.2256  0.2646
33217ION     NA49351   1.703  19.183   9.953  0.0323 -0.0849  0.2404
33218ION     NA49352  12.793   7.651  12.377  0.0193  0.0665  0.1750
33219ION     NA49353   0.892   4.268   8.987 -0.0176 -0.0396  0.1981
33220ION     NA49354   4.912  11.955   9.725 -0.0702  0.0332  0.1219
33221ION     NA49355  16.000   5.348   2.463  0.0122 -0.1700 -0.0067
33222ION     NA49356  13.077   6.625   0.526  0.0602  0.1823 -0.1205
33223ION     NA49357  15.485  18.508  10.456  0.4355  0.0505 -0.1580
33224ION     NA49358   7.362   4.726   3.723 -0.2505  0.1649 -0.0671
33225ION     NA49359  17.705  10.164   3.009 -0.2201  0.1611  0.2068
33226ION     NA49360   6.283  15.410  11.029 -0.1233  0.4043  0.0983
33227ION     NA49361  16.450   5.355  13.123 -0.3132  0.0091  0.1038
33228ION     NA49362   0.126  13.602   3.800  0.3350  0.1676 -0.0542
33229ION     NA49363   8.831   3.089   9.839  0.1737  0.2007  0.2625
33230ION     NA49364  12.102  11.925   9.974  0.0964 -0.1019  0.0262
33231ION     NA49365  10.822  12.427   5.534  0.0170  0.0025  0.0628
33232ION     NA49366   0.561   6.312   9.207  0.1249 -0.1511 -0.2460
33233ION     NA49367   9.372  10.438   9.602  0.2360  0.0041  0.1767
33234ION     NA49368   8.054  15.029   9.974 -0.4973 -0.1609  0.0710
33235ION     NA49369  18.458  14.342   1.103  0.5437 -0.2925  0.0724
33236ION     NA49370   5.035  19.010   9.786 -0.0765  0.0404 -0.1482
33237ION     NA49371   9.638  11.619   4.337 -0.0770 -0.2579  0.1600
33238ION     NA49372   8.945   9.462   5.334  0.1545  0.1159  0.1463
33239ION     NA49373  13.865   0.954   2.346 -0.0430 -0.3041 -0.0322
33240ION     NA49374   2.558  16.271   9.535  0.0844  0.0507  0.0481
33241ION     NA49375  13.270   3.979   5.644 -0.1006 -0.0792  0.1399
33242ION     NA49376  13.329  11.238   9.712  0.2364  0.1527  0.0230
33243ION     NA49377  14.082   9.593  13.219 -0.2457  0.0899 -0.2643
  19.35244  19.35244  14.97574
