INSANE! Membrane UpperLeaflet>loPI:POPI:DPPI:PYPI:ERGO=180.0:5.0:3.0:2.0:10.0 LowerLeaflet>PSPI:POPI:POPS:YOPS:POPE:YOPE:POPC:YOPC:ERGO=6.0:14.0:21.0:9.0:9.0:21.0:12.0:48.0:60.0
49069
    1loPI    C1    1   4.848  11.378  11.112  0.0233 -0.2242 -0.1088
    1loPI    C2    2   4.568  11.216  11.346 -0.0635  0.1487  0.0521
    1loPI    C3    3   4.831  11.476  11.499  0.1501  0.0695 -0.1743
    1loPI   PO4    4   4.796  11.186  10.907 -0.0586  0.1849 -0.1742
    1loPI   GL1    5   4.794  11.115  10.543 -0.1335 -0.3184  0.1018
    1loPI   GL2    6   4.557  11.326  10.499  0.0312 -0.1200 -0.0721
    1loPI   C1A    7   5.082  11.154  10.197  0.0163 -0.0989  0.1285
    1loPI   C2A    8   5.082  11.048   9.815  0.1184  0.0233  0.2107
    1loPI   C3A    9   5.039  11.238   9.452  0.3865 -0.1002 -0.0472
    1loPI   C4A   10   4.959  11.158   9.055  0.5007  0.1720 -0.3814
    1loPI   C5A   11   5.082  11.160   8.629  0.1153  0.1835  0.1210
    1loPI   C6A   12   5.347  10.893   8.399  0.0318 -0.1651 -0.0283
    1loPI   C1B   13   4.522  11.311  10.098 -0.2134 -0.3045  0.0688
    1loPI   C2B   14   4.592  11.321   9.696 -0.0836 -0.1565  0.0261
    1loPI   C3B   15   4.501  11.367   9.303  0.1024  0.0810  0.1614
    1loPI   C4B   16   4.523  11.367   8.881  0.0123  0.1943  0.0971
    2loPI    C1   17   1.140   7.783  11.887  0.1813 -0.0620 -0.0383
    2loPI    C2   18   1.158   7.946  12.252  0.1116  0.0979 -0.1054
    2loPI    C3   19   1.118   7.550  12.211  0.1195  0.0796  0.0600
    2loPI   PO4   20   1.294   7.900  11.712 -0.0295 -0.3192 -0.0855
    2loPI   GL1   21   1.464   7.883  11.289  0.0985 -0.1400  0.2694
    2loPI   GL2   22   1.824   8.034  11.208  0.3488 -0.1286 -0.1403
    2loPI   C1A   23   1.494   7.881  10.825  0.0371 -0.0293  0.4508
    2loPI   C2A   24   1.591   7.863  10.448  0.0492  0.0231  0.2021
    2loPI   C3A   25   1.653   7.933  10.090 -0.4457 -0.0476  0.2225
    2loPI   C4A   26   1.647   7.921   9.658 -0.1043  0.1555  0.1329
    2loPI   C5A   27   1.555   8.071   9.241  0.0726 -0.0375 -0.1118
    2loPI   C6A   28   1.760   8.469   9.084  0.1511 -0.2922 -0.1100
    2loPI   C1B   29   1.880   8.162  10.764  0.1220  0.1290 -0.2784
    2loPI   C2B   30   2.038   8.243  10.308  0.0185 -0.1280 -0.2007
    2loPI   C3B   31   2.060   8.302   9.880 -0.3118 -0.1194  0.1858
    2loPI   C4B   32   2.111   8.219   9.447  0.0620 -0.4094 -0.0466
    3loPI    C1   33   9.034  11.606  10.980 -0.0587  0.0807 -0.1298
    3loPI    C2   34   9.364  11.633  11.204 -0.0308 -0.1856 -0.1358
    3loPI    C3   35   9.008  11.724  11.361  0.0331  0.0060 -0.0999
    3loPI   PO4   36   9.162  11.365  10.809  0.0847 -0.5820  0.1191
    3loPI   GL1   37   8.831  11.276  10.473  0.1707  0.2330  0.0117
    3loPI   GL2   38   9.158  11.300  10.322  0.3241  0.1794  0.2661
    3loPI   C1A   39   8.600  11.303  10.099  0.0957 -0.0537  0.0213
    3loPI   C2A   40   8.556  11.301   9.607 -0.1375 -0.2116  0.0240
    3loPI   C3A   41   8.588  11.460   9.238 -0.0724  0.1702 -0.0414
    3loPI   C4A   42   8.599  11.603   8.749  0.2918 -0.0690  0.0453
    3loPI   C5A   43   8.322  11.487   8.405  0.2342 -0.0388 -0.1802
    3loPI   C6A   44   7.919  11.540   8.149 -0.0470  0.0107  0.0968
    3loPI   C1B   45   9.027  11.275   9.837  0.0208  0.2762 -0.1619
    3loPI   C2B   46   9.052  11.351   9.441 -0.1654 -0.3594  0.1135
    3loPI   C3B   47   9.157  11.311   9.042 -0.1011 -0.1990 -0.1634
    3loPI   C4B   48   9.148  11.489   8.619 -0.1012 -0.0559 -0.2939
    4loPI    C1   49   9.045   9.865  10.608  0.0674 -0.0387  0.1351
    4loPI    C2   50   9.291   9.837  10.922  0.1620 -0.0478  0.0606
    4loPI    C3   51   8.953  10.050  10.951  0.2212  0.0366  0.1365
    4loPI   PO4   52   9.149   9.941  10.460  0.0845  0.0480 -0.2749
    4loPI   GL1   53   9.176  10.099  10.082 -0.1873  0.2354  0.0765
    4loPI   GL2   54   9.201   9.866   9.784  0.1667  0.2283 -0.2024
    4loPI   C1A   55   8.908  10.352   9.776 -0.0328  0.0111 -0.0002
    4loPI   C2A   56   8.843  10.454   9.373 -0.0007  0.1660 -0.0475
    4loPI   C3A   57   8.775  10.291   8.928  0.0223 -0.0451 -0.4141
    4loPI   C4A   58   9.142  10.393   8.622  0.0281  0.2910  0.0130
    4loPI   C5A   59   9.340  10.321   8.268 -0.4881 -0.1852 -0.0315
    4loPI   C6A   60   9.066  10.226   7.954  0.2198 -0.0962  0.1145
    4loPI   C1B   61   9.264   9.828   9.380 -0.2824 -0.1703  0.1870
    4loPI   C2B   62   9.316   9.790   8.934 -0.0601 -0.0466  0.1586
    4loPI   C3B   63   9.324   9.892   8.522  0.0034  0.0556  0.4084
    4loPI   C4B   64   9.458   9.739   8.082 -0.3367  0.0309  0.0860
    5loPI    C1   65  16.092  16.203  11.560 -0.0690 -0.0235 -0.1275
    5loPI    C2   66  15.819  15.971  11.738 -0.1215  0.1280 -0.0073
    5loPI    C3   67  16.209  15.917  11.813 -0.1247 -0.0129 -0.0898
    5loPI   PO4   68  16.086  16.076  11.300  0.2062  0.0036  0.2043
    5loPI   GL1   69  15.979  16.157  10.849 -0.1473 -0.2944  0.0298
    5loPI   GL2   70  16.299  16.239  10.755  0.4138 -0.1025 -0.0542
    5loPI   C1A   71  15.969  16.172  10.292 -0.3403 -0.0456 -0.2165
    5loPI   C2A   72  16.026  16.175   9.866 -0.1713 -0.1730 -0.0451
    5loPI   C3A   73  16.040  16.207   9.479 -0.3706 -0.0266  0.0060
    5loPI   C4A   74  16.116  16.255   9.080  0.0653  0.2046  0.2617
    5loPI   C5A   75  16.126  16.068   8.602 -0.0793  0.1942  0.1092
    5loPI   C6A   76  15.839  15.808   8.396 -0.3328 -0.1388 -0.3391
    5loPI   C1B   77  16.449  16.062  10.354  0.2642 -0.3106 -0.0110
    5loPI   C2B   78  16.613  16.063   9.890  0.2518  0.1800 -0.3075
    5loPI   C3B   79  16.541  16.032   9.467  0.1494  0.1933 -0.0955
    5loPI   C4B   80  16.567  16.094   9.061  0.1003 -0.1520  0.3482
    6loPI    C1   81  13.965  11.304  11.214 -0.0452 -0.0606 -0.1151
    6loPI    C2   82  13.658  11.318  11.470 -0.1838 -0.1226 -0.2762
    6loPI    C3   83  13.856  10.975  11.413 -0.0404 -0.0667 -0.1224
    6loPI   PO4   84  13.957  11.390  11.039  0.3324  0.1407  0.2619
    6loPI   GL1   85  13.931  11.208  10.678 -0.1897  0.0403 -0.0333
    6loPI   GL2   86  14.199  10.957  10.515 -0.0855  0.1459 -0.2867
    6loPI   C1A   87  13.821  11.303  10.272  0.0965  0.1921  0.1382
    6loPI   C2A   88  13.865  11.311   9.869 -0.0996 -0.0398 -0.3126
    6loPI   C3A   89  13.866  11.305   9.477  0.1772  0.0735  0.1605
    6loPI   C4A   90  13.837  11.209   9.019 -0.1088  0.1538 -0.1630
    6loPI   C5A   91  13.708  11.199   8.649  0.0082  0.0081  0.0119
    6loPI   C6A   92  13.394  11.048   8.416  0.1495 -0.0040  0.1158
    6loPI   C1B   93  14.346  11.046  10.095 -0.1536 -0.0626  0.0999
    6loPI   C2B   94  14.323  11.097   9.669  0.1738  0.2752  0.0569
    6loPI   C3B   95  14.303  11.104   9.234  0.1704  0.1987  0.1738
    6loPI   C4B   96  14.376  10.971   8.866  0.1647  0.5023 -0.3709
    7loPI    C1   97   9.654  11.194  10.937  0.0084  0.0743 -0.0448
    7loPI    C2   98   9.883  11.340  11.230  0.1150 -0.1654 -0.0057
    7loPI    C3   99   9.561  11.120  11.318  0.0755 -0.1325 -0.0672
    7loPI   PO4  100   9.843  11.245  10.744 -0.0188 -0.3288  0.1450
    7loPI   GL1  101   9.938  11.432  10.417 -0.1350 -0.1233 -0.1530
    7loPI   GL2  102  10.184  11.438  10.262 -0.2734 -0.0046 -0.0743
    7loPI   C1A  103   9.656  11.562  10.078  0.2909  0.0055 -0.1493
    7loPI   C2A  104   9.531  11.619   9.688 -0.0409  0.3357  0.3209
    7loPI   C3A  105   9.605  11.652   9.299 -0.1461  0.0814 -0.2577
    7loPI   C4A  106   9.572  11.729   8.820  0.0092 -0.0110 -0.3172
    7loPI   C5A  107   9.635  11.578   8.305  0.0178  0.1648 -0.2094
    7loPI   C6A  108   9.314  11.336   8.098 -0.2601  0.1340 -0.1671
    7loPI   C1B  109  10.117  11.355   9.838  0.2186 -0.1611  0.0233
    7loPI   C2B  110  10.163  11.377   9.440  0.2360  0.1601 -0.1743
    7loPI   C3B  111  10.152  11.455   9.044 -0.1295  0.4700  0.1500
    7loPI   C4B  112  10.010  11.526   8.622  0.1920  0.3643 -0.0640
    8loPI    C1  113   7.763   2.682  11.647  0.1025 -0.1918 -0.1121
    8loPI    C2  114   7.442   2.447  11.609 -0.0867  0.0319  0.0694
    8loPI    C3  115   7.435   2.755  11.864  0.3108 -0.0232  0.1537
    8loPI   PO4  116   7.819   2.673  11.281 -0.1114  0.0977  0.1953
    8loPI   GL1  117   7.957   2.779  10.897  0.2720 -0.0400 -0.1253
    8loPI   GL2  118   7.895   2.465  10.793  0.2031 -0.0286 -0.2487
    8loPI   C1A  119   7.730   3.049  10.647  0.1616  0.4584 -0.2239
    8loPI   C2A  120   7.831   3.098  10.293  0.2246  0.0201 -0.1760
    8loPI   C3A  121   7.679   3.178   9.890 -0.1506  0.0685 -0.2603
    8loPI   C4A  122   7.740   3.169   9.510 -0.2466 -0.1811  0.1173
    8loPI   C5A  123   7.759   3.194   9.066 -0.0263  0.0532 -0.3026
    8loPI   C6A  124   8.075   3.307   8.790  0.2727  0.0311 -0.0046
    8loPI   C1B  125   7.918   2.620  10.332 -0.1176 -0.0566 -0.2262
    8loPI   C2B  126   7.851   2.710   9.848 -0.0216 -0.1130  0.0437
    8loPI   C3B  127   7.778   2.658   9.421  0.2959  0.1026 -0.0791
    8loPI   C4B  128   7.905   2.729   8.927  0.1663  0.1934 -0.3009
    9loPI    C1  129   9.831   9.304  10.764 -0.0086  0.0512  0.0951
    9loPI    C2  130   9.571   9.417  11.046  0.0151  0.1960  0.0595
    9loPI    C3  131   9.952   9.345  11.143 -0.0687 -0.1614  0.1388
    9loPI   PO4  132   9.749   9.103  10.575  0.1975 -0.2975 -0.0741
    9loPI   GL1  133   9.717   9.105  10.109  0.0609  0.0597  0.0181
    9loPI   GL2  134   9.391   9.123  10.137 -0.4176  0.0869 -0.0266
    9loPI   C1A  135   9.583   9.353   9.650  0.0574  0.0952 -0.1166
    9loPI   C2A  136   9.553   9.315   9.249 -0.1413  0.0588 -0.0532
    9loPI   C3A  137   9.583   9.394   8.771 -0.0382  0.2637  0.1622
    9loPI   C4A  138   9.788   9.541   8.491 -0.1282  0.0054  0.0522
    9loPI   C5A  139  10.022   9.618   8.249 -0.0174  0.1585  0.1148
    9loPI   C6A  140  10.346   9.537   7.967  0.2135 -0.0253  0.4492
    9loPI   C1B  141   9.243   8.993   9.654  0.1002  0.1573 -0.0923
    9loPI   C2B  142   9.293   8.895   9.230  0.3161 -0.1068  0.3939
    9loPI   C3B  143   9.470   8.926   8.766  0.2230  0.2984 -0.1964
    9loPI   C4B  144   9.364   8.727   8.324  0.0934 -0.2439  0.0175
   10loPI    C1  145   5.264  16.341  11.579  0.0206 -0.1706  0.0040
   10loPI    C2  146   5.179  16.626  11.846 -0.0041 -0.1871  0.0138
   10loPI    C3  147   5.543  16.462  11.838 -0.0246 -0.2364  0.0838
   10loPI   PO4  148   5.137  16.457  11.330 -0.4691 -0.1645  0.2388
   10loPI   GL1  149   5.219  16.381  10.877  0.1159 -0.0581  0.1743
   10loPI   GL2  150   4.897  16.437  10.938  0.3076  0.2187  0.1694
   10loPI   C1A  151   5.250  16.326  10.426  0.1860 -0.1166  0.1468
   10loPI   C2A  152   5.372  16.306  10.053  0.1964  0.0673 -0.1213
   10loPI   C3A  153   5.363  16.290   9.557 -0.1762  0.1976 -0.1720
   10loPI   C4A  154   5.341  16.403   9.065 -0.5014 -0.3225  0.0845
   10loPI   C5A  155   4.962  16.445   8.749  0.1172 -0.2301  0.0241
   10loPI   C6A  156   4.837  16.178   8.492 -0.2084  0.0343  0.0289
   10loPI   C1B  157   4.800  16.471  10.521  0.2091 -0.2319 -0.1462
   10loPI   C2B  158   4.861  16.497  10.113  0.1409 -0.0465 -0.2211
   10loPI   C3B  159   4.844  16.496   9.715 -0.0318 -0.2176 -0.1947
   10loPI   C4B  160   4.905  16.503   9.260 -0.2044 -0.0229 -0.0225
   11loPI    C1  161   1.958   4.337  11.979  0.0294  0.0318 -0.1349
   11loPI    C2  162   1.856   4.076  12.265  0.0435 -0.1282 -0.2747
   11loPI    C3  163   2.154   4.334  12.328 -0.0981 -0.0137 -0.0627
   11loPI   PO4  164   1.926   4.198  11.751 -0.1619  0.1434  0.0046
   11loPI   GL1  165   1.834   4.261  11.243 -0.0600  0.0446  0.0530
   11loPI   GL2  166   2.104   4.162  11.100  0.1038 -0.2904 -0.1801
   11loPI   C1A  167   1.786   4.366  10.812  0.0599  0.1709  0.1808
   11loPI   C2A  168   1.951   4.553  10.389  0.1112 -0.3505  0.0708
   11loPI   C3A  169   1.938   4.596   9.947  0.1198 -0.2314 -0.2328
   11loPI   C4A  170   1.925   4.616   9.525  0.0514  0.0193 -0.0888
   11loPI   C5A  171   1.953   4.375   9.073  0.0732  0.0318 -0.0101
   11loPI   C6A  172   1.937   4.026   8.677 -0.4300 -0.2343 -0.2170
   11loPI   C1B  173   2.266   4.339  10.712 -0.0254  0.1607  0.1315
   11loPI   C2B  174   2.349   4.336  10.213  0.0627  0.2215 -0.0476
   11loPI   C3B  175   2.395   4.408   9.867 -0.0001  0.1656  0.0721
   11loPI   C4B  176   2.398   4.442   9.363  0.1738  0.0716 -0.1457
   12loPI    C1  177   5.405  12.667  11.124 -0.0579 -0.0989 -0.0735
   12loPI    C2  178   5.509  12.436  11.433  0.1540  0.1130  0.0169
   12loPI    C3  179   5.590  12.828  11.441  0.2889  0.0971 -0.3672
   12loPI   PO4  180   5.335  12.491  10.979  0.0187  0.1701 -0.2039
   12loPI   GL1  181   5.237  12.602  10.594 -0.0850  0.0835  0.0643
   12loPI   GL2  182   5.489  12.390  10.497  0.1499 -0.0191  0.0235
   12loPI   C1A  183   5.109  12.926  10.357  0.1339 -0.1563 -0.1423
   12loPI   C2A  184   5.114  13.056   9.950  0.0103 -0.0835 -0.0955
   12loPI   C3A  185   5.113  13.054   9.442 -0.3056 -0.1705 -0.0267
   12loPI   C4A  186   5.111  13.064   8.960 -0.1201 -0.0530 -0.1090
   12loPI   C5A  187   5.265  12.919   8.579 -0.1620 -0.0591  0.1563
   12loPI   C6A  188   5.304  13.197   8.288  0.0688  0.1196 -0.0709
   12loPI   C1B  189   5.737  12.391  10.090  0.1351  0.1418  0.2315
   12loPI   C2B  190   5.763  12.457   9.662 -0.2086  0.0169 -0.0391
   12loPI   C3B  191   5.654  12.339   9.150 -0.0213  0.1059  0.1113
   12loPI   C4B  192   5.642  12.356   8.734  0.2270  0.2613  0.1415
   13loPI    C1  193   1.074   1.946  11.527  0.0830 -0.0309  0.0609
   13loPI    C2  194   1.128   2.318  11.664 -0.0705 -0.0426  0.1551
   13loPI    C3  195   1.121   2.009  11.919  0.1533 -0.1222  0.0676
   13loPI   PO4  196   1.222   1.933  11.343 -0.0491 -0.2157 -0.1154
   13loPI   GL1  197   1.383   2.060  10.906 -0.0331 -0.0038  0.0820
   13loPI   GL2  198   1.209   2.349  10.722 -0.2198 -0.1529  0.3206
   13loPI   C1A  199   1.446   1.831  10.506  0.0705 -0.1702  0.0165
   13loPI   C2A  200   1.507   1.799  10.139  0.2284 -0.2659  0.0696
   13loPI   C3A  201   1.559   1.814   9.735  0.2312  0.1000 -0.2477
   13loPI   C4A  202   1.570   1.939   9.361 -0.0306 -0.2672  0.5200
   13loPI   C5A  203   1.565   1.889   8.823 -0.4784 -0.2473  0.2362
   13loPI   C6A  204   1.416   1.802   8.497 -0.2538 -0.0504  0.1752
   13loPI   C1B  205   1.426   2.370  10.319  0.3272 -0.1107 -0.0547
   13loPI   C2B  206   1.422   2.345   9.857  0.2842  0.0180 -0.0353
   13loPI   C3B  207   1.366   2.424   9.413  0.0665 -0.2025  0.0091
   13loPI   C4B  208   1.357   2.400   8.914 -0.1589 -0.1317  0.2114
   14loPI    C1  209   8.682   7.359  10.820  0.2704  0.2714 -0.2411
   14loPI    C2  210   9.044   7.237  10.700  0.3550  0.4839 -0.2077
   14loPI    C3  211   8.937   7.198  11.084  0.0751 -0.2189 -0.3410
   14loPI   PO4  212   8.546   7.427  10.510 -0.2528 -0.0736 -0.0632
   14loPI   GL1  213   8.220   7.539  10.180 -0.1001 -0.2500  0.0156
   14loPI   GL2  214   8.188   7.232  10.111 -0.1593  0.0425  0.0697
   14loPI   C1A  215   8.061   7.687   9.807  0.2045  0.0692  0.0430
   14loPI   C2A  216   7.924   7.721   9.460 -0.1084 -0.1043  0.0271
   14loPI   C3A  217   8.073   7.714   9.026 -0.2805 -0.0762 -0.1276
   14loPI   C4A  218   8.096   7.796   8.687 -0.1141  0.0056 -0.0751
   14loPI   C5A  219   7.910   7.672   8.291 -0.1116 -0.4256 -0.1107
   14loPI   C6A  220   8.091   7.483   7.973 -0.2491  0.0587  0.0952
   14loPI   C1B  221   8.137   7.175   9.653 -0.0691  0.2822  0.3839
   14loPI   C2B  222   8.179   7.219   9.181 -0.0341  0.1677  0.2078
   14loPI   C3B  223   8.198   7.244   8.803 -0.1161 -0.0599 -0.1443
   14loPI   C4B  224   8.107   7.242   8.458 -0.0685 -0.0283 -0.2339
   15loPI    C1  225   2.599  17.514  11.688  0.0032 -0.1413 -0.1465
   15loPI    C2  226   2.426  17.186  11.837 -0.1466  0.0821  0.1843
   15loPI    C3  227   2.802  17.276  11.938 -0.1011  0.0080  0.0835
   15loPI   PO4  228   2.626  17.496  11.405 -0.1701 -0.0373 -0.1574
   15loPI   GL1  229   2.421  17.488  10.975  0.0915 -0.0042 -0.1617
   15loPI   GL2  230   2.353  17.243  10.780  0.1911 -0.0221  0.3288
   15loPI   C1A  231   2.323  17.752  10.499  0.2695 -0.1862 -0.1366
   15loPI   C2A  232   2.377  17.753  10.104 -0.0166 -0.1806  0.2633
   15loPI   C3A  233   2.316  17.792   9.662 -0.2265 -0.1673 -0.0212
   15loPI   C4A  234   2.243  17.696   9.158 -0.1929  0.2574  0.0081
   15loPI   C5A  235   2.131  17.300   8.793 -0.2013 -0.1075  0.2125
   15loPI   C6A  236   2.122  17.199   8.340 -0.2358  0.0705 -0.3332
   15loPI   C1B  237   2.446  17.317  10.311 -0.2556  0.0130  0.3339
   15loPI   C2B  238   2.449  17.358   9.835 -0.0520  0.0660 -0.2930
   15loPI   C3B  239   2.376  17.313   9.447  0.1089  0.0305  0.4152
   15loPI   C4B  240   2.478  17.033   9.025  0.2137 -0.2899 -0.0226
   16loPI    C1  241   8.185   9.954  10.999 -0.1525  0.0444  0.1618
   16loPI    C2  242   8.174   9.819  11.375 -0.0610 -0.2451  0.0638
   16loPI    C3  243   8.517   9.954  11.221 -0.0630 -0.2735  0.0342
   16loPI   PO4  244   7.879   9.840  10.934 -0.1972  0.1892  0.0641
   16loPI   GL1  245   7.631   9.573  10.543 -0.0606 -0.0547  0.0685
   16loPI   GL2  246   7.537   9.285  10.480  0.4222  0.0199  0.5197
   16loPI   C1A  247   7.616   9.725  10.187 -0.2755 -0.1326 -0.1962
   16loPI   C2A  248   7.545   9.749   9.771  0.0000 -0.4670 -0.0788
   16loPI   C3A  249   7.619   9.813   9.370 -0.2820  0.1498  0.1701
   16loPI   C4A  250   7.518   9.856   8.968 -0.1320 -0.1521 -0.2331
   16loPI   C5A  251   7.398  10.117   8.674  0.0633  0.2597  0.0413
   16loPI   C6A  252   7.440  10.308   8.250  0.1631  0.0807  0.1803
   16loPI   C1B  253   7.243   9.362  10.196  0.0671 -0.0633 -0.2440
   16loPI   C2B  254   7.192   9.401   9.793  0.0402 -0.1127 -0.0902
   16loPI   C3B  255   7.138   9.426   9.312 -0.1226  0.1987 -0.1071
   16loPI   C4B  256   7.293   9.341   8.919 -0.0931  0.2930  0.1428
   17loPI    C1  257   1.196  14.927  11.569  0.0423  0.1044 -0.0899
   17loPI    C2  258   1.397  14.711  11.838 -0.1448  0.0168 -0.0191
   17loPI    C3  259   1.286  15.085  11.925 -0.2735 -0.0382  0.0571
   17loPI   PO4  260   1.365  15.024  11.364 -0.0739 -0.0163  0.1380
   17loPI   GL1  261   1.516  14.944  10.925 -0.0120 -0.0099 -0.1693
   17loPI   GL2  262   1.615  14.633  10.781  0.0599 -0.0321 -0.1940
   17loPI   C1A  263   1.555  15.244  10.610  0.2004 -0.1414  0.2143
   17loPI   C2A  264   1.543  15.250  10.201 -0.0517 -0.1618  0.1937
   17loPI   C3A  265   1.529  15.223   9.699 -0.0256 -0.3119 -0.3472
   17loPI   C4A  266   1.452  15.188   9.251  0.1317 -0.2331  0.0096
   17loPI   C5A  267   1.354  15.143   8.757 -0.0729  0.0043  0.0372
   17loPI   C6A  268   1.439  15.281   8.277  0.1588 -0.2666  0.1573
   17loPI   C1B  269   1.525  14.697  10.384  0.1002 -0.1074 -0.1289
   17loPI   C2B  270   1.646  14.815   9.977 -0.0375 -0.3038  0.1936
   17loPI   C3B  271   1.499  14.701   9.690  0.0544  0.0932  0.0779
   17loPI   C4B  272   1.484  14.700   9.229 -0.1276 -0.1514  0.0654
   18loPI    C1  273   5.711   7.196  11.465  0.2248  0.0760 -0.1091
   18loPI    C2  274   5.924   7.358  11.763 -0.0211 -0.1611  0.2010
   18loPI    C3  275   5.701   7.032  11.829 -0.2186 -0.1139 -0.2008
   18loPI   PO4  276   5.875   7.265  11.198  0.1971 -0.2163  0.1387
   18loPI   GL1  277   5.868   7.420  10.729 -0.2336 -0.1227 -0.1205
   18loPI   GL2  278   6.008   7.148  10.722 -0.0813 -0.0547 -0.1298
   18loPI   C1A  279   5.852   7.450  10.287  0.3933  0.0750  0.2096
   18loPI   C2A  280   5.821   7.493   9.820  0.2111  0.0905  0.0577
   18loPI   C3A  281   5.810   7.608   9.426  0.1848 -0.1700  0.1206
   18loPI   C4A  282   5.830   7.518   8.962 -0.2643 -0.0070  0.1263
   18loPI   C5A  283   5.865   7.261   8.584 -0.1996 -0.2248 -0.0883
   18loPI   C6A  284   5.779   6.773   8.528 -0.0998  0.0094 -0.1088
   18loPI   C1B  285   6.053   6.948  10.382 -0.1799  0.2208  0.1332
   18loPI   C2B  286   5.988   7.011   9.874  0.0802  0.2046 -0.3992
   18loPI   C3B  287   5.921   7.026   9.457 -0.0520 -0.1898  0.1231
   18loPI   C4B  288   5.947   7.006   9.044 -0.0332 -0.0138 -0.0330
   19loPI    C1  289  12.341   6.278  10.572 -0.2354 -0.2344  0.0510
   19loPI    C2  290  12.395   6.130  10.204  0.0708 -0.0691  0.0259
   19loPI    C3  291  12.433   5.892  10.523  0.1323 -0.1402 -0.0341
   19loPI   PO4  292  12.525   6.519  10.516  0.1125  0.2661 -0.1185
   19loPI   GL1  293  12.712   6.563  10.132  0.4057 -0.0175  0.0787
   19loPI   GL2  294  12.823   6.404   9.917 -0.3425  0.2205  0.0473
   19loPI   C1A  295  12.591   6.787   9.735 -0.0957  0.1283  0.1241
   19loPI   C2A  296  12.620   6.829   9.288 -0.1923 -0.1064  0.0963
   19loPI   C3A  297  12.710   6.995   8.904 -0.3568 -0.2119 -0.2417
   19loPI   C4A  298  13.092   7.046   8.640 -0.1198  0.3879  0.0846
   19loPI   C5A  299  13.235   7.434   8.349 -0.3128  0.2205 -0.1706
   19loPI   C6A  300  13.446   7.599   8.043  0.0646 -0.1319  0.0050
   19loPI   C1B  301  12.682   6.259   9.442 -0.0835  0.0189 -0.3172
   19loPI   C2B  302  12.693   6.246   8.974  0.2488 -0.0204 -0.1686
   19loPI   C3B  303  12.765   6.217   8.421  0.1527  0.0952  0.0593
   19loPI   C4B  304  12.836   6.228   7.946  0.1918  0.2012  0.0001
   20loPI    C1  305   3.008  14.081  11.324 -0.0153 -0.1978  0.0896
   20loPI    C2  306   3.175  13.850  11.604  0.0307 -0.2152  0.0479
   20loPI    C3  307   2.896  14.118  11.706  0.0439 -0.2249  0.1096
   20loPI   PO4  308   2.937  13.992  11.116 -0.2000 -0.0540 -0.0405
   20loPI   GL1  309   2.971  14.118  10.656 -0.2661  0.0140  0.1379
   20loPI   GL2  310   3.261  14.401  10.572 -0.0264 -0.0866  0.0669
   20loPI   C1A  311   3.040  14.167  10.215 -0.0701 -0.0828  0.0385
   20loPI   C2A  312   3.131  14.215   9.724  0.0779  0.0693  0.0224
   20loPI   C3A  313   3.026  14.183   9.259  0.1358 -0.0096 -0.0351
   20loPI   C4A  314   3.084  14.318   8.947  0.0433 -0.1031  0.0521
   20loPI   C5A  315   3.324  14.391   8.533  0.0429 -0.1883  0.1071
   20loPI   C6A  316   3.292  14.785   8.344 -0.2628  0.1675  0.0137
   20loPI   C1B  317   3.405  14.482  10.079 -0.1737  0.0717 -0.1580
   20loPI   C2B  318   3.496  14.580   9.648 -0.1231  0.0312  0.1031
   20loPI   C3B  319   3.396  14.597   9.239  0.2897  0.0481  0.0723
   20loPI   C4B  320   3.609  14.669   8.822 -0.0592 -0.0826 -0.0122
   21loPI    C1  321   4.627   4.229  11.498 -0.0452 -0.1686 -0.1244
   21loPI    C2  322   4.329   4.176  11.760  0.0561 -0.0247  0.0225
   21loPI    C3  323   4.643   3.927  11.760  0.1304  0.0679  0.1443
   21loPI   PO4  324   4.530   4.222  11.260  0.0996  0.3246 -0.0471
   21loPI   GL1  325   4.821   4.229  10.914 -0.1284  0.0375  0.3783
   21loPI   GL2  326   4.757   4.465  10.878  0.1594 -0.0392 -0.0929
   21loPI   C1A  327   4.706   4.051  10.460  0.1905 -0.0290 -0.3791
   21loPI   C2A  328   4.718   4.081   9.973  0.2062  0.2302 -0.0446
   21loPI   C3A  329   4.711   4.027   9.479 -0.0165 -0.0995  0.0456
   21loPI   C4A  330   4.688   4.105   9.038 -0.2378 -0.1591  0.1169
   21loPI   C5A  331   4.566   4.078   8.645 -0.1484 -0.2388  0.1621
   21loPI   C6A  332   4.725   3.842   8.293  0.3693 -0.1118 -0.0675
   21loPI   C1B  333   4.641   4.598  10.538  0.2399 -0.1803 -0.0801
   21loPI   C2B  334   4.662   4.559  10.190 -0.2300  0.3879  0.1474
   21loPI   C3B  335   4.570   4.609   9.751  0.0194  0.0176 -0.0364
   21loPI   C4B  336   4.592   4.560   9.358  0.2390  0.0396  0.1043
   22loPI    C1  337   6.145  14.300  11.643 -0.1426  0.0218  0.0956
   22loPI    C2  338   6.444  14.526  11.784  0.0524 -0.2006  0.0456
   22loPI    C3  339   6.128  14.445  12.015  0.1305 -0.1401  0.1744
   22loPI   PO4  340   6.089  14.418  11.434 -0.2235  0.2666 -0.0136
   22loPI   GL1  341   6.141  14.303  10.947  0.1060 -0.0774 -0.2559
   22loPI   GL2  342   5.821  14.288  10.944 -0.2148 -0.0993  0.0124
   22loPI   C1A  343   6.168  14.415  10.540  0.3341  0.0702  0.0095
   22loPI   C2A  344   6.142  14.597  10.119  0.0633 -0.0627  0.0163
   22loPI   C3A  345   6.218  14.613   9.683  0.0614  0.0509  0.0608
   22loPI   C4A  346   6.245  14.534   9.234  0.0221 -0.0158  0.0222
   22loPI   C5A  347   6.359  14.511   8.778 -0.3187  0.0712 -0.1603
   22loPI   C6A  348   6.655  14.181   8.689 -0.0454  0.4130  0.0772
   22loPI   C1B  349   5.875  14.055  10.563  0.0838 -0.0628 -0.4220
   22loPI   C2B  350   5.866  13.691  10.304 -0.1059  0.3309  0.2256
   22loPI   C3B  351   5.845  13.615   9.916 -0.0052  0.2582 -0.0148
   22loPI   C4B  352   5.926  13.807   9.566 -0.0871  0.1846  0.0330
   23loPI    C1  353  13.653   1.849  11.445 -0.0359  0.0103 -0.0912
   23loPI    C2  354  13.287   1.693  11.494 -0.0193 -0.0144 -0.0455
   23loPI    C3  355  13.565   1.491  11.289  0.0557 -0.1248  0.1618
   23loPI   PO4  356  13.611   2.032  11.267 -0.1812  0.1128 -0.0408
   23loPI   GL1  357  13.706   2.080  10.808  0.3152 -0.2915 -0.4143
   23loPI   GL2  358  13.494   1.967  10.747  0.3121 -0.0613  0.1885
   23loPI   C1A  359  14.023   2.216  10.655 -0.0387  0.0259  0.0068
   23loPI   C2A  360  14.312   2.461  10.359 -0.1005 -0.0147  0.0754
   23loPI   C3A  361  14.351   2.496   9.943  0.2640  0.0547 -0.1515
   23loPI   C4A  362  14.368   2.497   9.464 -0.1329 -0.1494  0.1100
   23loPI   C5A  363  14.409   2.512   8.964 -0.0604 -0.2902 -0.1042
   23loPI   C6A  364  14.380   2.278   8.487 -0.0850  0.5177 -0.3283
   23loPI   C1B  365  13.428   2.112  10.369  0.0014 -0.0594  0.4043
   23loPI   C2B  366  13.467   2.196   9.891 -0.0002 -0.0592  0.2711
   23loPI   C3B  367  13.371   2.212   9.502 -0.0228  0.1000 -0.0837
   23loPI   C4B  368  13.265   2.266   9.029  0.1145 -0.2893 -0.0409
   24loPI    C1  369   4.511  12.345  11.176 -0.1059 -0.0047  0.0771
   24loPI    C2  370   4.199  12.442  11.407 -0.1202  0.0072  0.0529
   24loPI    C3  371   4.570  12.447  11.558 -0.1353 -0.0427  0.0919
   24loPI   PO4  372   4.390  12.494  10.895  0.1013 -0.1186  0.0900
   24loPI   GL1  373   4.314  12.379  10.510 -0.1235 -0.1499  0.0141
   24loPI   GL2  374   4.533  12.259  10.453 -0.0083  0.5677  0.0021
   24loPI   C1A  375   4.195  12.338  10.063  0.2067  0.0875  0.1141
   24loPI   C2A  376   4.310  12.407   9.716  0.3345  0.0094 -0.1188
   24loPI   C3A  377   4.339  12.305   9.353 -0.1333  0.0963  0.2373
   24loPI   C4A  378   4.381  12.350   8.906 -0.2261  0.2119 -0.1797
   24loPI   C5A  379   4.298  12.407   8.522 -0.0602 -0.0605 -0.2534
   24loPI   C6A  380   4.235  12.412   8.039 -0.0344  0.2864 -0.0487
   24loPI   C1B  381   4.739  12.243   9.971  0.0553 -0.2503  0.0469
   24loPI   C2B  382   4.834  12.249   9.577 -0.2830 -0.1643 -0.2192
   24loPI   C3B  383   4.838  12.205   9.208 -0.0667 -0.1358 -0.0493
   24loPI   C4B  384   4.793  12.189   8.695  0.0127 -0.0400 -0.0847
   25loPI    C1  385  12.220   8.344  10.323 -0.0796 -0.1018  0.0767
   25loPI    C2  386  11.955   8.431  10.610 -0.0725  0.0519  0.0374
   25loPI    C3  387  12.341   8.524  10.659 -0.0736  0.0920 -0.0276
   25loPI   PO4  388  12.110   8.427  10.136  0.1716  0.2182 -0.0884
   25loPI   GL1  389  12.097   8.358   9.635  0.1241  0.0026 -0.1001
   25loPI   GL2  390  11.809   8.302   9.753 -0.1752  0.0474 -0.1042
   25loPI   C1A  391  12.217   8.409   9.280  0.0677  0.0940 -0.3157
   25loPI   C2A  392  12.247   8.382   8.917 -0.0275  0.1882 -0.2646
   25loPI   C3A  393  12.175   8.511   8.481 -0.2332 -0.2534  0.1558
   25loPI   C4A  394  12.113   8.507   8.136  0.0062 -0.1620  0.3338
   25loPI   C5A  395  11.906   8.706   7.778 -0.2471 -0.1605  0.1694
   25loPI   C6A  396  11.434   8.634   7.594  0.0096  0.0624 -0.1686
   25loPI   C1B  397  11.714   8.443   9.316 -0.0512 -0.1383 -0.0172
   25loPI   C2B  398  11.693   8.527   8.850  0.0837 -0.2302  0.0084
   25loPI   C3B  399  11.621   8.374   8.446  0.0207  0.1059  0.1110
   25loPI   C4B  400  11.422   8.303   7.990  0.0915  0.1186  0.0129
   26loPI    C1  401  16.806  13.055  11.240 -0.0650 -0.1087  0.1662
   26loPI    C2  402  16.435  13.001  11.381 -0.1612 -0.0827 -0.0719
   26loPI    C3  403  16.656  13.309  11.511 -0.2182 -0.1044  0.0783
   26loPI   PO4  404  16.780  13.098  10.946 -0.1470 -0.0971 -0.4280
   26loPI   GL1  405  16.934  13.358  10.778  0.0245  0.2533  0.1838
   26loPI   GL2  406  16.622  13.648  10.697  0.1316  0.0886 -0.2376
   26loPI   C1A  407  17.025  13.481  10.382 -0.1810  0.2638  0.5210
   26loPI   C2A  408  17.133  13.490   9.921  0.2064 -0.2165  0.0709
   26loPI   C3A  409  17.076  13.556   9.503 -0.2453  0.1411 -0.0509
   26loPI   C4A  410  17.051  13.455   9.021 -0.1350 -0.1068 -0.0528
   26loPI   C5A  411  16.912  13.331   8.626  0.1715  0.0169  0.3435
   26loPI   C6A  412  16.699  13.301   8.156 -0.1792  0.0154  0.1179
   26loPI   C1B  413  16.472  13.767  10.300 -0.2327  0.1221  0.1668
   26loPI   C2B  414  16.521  13.791   9.894  0.1686 -0.1028  0.0288
   26loPI   C3B  415  16.539  13.782   9.444  0.4460 -0.1229  0.1667
   26loPI   C4B  416  16.596  13.645   9.034 -0.2304  0.2334  0.3036
   27loPI    C1  417  15.842  13.159  11.383 -0.0198 -0.0700 -0.0344
   27loPI    C2  418  15.966  12.891  11.652  0.0069 -0.0166  0.0067
   27loPI    C3  419  15.881  13.265  11.766  0.1508  0.0441 -0.0822
   27loPI   PO4  420  15.957  13.070  11.169 -0.0353  0.4313  0.2450
   27loPI   GL1  421  16.045  13.256  10.754 -0.0104  0.0337  0.1066
   27loPI   GL2  422  15.881  13.007  10.694 -0.0886 -0.0246  0.0478
   27loPI   C1A  423  16.044  13.345  10.383 -0.0583 -0.0223  0.4297
   27loPI   C2A  424  16.153  13.400  10.027  0.0044 -0.0017 -0.0623
   27loPI   C3A  425  16.172  13.425   9.574  0.1734 -0.1892 -0.1894
   27loPI   C4A  426  16.122  13.317   9.131  0.0435  0.0319 -0.3651
   27loPI   C5A  427  16.171  13.038   8.805  0.0534 -0.1907  0.0461
   27loPI   C6A  428  16.610  12.918   8.582  0.0358  0.1737 -0.4088
   27loPI   C1B  429  15.636  13.027  10.322 -0.2422  0.0859 -0.1058
   27loPI   C2B  430  15.735  13.042   9.877  0.2467 -0.3509  0.0752
   27loPI   C3B  431  15.783  13.033   9.454  0.0514 -0.1406  0.3795
   27loPI   C4B  432  15.812  12.843   9.076 -0.0596 -0.0524  0.1968
   28loPI    C1  433   1.716   2.523  11.617 -0.0289 -0.0678 -0.1441
   28loPI    C2  434   1.598   2.140  11.614  0.2213 -0.1484  0.0054
   28loPI    C3  435   1.659   2.328  11.962 -0.2349  0.1366 -0.0601
   28loPI   PO4  436   1.841   2.479  11.327 -0.0656 -0.0575 -0.3994
   28loPI   GL1  437   1.809   2.475  10.904 -0.1729  0.2044 -0.4134
   28loPI   GL2  438   1.613   2.672  10.827 -0.0764 -0.0999 -0.1060
   28loPI   C1A  439   2.200   2.477  10.491  0.0882  0.0536 -0.1969
   28loPI   C2A  440   2.257   2.555   9.992  0.0642 -0.0837 -0.2582
   28loPI   C3A  441   2.244   2.574   9.656 -0.3373  0.2133 -0.2553
   28loPI   C4A  442   2.205   2.593   9.221 -0.0522 -0.3465 -0.0383
   28loPI   C5A  443   2.500   2.440   8.767 -0.3104  0.1741  0.2918
   28loPI   C6A  444   2.503   2.107   8.470 -0.3570 -0.0232  0.0431
   28loPI   C1B  445   1.784   2.729  10.435  0.1110  0.0251 -0.0992
   28loPI   C2B  446   1.797   2.714   9.942  0.1216  0.1144  0.0736
   28loPI   C3B  447   1.724   2.755   9.577  0.1473  0.1797  0.0633
   28loPI   C4B  448   1.681   2.708   9.158 -0.0864  0.3172  0.1832
   29loPI    C1  449   0.252   9.171  11.443  0.1236 -0.2279  0.0914
   29loPI    C2  450   0.293   9.326  11.810 -0.0793 -0.0137  0.0264
   29loPI    C3  451  -0.058   9.172  11.696 -0.0722  0.0920 -0.1421
   29loPI   PO4  452   0.377   9.420  11.306 -0.0273  0.1992 -0.2680
   29loPI   GL1  453   0.453   9.418  10.878  0.5682 -0.5203  0.2104
   29loPI   GL2  454   0.674   9.635  10.756 -0.0315 -0.0022  0.1095
   29loPI   C1A  455   0.410   9.219  10.443 -0.0842 -0.0145  0.3882
   29loPI   C2A  456   0.459   9.256   9.976 -0.2447 -0.2491  0.0087
   29loPI   C3A  457   0.456   9.327   9.562  0.0687 -0.0931  0.0552
   29loPI   C4A  458   0.451   9.360   9.106 -0.1513 -0.0421 -0.1088
   29loPI   C5A  459   0.707   9.062   8.766  0.1253  0.2466  0.1533
   29loPI   C6A  460   0.943   8.601   8.695 -0.0111 -0.1348  0.0107
   29loPI   C1B  461   0.818   9.596  10.367  0.1773 -0.0644 -0.0023
   29loPI   C2B  462   0.892   9.569   9.906  0.2800  0.1990  0.0088
   29loPI   C3B  463   0.832   9.701   9.468 -0.1980 -0.1469  0.0496
   29loPI   C4B  464   0.854   9.658   9.079 -0.2257 -0.0084  0.2323
   30loPI    C1  465   1.886  15.863  11.520  0.0052  0.0740 -0.2549
   30loPI    C2  466   2.014  16.236  11.585 -0.2023  0.0441  0.4014
   30loPI    C3  467   2.231  15.925  11.713 -0.1628 -0.0561  0.0975
   30loPI   PO4  468   1.829  15.872  11.285  0.0218  0.0946  0.4217
   30loPI   GL1  469   2.032  15.654  10.957 -0.0152 -0.0694  0.0525
   30loPI   GL2  470   1.705  15.719  10.812 -0.1062  0.2841  0.0896
   30loPI   C1A  471   2.172  15.951  10.631 -0.1507  0.2689 -0.0662
   30loPI   C2A  472   2.243  16.003  10.161 -0.0223  0.0584 -0.3866
   30loPI   C3A  473   2.248  16.021   9.682  0.0628 -0.1177 -0.0827
   30loPI   C4A  474   2.229  15.967   9.172 -0.0542  0.1554  0.0231
   30loPI   C5A  475   2.280  16.259   8.912 -0.1762 -0.2838  0.0673
   30loPI   C6A  476   2.525  16.485   8.661 -0.1031  0.0229  0.1373
   30loPI   C1B  477   1.794  15.700  10.426  0.0252 -0.0387  0.1642
   30loPI   C2B  478   1.886  15.536  10.020 -0.3976  0.0657 -0.0448
   30loPI   C3B  479   1.916  15.559   9.584 -0.0705  0.1060 -0.0736
   30loPI   C4B  480   1.806  15.547   9.190  0.1380 -0.0859  0.2572
   31loPI    C1  481   7.139   8.176  10.853 -0.1584  0.0142  0.1198
   31loPI    C2  482   6.886   8.127  11.159 -0.1589  0.2405  0.1577
   31loPI    C3  483   7.131   8.443  11.151 -0.0899  0.1837 -0.0282
   31loPI   PO4  484   6.989   8.158  10.665 -0.0038  0.0285 -0.1882
   31loPI   GL1  485   6.921   8.008  10.195  0.1689  0.1489  0.1906
   31loPI   GL2  486   6.632   7.839  10.290 -0.1620 -0.3421 -0.0945
   31loPI   C1A  487   7.008   8.010   9.763  0.0603 -0.0988 -0.1599
   31loPI   C2A  488   7.009   8.041   9.261  0.0529  0.1656 -0.0998
   31loPI   C3A  489   7.155   7.993   8.845  0.1854 -0.3458  0.1052
   31loPI   C4A  490   7.004   8.087   8.468  0.3104 -0.0789 -0.0284
   31loPI   C5A  491   6.688   7.916   8.192  0.1131 -0.0283  0.3180
   31loPI   C6A  492   6.576   7.593   8.083 -0.0092 -0.0305 -0.0025
   31loPI   C1B  493   6.601   7.765   9.826  0.2370 -0.2099 -0.2750
   31loPI   C2B  494   6.659   7.753   9.455 -0.1200  0.0900  0.1384
   31loPI   C3B  495   6.764   7.680   9.032  0.0867 -0.4283  0.1975
   31loPI   C4B  496   6.826   7.626   8.608  0.2987 -0.1759 -0.3198
   32loPI    C1  497  14.736  16.701  11.129 -0.1083  0.0358 -0.1063
   32loPI    C2  498  14.632  16.560  11.488 -0.1314  0.0919 -0.0910
   32loPI    C3  499  14.854  16.892  11.460 -0.0594  0.0409 -0.1267
   32loPI   PO4  500  14.834  16.468  11.002  0.0893  0.0291  0.0843
   32loPI   GL1  501  15.134  16.516  10.618 -0.0048 -0.1512  0.0465
   32loPI   GL2  502  15.087  16.846  10.661 -0.0471 -0.0913 -0.0715
   32loPI   C1A  503  15.079  16.474  10.132 -0.3133 -0.1808 -0.2050
   32loPI   C2A  504  15.123  16.462   9.727  0.0558 -0.1674 -0.2217
   32loPI   C3A  505  15.177  16.563   9.296 -0.0824  0.0008  0.0802
   32loPI   C4A  506  15.011  16.511   8.844  0.0589  0.3276  0.4513
   32loPI   C5A  507  15.134  16.445   8.486 -0.2092 -0.0980 -0.1792
   32loPI   C6A  508  15.027  16.240   8.141  0.2783  0.0182  0.0455
   32loPI   C1B  509  15.011  16.970  10.227  0.1183 -0.3273  0.3598
   32loPI   C2B  510  14.893  16.908   9.846 -0.2853 -0.0707 -0.0096
   32loPI   C3B  511  14.917  17.035   9.498  0.0818 -0.0941  0.2045
   32loPI   C4B  512  14.984  17.013   9.069  0.1016  0.4897 -0.3619
   33loPI    C1  513  10.055   8.052  10.331  0.0084  0.0244  0.0101
   33loPI    C2  514  10.203   8.028  10.702  0.0612  0.1116 -0.0050
   33loPI    C3  515   9.977   8.341  10.596  0.1226  0.1330 -0.0736
   33loPI   PO4  516  10.234   7.981  10.128 -0.2888 -0.1279 -0.5461
   33loPI   GL1  517  10.175   7.988   9.778  0.1790 -0.0679  0.0897
   33loPI   GL2  518   9.953   7.773   9.773 -0.3032 -0.1775 -0.0954
   33loPI   C1A  519  10.220   8.018   9.325  0.0433  0.0140 -0.0779
   33loPI   C2A  520  10.211   7.998   8.835  0.0165 -0.1808 -0.3647
   33loPI   C3A  521  10.070   7.966   8.323  0.1056  0.1125  0.0325
   33loPI   C4A  522  10.235   7.915   7.956 -0.2887 -0.2006  0.0446
   33loPI   C5A  523  10.550   8.125   7.632 -0.1222  0.1384  0.0936
   33loPI   C6A  524  10.513   8.258   7.293 -0.0164 -0.2440  0.1655
   33loPI   C1B  525   9.968   7.610   9.427 -0.1576 -0.1885 -0.0195
   33loPI   C2B  526  10.013   7.561   8.988 -0.4697 -0.0815  0.2999
   33loPI   C3B  527  10.038   7.502   8.575  0.0709  0.0939 -0.0760
   33loPI   C4B  528  10.186   7.447   8.093  0.0891  0.1278 -0.1398
   34loPI    C1  529   1.526   6.930  11.720 -0.1073 -0.0607  0.1842
   34loPI    C2  530   1.147   6.957  11.596 -0.0311  0.2202  0.0054
   34loPI    C3  531   1.273   7.179  11.904 -0.0357  0.0541  0.1282
   34loPI   PO4  532   1.633   6.975  11.569  0.2200 -0.0159  0.1485
   34loPI   GL1  533   1.692   6.905  11.202  0.1019 -0.2178  0.1957
   34loPI   GL2  534   1.335   7.005  11.115  0.1243 -0.0313 -0.1774
   34loPI   C1A  535   1.846   6.873  10.802  0.0694  0.1360  0.1386
   34loPI   C2A  536   1.906   6.938  10.336  0.0633 -0.5609  0.1357
   34loPI   C3A  537   1.807   6.957   9.901  0.0876  0.2154  0.2349
   34loPI   C4A  538   1.933   6.947   9.418  0.0815  0.0280 -0.1041
   34loPI   C5A  539   1.632   6.816   8.992  0.0022  0.1681 -0.0375
   34loPI   C6A  540   1.297   6.817   8.963  0.1289  0.1820  0.0441
   34loPI   C1B  541   1.392   7.067  10.760 -0.3192 -0.1585  0.0022
   34loPI   C2B  542   1.399   7.071  10.332  0.1190  0.3744 -0.3199
   34loPI   C3B  543   1.316   7.130   9.826 -0.2888 -0.1919 -0.3323
   34loPI   C4B  544   1.430   7.130   9.427  0.1413 -0.0906 -0.1157
   35loPI    C1  545   5.303  15.895  11.422  0.0222 -0.1669 -0.1452
   35loPI    C2  546   5.593  15.645  11.540  0.0612 -0.1535 -0.2123
   35loPI    C3  547   5.433  15.903  11.801  0.2314 -0.0408 -0.2175
   35loPI   PO4  548   5.380  15.951  11.147 -0.1365 -0.3750 -0.0706
   35loPI   GL1  549   5.364  15.933  10.741  0.2139 -0.0039  0.1199
   35loPI   GL2  550   5.692  16.014  10.602 -0.1120 -0.1473  0.0339
   35loPI   C1A  551   5.323  15.819  10.272 -0.0636  0.2134 -0.0304
   35loPI   C2A  552   5.405  15.815   9.758  0.0991 -0.3529 -0.0226
   35loPI   C3A  553   5.506  15.885   9.317  0.0312  0.0013 -0.0329
   35loPI   C4A  554   5.545  15.932   8.956  0.0369 -0.1585  0.0840
   35loPI   C5A  555   5.331  16.058   8.592  0.1347  0.3045  0.0162
   35loPI   C6A  556   5.212  16.049   8.208 -0.2093  0.0167  0.1801
   35loPI   C1B  557   5.778  16.121  10.138  0.3111  0.2126  0.0293
   35loPI   C2B  558   5.856  16.201   9.712 -0.0994  0.2077 -0.0951
   35loPI   C3B  559   5.981  16.150   9.207 -0.0067 -0.1463  0.1313
   35loPI   C4B  560   6.004  16.185   8.786  0.2001 -0.0851  0.1312
   36loPI    C1  561   5.982   0.349  11.452  0.0396 -0.0721 -0.1482
   36loPI    C2  562   5.944  -0.049  11.472 -0.1864 -0.0515 -0.1342
   36loPI    C3  563   6.058   0.158  11.795 -0.0271 -0.1078 -0.1531
   36loPI   PO4  564   5.784   0.446  11.345  0.2747 -0.0058  0.3537
   36loPI   GL1  565   5.655   0.556  10.887 -0.3032 -0.1893 -0.0638
   36loPI   GL2  566   5.862   0.714  10.816  0.1128 -0.3620 -0.0195
   36loPI   C1A  567   5.440   0.544  10.470  0.3110 -0.0870 -0.2647
   36loPI   C2A  568   5.401   0.489  10.044  0.0302  0.1462  0.0976
   36loPI   C3A  569   5.497   0.463   9.709  0.2778 -0.2198  0.2195
   36loPI   C4A  570   5.472   0.395   9.192 -0.1041  0.0151  0.0168
   36loPI   C5A  571   5.568   0.007   8.905  0.0628 -0.0937  0.0477
   36loPI   C6A  572   5.379  -0.283   8.609 -0.0363 -0.1909 -0.3395
   36loPI   C1B  573   5.847   0.832  10.414 -0.0170 -0.1531  0.1603
   36loPI   C2B  574   5.789   0.921   9.896  0.1576 -0.0652 -0.0949
   36loPI   C3B  575   5.863   0.776   9.470 -0.3251 -0.1971  0.3468
   36loPI   C4B  576   5.890   0.757   9.110  0.2237 -0.0265  0.1548
   37loPI    C1  577  16.818   6.568  11.627 -0.2080  0.2253 -0.1067
   37loPI    C2  578  17.070   6.829  11.796  0.1016  0.0224 -0.2455
   37loPI    C3  579  16.760   6.686  12.005  0.0172  0.3794 -0.1186
   37loPI   PO4  580  17.004   6.456  11.425  0.3061 -0.0927  0.0851
   37loPI   GL1  581  17.017   6.590  10.998  0.3996 -0.2155  0.1808
   37loPI   GL2  582  16.692   6.538  10.801 -0.0558 -0.0606 -0.1091
   37loPI   C1A  583  17.263   6.301  10.758 -0.0444  0.0608  0.0970
   37loPI   C2A  584  17.187   6.198  10.321 -0.0211 -0.1178  0.0409
   37loPI   C3A  585  17.358   6.153   9.920  0.0683 -0.3994 -0.0547
   37loPI   C4A  586  17.385   6.212   9.485  0.0284  0.0673 -0.1070
   37loPI   C5A  587  17.395   6.267   9.121 -0.2086  0.0827 -0.0425
   37loPI   C6A  588  17.356   6.478   8.782  0.4701  0.1154 -0.0664
   37loPI   C1B  589  16.756   6.374  10.413 -0.1277 -0.1509 -0.2258
   37loPI   C2B  590  16.750   6.277   9.960 -0.1991  0.2944  0.2176
   37loPI   C3B  591  16.777   6.376   9.483 -0.0665 -0.1373 -0.0466
   37loPI   C4B  592  16.834   6.402   9.097 -0.3283  0.0197 -0.1769
   38loPI    C1  593   8.994  15.846  11.262 -0.1713  0.0791  0.0542
   38loPI    C2  594   9.374  15.933  11.352 -0.1159 -0.1247  0.0234
   38loPI    C3  595   9.138  15.761  11.626 -0.1752 -0.0337  0.0299
   38loPI   PO4  596   9.082  15.820  10.950  0.0752 -0.2118 -0.1898
   38loPI   GL1  597   8.876  15.722  10.523  0.1329  0.1246  0.2064
   38loPI   GL2  598   9.164  15.552  10.479 -0.0481  0.4350 -0.1903
   38loPI   C1A  599   8.766  15.622  10.142  0.0214  0.2410  0.3033
   38loPI   C2A  600   8.743  15.667   9.823  0.2314  0.0571  0.0258
   38loPI   C3A  601   8.754  15.727   9.391 -0.1052 -0.2967  0.2111
   38loPI   C4A  602   8.704  15.647   8.958  0.3670 -0.0835 -0.0914
   38loPI   C5A  603   8.745  15.458   8.694  0.2491 -0.1032 -0.0916
   38loPI   C6A  604   8.426  15.446   8.405  0.1673  0.0966  0.0358
   38loPI   C1B  605   9.202  15.541  10.000  0.2018  0.1885 -0.1317
   38loPI   C2B  606   9.203  15.543   9.582 -0.0712  0.0243  0.0636
   38loPI   C3B  607   9.192  15.473   9.168 -0.0647  0.1102  0.0587
   38loPI   C4B  608   9.322  15.445   8.657  0.1271 -0.0754  0.2012
   39loPI    C1  609   2.981   4.416  11.764  0.0433 -0.0790 -0.0816
   39loPI    C2  610   2.798   4.368  12.117  0.0329  0.0160 -0.0736
   39loPI    C3  611   3.174   4.238  12.066  0.0468  0.0338 -0.0168
   39loPI   PO4  612   2.893   4.357  11.563 -0.1912 -0.1734  0.2528
   39loPI   GL1  613   3.095   4.466  11.161  0.2773  0.0679 -0.0851
   39loPI   GL2  614   2.849   4.206  11.032  0.1079 -0.0591  0.2987
   39loPI   C1A  615   3.183   4.544  10.770 -0.1364  0.1092  0.1494
   39loPI   C2A  616   3.270   4.607  10.332 -0.0256  0.1501 -0.3851
   39loPI   C3A  617   3.245   4.591   9.980 -0.1502 -0.2447  0.0224
   39loPI   C4A  618   3.263   4.535   9.542  0.0934 -0.0852 -0.1777
   39loPI   C5A  619   3.257   4.691   9.081  0.3067 -0.0355 -0.0807
   39loPI   C6A  620   3.042   4.535   8.721 -0.1487 -0.0968 -0.0092
   39loPI   C1B  621   2.785   4.224  10.579 -0.2240 -0.4392 -0.0038
   39loPI   C2B  622   2.846   4.231  10.101  0.1283 -0.0644 -0.0648
   39loPI   C3B  623   2.870   4.284   9.727  0.0081 -0.3397  0.1310
   39loPI   C4B  624   2.896   4.344   9.244 -0.2283  0.0214 -0.0755
   40loPI    C1  625   9.737   7.387  10.598 -0.0513  0.0894 -0.0042
   40loPI    C2  626   9.778   7.475  10.986  0.5078  0.1237 -0.0623
   40loPI    C3  627   9.800   7.765  10.712 -0.1209  0.1348 -0.1150
   40loPI   PO4  628   9.828   7.139  10.602  0.1948  0.2350 -0.0048
   40loPI   GL1  629   9.782   6.888  10.275 -0.0449 -0.1578 -0.1772
   40loPI   GL2  630   9.767   7.186  10.107  0.1394  0.2247 -0.0391
   40loPI   C1A  631   9.807   6.748   9.793 -0.1628  0.2051 -0.0725
   40loPI   C2A  632   9.779   6.756   9.338 -0.3443 -0.1208 -0.3918
   40loPI   C3A  633   9.620   6.656   8.904  0.0382  0.2151  0.1575
   40loPI   C4A  634   9.679   6.631   8.457  0.1301 -0.0124 -0.0127
   40loPI   C5A  635   9.691   6.615   7.909  0.0321  0.0368  0.2235
   40loPI   C6A  636   9.539   6.535   7.595 -0.2860  0.0114  0.1674
   40loPI   C1B  637   9.616   7.216   9.654 -0.2547  0.1868 -0.1005
   40loPI   C2B  638   9.621   7.280   9.215  0.2500 -0.0491  0.2061
   40loPI   C3B  639   9.580   7.253   8.799 -0.2972 -0.0343  0.0879
   40loPI   C4B  640   9.608   7.203   8.340 -0.0602  0.0408 -0.1509
   41loPI    C1  641  11.891  11.387  10.285 -0.0208 -0.0807 -0.0174
   41loPI    C2  642  12.083  11.359  10.635 -0.1517 -0.1533  0.0496
   41loPI    C3  643  11.690  11.287  10.616 -0.1908  0.0797 -0.0704
   41loPI   PO4  644  11.908  11.667  10.223 -0.2987 -0.1207 -0.1482
   41loPI   GL1  645  11.649  11.814   9.928  0.0039 -0.1887 -0.0479
   41loPI   GL2  646  11.483  11.523   9.816 -0.2644  0.0989 -0.2521
   41loPI   C1A  647  11.941  11.879   9.562 -0.1228 -0.0767  0.0564
   41loPI   C2A  648  11.890  11.913   9.085  0.0899  0.1253  0.2161
   41loPI   C3A  649  11.912  11.920   8.661  0.2587 -0.0332 -0.3149
   41loPI   C4A  650  12.056  11.979   8.249 -0.1646 -0.0034  0.0619
   41loPI   C5A  651  12.364  11.967   7.858 -0.1744  0.0275 -0.0557
   41loPI   C6A  652  12.710  11.665   7.943  0.1268 -0.2613 -0.2699
   41loPI   C1B  653  11.552  11.526   9.448  0.1965  0.1486  0.0364
   41loPI   C2B  654  11.497  11.434   9.043  0.1571 -0.0439  0.0700
   41loPI   C3B  655  11.414  11.613   8.684 -0.0931  0.2104  0.1836
   41loPI   C4B  656  11.102  11.515   8.262 -0.4074  0.2324  0.2281
   42loPI    C1  657  14.331  14.405  11.146  0.1377  0.1133 -0.0480
   42loPI    C2  658  14.008  14.471  11.371  0.0383  0.1095 -0.1880
   42loPI    C3  659  14.347  14.346  11.541  0.0729  0.4571  0.0094
   42loPI   PO4  660  14.161  14.361  10.919 -0.1439 -0.0849 -0.2134
   42loPI   GL1  661  14.019  14.436  10.464 -0.1277 -0.0522 -0.2694
   42loPI   GL2  662  13.829  14.320  10.525 -0.0924  0.1631  0.2816
   42loPI   C1A  663  14.012  14.588  10.023 -0.0943 -0.3000  0.1198
   42loPI   C2A  664  13.980  14.538   9.615 -0.3111  0.1230  0.0933
   42loPI   C3A  665  14.092  14.547   9.207  0.3627  0.1742 -0.1542
   42loPI   C4A  666  14.163  14.509   8.801 -0.0222  0.2348 -0.3052
   42loPI   C5A  667  14.326  14.646   8.457  0.1097  0.1863  0.1978
   42loPI   C6A  668  14.355  14.999   8.255  0.0764  0.0125  0.2188
   42loPI   C1B  669  13.601  14.249  10.143 -0.2276  0.0640 -0.1703
   42loPI   C2B  670  13.615  14.176   9.719 -0.0836 -0.0535  0.1305
   42loPI   C3B  671  13.673  14.219   9.388  0.4594 -0.2003  0.4704
   42loPI   C4B  672  13.844  14.156   9.010  0.0808  0.0914 -0.0709
   43loPI    C1  673  17.587   7.600  11.765 -0.0024 -0.0294  0.1342
   43loPI    C2  674  17.971   7.490  11.756 -0.0126 -0.0645  0.1236
   43loPI    C3  675  17.774   7.499  12.104  0.0219  0.0379  0.1409
   43loPI   PO4  676  17.550   7.547  11.416  0.0109  0.0159  0.0649
   43loPI   GL1  677  17.618   7.454  11.038  0.0008 -0.0770  0.0635
   43loPI   GL2  678  17.453   7.088  11.114  0.0180  0.1401  0.0425
   43loPI   C1A  679  17.913   7.349  10.757  0.0881  0.0248  0.3205
   43loPI   C2A  680  17.996   7.296  10.164  0.2051 -0.1513  0.0440
   43loPI   C3A  681  18.072   7.438   9.710  0.0395  0.4335 -0.0979
   43loPI   C4A  682  18.123   7.353   9.268  0.0202 -0.3453 -0.0953
   43loPI   C5A  683  18.150   7.447   8.802 -0.2630  0.1363  0.1005
   43loPI   C6A  684  17.985   7.912   8.661 -0.0805  0.2002 -0.1137
   43loPI   C1B  685  17.465   6.994  10.756 -0.0520  0.0730 -0.1344
   43loPI   C2B  686  17.557   7.006  10.265 -0.0638 -0.2639  0.0400
   43loPI   C3B  687  17.640   7.072   9.779 -0.1066 -0.0997  0.0322
   43loPI   C4B  688  17.651   7.189   9.360 -0.2772  0.2028  0.2454
   44loPI    C1  689   8.856  13.843  11.135 -0.1210  0.0897 -0.2760
   44loPI    C2  690   9.151  13.820  11.404 -0.2360  0.0670 -0.1504
   44loPI    C3  691   8.874  13.532  11.386 -0.4791  0.2871  0.0043
   44loPI   PO4  692   8.990  13.982  10.943  0.1041 -0.0603  0.2257
   44loPI   GL1  693   8.843  14.080  10.531 -0.0096 -0.0831 -0.2128
   44loPI   GL2  694   8.614  14.284  10.536  0.2076  0.1138  0.2255
   44loPI   C1A  695   8.993  14.093  10.194 -0.0881 -0.2458  0.0554
   44loPI   C2A  696   8.950  14.105   9.825  0.0037 -0.1797 -0.0962
   44loPI   C3A  697   9.006  14.152   9.467  0.0625 -0.2781 -0.0056
   44loPI   C4A  698   9.131  14.314   9.117  0.1251  0.0679  0.2571
   44loPI   C5A  699   9.030  14.703   8.797 -0.1781 -0.0388 -0.1915
   44loPI   C6A  700   8.962  15.026   8.552  0.1481 -0.1242  0.2982
   44loPI   C1B  701   8.499  14.301  10.082  0.5222 -0.1020  0.0409
   44loPI   C2B  702   8.522  14.313   9.646 -0.1720  0.2520  0.1468
   44loPI   C3B  703   8.570  14.283   9.197 -0.2377 -0.1284 -0.0570
   44loPI   C4B  704   8.425  14.307   8.805  0.0863 -0.1940 -0.1055
   45loPI    C1  705   7.780  13.730  11.239  0.1248 -0.1480 -0.0259
   45loPI    C2  706   7.887  13.363  11.358 -0.1134 -0.2243 -0.0422
   45loPI    C3  707   7.505  13.442  11.269 -0.0505  0.0076 -0.1157
   45loPI   PO4  708   7.904  13.786  10.977  0.0588 -0.0776  0.2299
   45loPI   GL1  709   7.740  13.976  10.589 -0.2416  0.0743  0.0152
   45loPI   GL2  710   7.921  13.642  10.467  0.0977  0.0945  0.2510
   45loPI   C1A  711   7.672  14.110  10.171 -0.1011  0.0426  0.1801
   45loPI   C2A  712   7.645  14.069   9.737  0.2435 -0.1437 -0.4502
   45loPI   C3A  713   7.699  14.109   9.376  0.2261  0.2685  0.1645
   45loPI   C4A  714   7.618  14.137   9.040  0.0671 -0.0488  0.0097
   45loPI   C5A  715   7.481  14.027   8.608 -0.0277  0.1200 -0.1162
   45loPI   C6A  716   7.495  13.650   8.301 -0.0714  0.0840 -0.0793
   45loPI   C1B  717   7.782  13.630  10.034 -0.3106 -0.0864  0.3365
   45loPI   C2B  718   7.775  13.555   9.621 -0.0582 -0.2852 -0.0688
   45loPI   C3B  719   7.704  13.615   9.238 -0.2405 -0.0546  0.0708
   45loPI   C4B  720   7.661  13.585   8.762 -0.1787 -0.2232  0.1835
   46loPI    C1  721   0.251  14.386  11.159  0.0436 -0.1812  0.0837
   46loPI    C2  722   0.230  14.426  11.556 -0.0943  0.0022  0.0593
   46loPI    C3  723   0.238  14.062  11.392 -0.1573 -0.0745  0.2242
   46loPI   PO4  724   0.039  14.570  11.062  0.4380 -0.1079 -0.2337
   46loPI   GL1  725  -0.044  14.664  10.687  0.0525 -0.1109 -0.1129
   46loPI   GL2  726  -0.353  14.738  10.853 -0.1123  0.0370 -0.0027
   46loPI   C1A  727   0.213  14.742  10.341  0.1450 -0.2070 -0.1007
   46loPI   C2A  728   0.278  14.714   9.955  0.3041  0.0687  0.2354
   46loPI   C3A  729   0.145  14.671   9.543  0.2686 -0.1286  0.0428
   46loPI   C4A  730   0.198  14.637   9.125 -0.1021  0.0639  0.1999
   46loPI   C5A  731   0.039  14.787   8.803  0.0679  0.0155  0.1934
   46loPI   C6A  732  -0.176  15.071   8.583 -0.0113  0.2635  0.2116
   46loPI   C1B  733  -0.428  14.878  10.418 -0.0045 -0.0486 -0.1863
   46loPI   C2B  734  -0.440  14.905   9.990  0.2355 -0.2522 -0.1660
   46loPI   C3B  735  -0.432  14.883   9.569  0.1751  0.2355  0.0728
   46loPI   C4B  736  -0.404  14.771   9.144  0.0663 -0.1535  0.0018
   47loPI    C1  737   1.410  14.241  11.601 -0.2235 -0.1407  0.3980
   47loPI    C2  738   1.748  14.422  11.717 -0.1526 -0.0479  0.0601
   47loPI    C3  739   1.692  14.033  11.794  0.0467 -0.0723  0.0870
   47loPI   PO4  740   1.456  14.391  11.291  0.2955 -0.0492 -0.2158
   47loPI   GL1  741   1.326  14.237  10.910  0.0205  0.0260  0.4742
   47loPI   GL2  742   1.602  14.153  10.812 -0.2646 -0.1884  0.1813
   47loPI   C1A  743   1.151  14.391  10.533  0.1522 -0.2310 -0.2692
   47loPI   C2A  744   1.131  14.391  10.132  0.1317  0.0276 -0.3293
   47loPI   C3A  745   1.148  14.318   9.763 -0.0008 -0.0325  0.1256
   47loPI   C4A  746   1.104  14.356   9.357  0.2309  0.1178  0.1297
   47loPI   C5A  747   1.138  14.135   8.980  0.3180 -0.0580 -0.0433
   47loPI   C6A  748   1.428  14.020   8.659  0.0462  0.0913 -0.2329
   47loPI   C1B  749   1.693  14.222  10.457  0.3696  0.0034 -0.0571
   47loPI   C2B  750   1.650  14.236   9.962 -0.0539 -0.2485 -0.0016
   47loPI   C3B  751   1.633  14.201   9.533 -0.1455  0.0030 -0.3584
   47loPI   C4B  752   1.559  14.184   9.172 -0.0881 -0.1764 -0.3149
   48loPI    C1  753  11.398   1.536  10.996 -0.0625  0.0550  0.0840
   48loPI    C2  754  11.440   1.414  11.374 -0.2675 -0.0881  0.0624
   48loPI    C3  755  11.388   1.803  11.294  0.0885 -0.0176  0.1551
   48loPI   PO4  756  11.171   1.443  10.871 -0.1979  0.0541  0.2761
   48loPI   GL1  757  11.065   1.535  10.425  0.1623  0.0681 -0.0885
   48loPI   GL2  758  10.891   1.759  10.418 -0.0207  0.0516 -0.0877
   48loPI   C1A  759  11.289   1.576   9.986 -0.1462  0.0623 -0.0601
   48loPI   C2A  760  11.269   1.574   9.519 -0.3636  0.0646 -0.1147
   48loPI   C3A  761  11.160   1.526   9.126  0.0969  0.0410 -0.0277
   48loPI   C4A  762  11.109   1.588   8.759 -0.1001  0.0835  0.1606
   48loPI   C5A  763  11.462   1.661   8.445  0.1144  0.0799 -0.1055
   48loPI   C6A  764  11.801   1.992   8.496  0.2773  0.1759 -0.0514
   48loPI   C1B  765  10.809   1.646   9.988  0.2266 -0.1093  0.0507
   48loPI   C2B  766  10.702   1.732   9.521 -0.2306 -0.0783 -0.1290
   48loPI   C3B  767  10.679   1.666   9.038 -0.0766  0.0953  0.1309
   48loPI   C4B  768  10.597   1.550   8.559 -0.1002  0.1180  0.0149
   49loPI    C1  769   6.470   1.981  11.349 -0.0111  0.0627  0.2642
   49loPI    C2  770   6.579   1.621  11.487  0.2280  0.0024 -0.0674
   49loPI    C3  771   6.856   1.902  11.421  0.0665  0.1764 -0.0128
   49loPI   PO4  772   6.371   2.037  11.122 -0.0615  0.2377  0.0025
   49loPI   GL1  773   6.349   2.157  10.833  0.0130 -0.0517 -0.0933
   49loPI   GL2  774   6.567   2.410  10.753  0.2327 -0.0238  0.0382
   49loPI   C1A  775   6.595   2.048  10.415 -0.1451  0.0323 -0.0262
   49loPI   C2A  776   6.612   2.147   9.979  0.0593 -0.0003 -0.0670
   49loPI   C3A  777   6.504   2.112   9.501 -0.0080  0.0322  0.0581
   49loPI   C4A  778   6.438   2.169   9.087 -0.0053  0.0734 -0.0644
   49loPI   C5A  779   6.324   2.240   8.675  0.0239  0.3120  0.0556
   49loPI   C6A  780   6.410   2.472   8.399 -0.2044  0.3241  0.2482
   49loPI   C1B  781   6.464   2.508  10.300  0.0043  0.2300 -0.1353
   49loPI   C2B  782   6.496   2.645   9.863 -0.0849  0.2557  0.0612
   49loPI   C3B  783   6.434   2.638   9.391 -0.0097  0.1581 -0.2610
   49loPI   C4B  784   6.331   2.641   8.903  0.0928  0.2562  0.0585
   50loPI    C1  785  13.899   4.593  11.291 -0.0883  0.0079 -0.0332
   50loPI    C2  786  13.871   4.742  11.661  0.0173 -0.1163  0.0259
   50loPI    C3  787  13.655   4.421  11.558 -0.0663 -0.0387 -0.0429
   50loPI   PO4  788  14.028   4.465  11.113 -0.2063  0.2473  0.0354
   50loPI   GL1  789  14.042   4.685  10.707  0.0560 -0.0416 -0.0503
   50loPI   GL2  790  14.344   4.778  10.469 -0.2300  0.0580 -0.1048
   50loPI   C1A  791  13.846   4.439  10.464  0.1732 -0.2172 -0.1410
   50loPI   C2A  792  13.835   4.425  10.085 -0.2078 -0.0555 -0.0597
   50loPI   C3A  793  14.005   4.493   9.660  0.0832 -0.1666  0.0513
   50loPI   C4A  794  13.949   4.432   9.215  0.1129  0.2661 -0.0212
   50loPI   C5A  795  13.949   4.599   8.805 -0.0554  0.2484  0.3725
   50loPI   C6A  796  14.185   4.493   8.441  0.0334  0.0113  0.1053
   50loPI   C1B  797  14.276   4.783  10.035 -0.0558  0.2345 -0.0184
   50loPI   C2B  798  14.386   4.779   9.592 -0.1106 -0.0839 -0.1730
   50loPI   C3B  799  14.307   4.777   9.151  0.2154 -0.1951  0.1213
   50loPI   C4B  800  14.402   4.885   8.746 -0.1540  0.2814 -0.0235
   51loPI    C1  801   9.441  14.932  11.324 -0.1110 -0.0189  0.1577
   51loPI    C2  802   9.220  15.149  11.578  0.0829  0.4076 -0.0275
   51loPI    C3  803   9.595  15.047  11.674 -0.0800 -0.0468  0.1532
   51loPI   PO4  804   9.271  14.759  11.179  0.2075 -0.1035 -0.2330
   51loPI   GL1  805   9.521  14.502  10.836  0.4382 -0.0829  0.0703
   51loPI   GL2  806   9.367  14.254  10.702 -0.0584 -0.1091 -0.1638
   51loPI   C1A  807   9.581  14.708  10.356 -0.0907  0.0859 -0.1547
   51loPI   C2A  808   9.545  14.677  10.010  0.0192 -0.0888 -0.1068
   51loPI   C3A  809   9.398  14.603   9.663 -0.1416  0.2169  0.0726
   51loPI   C4A  810   9.550  14.539   9.280  0.2646  0.1243 -0.2756
   51loPI   C5A  811   9.536  14.515   8.871  0.0412  0.1063 -0.0340
   51loPI   C6A  812   9.399  14.613   8.533 -0.1500 -0.2772  0.2399
   51loPI   C1B  813   9.443  14.211  10.357 -0.2225 -0.0016 -0.0273
   51loPI   C2B  814   9.427  14.174   9.902  0.1739 -0.0731  0.1135
   51loPI   C3B  815   9.542  14.076   9.561 -0.1235 -0.0130  0.0804
   51loPI   C4B  816   9.563  14.048   9.185 -0.1481  0.1960  0.0799
   52loPI    C1  817   7.613   1.122  11.655 -0.2447  0.0296 -0.0568
   52loPI    C2  818   7.652   1.484  11.820 -0.0140 -0.0568  0.0825
   52loPI    C3  819   7.546   1.172  12.046 -0.0750 -0.1035 -0.0101
   52loPI   PO4  820   7.842   1.157  11.424  0.2755  0.0646  0.2252
   52loPI   GL1  821   7.949   1.215  10.967 -0.1483 -0.3107 -0.1680
   52loPI   GL2  822   7.675   0.967  10.941  0.2689  0.3130  0.3692
   52loPI   C1A  823   7.703   1.233  10.532  0.0192 -0.0158 -0.2336
   52loPI   C2A  824   7.549   1.283  10.077  0.3037 -0.2416 -0.0713
   52loPI   C3A  825   7.601   1.266   9.606 -0.2332 -0.1606 -0.1273
   52loPI   C4A  826   7.494   1.352   9.113 -0.0061 -0.3491 -0.2691
   52loPI   C5A  827   7.383   1.478   8.736  0.0521 -0.2266 -0.1512
   52loPI   C6A  828   7.141   1.472   8.369 -0.3175 -0.0593  0.0577
   52loPI   C1B  829   7.344   0.855  10.666 -0.1930  0.0689  0.0852
   52loPI   C2B  830   7.263   0.838  10.286 -0.1039 -0.0179  0.1430
   52loPI   C3B  831   7.205   0.946   9.829  0.0604  0.0243  0.0201
   52loPI   C4B  832   7.231   0.932   9.316 -0.4890  0.1468  0.2218
   53loPI    C1  833  17.390  13.553  11.573  0.0072 -0.2768  0.1993
   53loPI    C2  834  17.238  13.680  11.921 -0.2268 -0.1424  0.0510
   53loPI    C3  835  17.076  13.365  11.735 -0.0576 -0.2579  0.0968
   53loPI   PO4  836  17.390  13.807  11.416  0.0822 -0.3818 -0.0149
   53loPI   GL1  837  17.192  13.936  11.006  0.0341  0.1566 -0.1706
   53loPI   GL2  838  16.913  14.099  10.823 -0.0062 -0.0339 -0.1941
   53loPI   C1A  839  17.360  13.797  10.626  0.0041  0.0713  0.1302
   53loPI   C2A  840  17.470  13.802  10.207  0.1532  0.0064 -0.1307
   53loPI   C3A  841  17.479  13.840   9.758  0.0156  0.0507  0.0116
   53loPI   C4A  842  17.497  13.771   9.343 -0.0354  0.0156  0.1843
   53loPI   C5A  843  17.416  13.835   8.833  0.1606 -0.1913  0.0030
   53loPI   C6A  844  16.986  13.905   8.782  0.0467  0.1205  0.2197
   53loPI   C1B  845  16.879  14.052  10.476  0.1978  0.1735 -0.0730
   53loPI   C2B  846  16.957  13.971  10.126  0.2337 -0.0251  0.0089
   53loPI   C3B  847  16.990  14.013   9.726  0.1651 -0.0106 -0.0501
   53loPI   C4B  848  17.014  13.973   9.254  0.0473  0.1702 -0.2833
   54loPI    C1  849  16.735  14.540  11.439 -0.2770  0.1675 -0.0803
   54loPI    C2  850  17.057  14.657  11.644 -0.2266  0.2776 -0.2206
   54loPI    C3  851  16.730  14.536  11.839 -0.1039  0.1719 -0.0774
   54loPI   PO4  852  16.913  14.479  11.151  0.1127  0.0519 -0.0059
   54loPI   GL1  853  16.705  14.680  10.769  0.2125 -0.1315 -0.0923
   54loPI   GL2  854  16.908  14.538  10.609 -0.2731 -0.3626  0.1023
   54loPI   C1A  855  16.438  14.702  10.399  0.2063 -0.1723 -0.1820
   54loPI   C2A  856  16.260  14.710  10.013  0.0852  0.0672 -0.3954
   54loPI   C3A  857  16.394  14.697   9.683  0.3018  0.1657  0.0129
   54loPI   C4A  858  16.498  14.753   9.229  0.3155  0.3369  0.1777
   54loPI   C5A  859  16.424  14.651   8.792  0.0465 -0.1071  0.1873
   54loPI   C6A  860  16.207  14.549   8.459  0.0785  0.1369 -0.0593
   54loPI   C1B  861  16.839  14.599  10.212  0.0184 -0.1023  0.3647
   54loPI   C2B  862  16.784  14.476   9.784 -0.0833 -0.0900 -0.1381
   54loPI   C3B  863  16.914  14.505   9.394  0.0385  0.0922 -0.0210
   54loPI   C4B  864  16.892  14.432   8.936  0.1073 -0.0854  0.1922
   55loPI    C1  865   3.069  16.149  11.544 -0.0440 -0.1227  0.0106
   55loPI    C2  866   2.905  16.388  11.819 -0.0668 -0.2408  0.1009
   55loPI    C3  867   2.675  16.136  11.610 -0.0521 -0.1383 -0.0405
   55loPI   PO4  868   3.234  16.312  11.432 -0.0217 -0.0190  0.1494
   55loPI   GL1  869   3.388  16.511  11.080 -0.3563  0.1928  0.2919
   55loPI   GL2  870   3.102  16.378  10.970 -0.3585 -0.1422  0.1224
   55loPI   C1A  871   3.573  16.547  10.669  0.0625 -0.2971 -0.0712
   55loPI   C2A  872   3.458  16.449  10.350  0.2522  0.1132  0.1121
   55loPI   C3A  873   3.460  16.376   9.919 -0.2158 -0.2217  0.1133
   55loPI   C4A  874   3.494  16.388   9.498 -0.3342  0.1425  0.1377
   55loPI   C5A  875   3.575  16.347   9.136 -0.4141 -0.0306  0.0859
   55loPI   C6A  876   3.597  16.336   8.687 -0.3338 -0.0980  0.0798
   55loPI   C1B  877   3.128  16.178  10.610  0.0080 -0.1717  0.0024
   55loPI   C2B  878   3.117  16.140  10.145 -0.0156 -0.2152 -0.1448
   55loPI   C3B  879   3.094  16.115   9.702  0.0544 -0.1686  0.1109
   55loPI   C4B  880   3.109  15.936   9.258  0.0300  0.0202 -0.2048
   56loPI    C1  881  13.631   0.282  11.031  0.2746  0.1310 -0.1831
   56loPI    C2  882  13.657  -0.027  11.282  0.1448  0.1418 -0.1558
   56loPI    C3  883  13.712   0.345  11.418  0.2309  0.1363 -0.1749
   56loPI   PO4  884  13.756   0.251  10.838  0.1079  0.1876 -0.1072
   56loPI   GL1  885  13.619  -0.009  10.444 -0.0838  0.2258 -0.0272
   56loPI   GL2  886  13.465  -0.151  10.322  0.1603  0.0514 -0.0176
   56loPI   C1A  887  13.860   0.146  10.108  0.1561 -0.1916 -0.0356
   56loPI   C2A  888  13.921   0.268   9.655  0.1767  0.1817  0.3448
   56loPI   C3A  889  13.918   0.273   9.209 -0.2995  0.0692 -0.1828
   56loPI   C4A  890  13.871   0.172   8.782 -0.0019 -0.1341 -0.0440
   56loPI   C5A  891  13.772   0.270   8.321  0.4942 -0.0634 -0.2184
   56loPI   C6A  892  13.796   0.567   7.973  0.1102  0.2085  0.2685
   56loPI   C1B  893  13.435  -0.155   9.853 -0.0861  0.1067 -0.1419
   56loPI   C2B  894  13.563  -0.044   9.441 -0.1597  0.2327  0.0607
   56loPI   C3B  895  13.580  -0.199   8.946  0.3538 -0.0640 -0.0243
   56loPI   C4B  896  13.523  -0.111   8.545  0.0311 -0.0465  0.1846
   57loPI    C1  897   0.667  13.119  11.668 -0.0367  0.0689  0.0831
   57loPI    C2  898   0.923  13.392  11.808  0.3481 -0.1831 -0.1104
   57loPI    C3  899   0.941  13.015  11.941 -0.0294 -0.1707 -0.0125
   57loPI   PO4  900   0.629  13.213  11.386 -0.1275 -0.3185 -0.0758
   57loPI   GL1  901   0.699  13.172  10.939  0.2486 -0.0121 -0.1637
   57loPI   GL2  902   1.021  13.130  10.903 -0.0206 -0.1750 -0.0604
   57loPI   C1A  903   0.511  13.115  10.585 -0.0898 -0.0157 -0.1088
   57loPI   C2A  904   0.421  13.140  10.260 -0.1279  0.1571 -0.1252
   57loPI   C3A  905   0.588  13.199   9.841  0.2370 -0.1857 -0.0843
   57loPI   C4A  906   0.451  13.157   9.459  0.0237 -0.0622  0.1500
   57loPI   C5A  907   0.505  13.081   9.115  0.1637 -0.1448  0.1159
   57loPI   C6A  908   0.284  13.215   8.727 -0.2793  0.1481 -0.2415
   57loPI   C1B  909   0.992  12.966  10.477  0.1700  0.0152 -0.1179
   57loPI   C2B  910   0.955  12.962  10.070  0.0571  0.1494 -0.1211
   57loPI   C3B  911   0.957  12.975   9.596 -0.0817 -0.1077 -0.0861
   57loPI   C4B  912   0.971  12.820   9.084  0.3625 -0.1965  0.1872
   58loPI    C1  913  15.426   7.734  10.954 -0.0025 -0.0545 -0.0532
   58loPI    C2  914  15.365   8.010  11.237  0.2444 -0.1760  0.1223
   58loPI    C3  915  15.167   7.663  11.250 -0.0621 -0.0141 -0.0953
   58loPI   PO4  916  15.406   7.871  10.735  0.0372 -0.0781  0.0418
   58loPI   GL1  917  15.265   7.844  10.429  0.0294  0.0130  0.0786
   58loPI   GL2  918  15.003   7.856  10.314  0.0709 -0.2058  0.2332
   58loPI   C1A  919  15.631   7.681  10.193  0.2519  0.0636  0.0823
   58loPI   C2A  920  15.661   7.692   9.761  0.2084  0.3481 -0.0636
   58loPI   C3A  921  15.664   7.806   9.305  0.2110  0.0312  0.0608
   58loPI   C4A  922  15.676   7.742   8.959 -0.0249  0.0426  0.0453
   58loPI   C5A  923  15.511   7.838   8.491 -0.1258 -0.2197  0.1684
   58loPI   C6A  924  15.535   7.878   8.026  0.0392 -0.0371 -0.0685
   58loPI   C1B  925  15.105   7.869   9.876  0.1572 -0.1485 -0.0163
   58loPI   C2B  926  15.143   7.822   9.572  0.2470 -0.0764  0.2516
   58loPI   C3B  927  15.113   7.958   9.242 -0.1704 -0.0224  0.0814
   58loPI   C4B  928  15.205   8.061   8.819  0.1053 -0.0884 -0.2524
   59loPI    C1  929  13.332  14.738  11.137  0.1371 -0.0159  0.0446
   59loPI    C2  930  13.384  15.120  11.245 -0.1656  0.0480 -0.0259
   59loPI    C3  931  13.204  14.864  11.495 -0.0220 -0.0336 -0.0051
   59loPI   PO4  932  13.528  14.761  10.927 -0.1143 -0.1173  0.1691
   59loPI   GL1  933  13.525  14.786  10.582 -0.0154  0.2080 -0.1850
   59loPI   GL2  934  13.150  14.763  10.534  0.0315 -0.1147 -0.0108
   59loPI   C1A  935  13.502  14.738  10.162  0.3644  0.0723 -0.1559
   59loPI   C2A  936  13.542  14.723   9.812  0.1260 -0.2308  0.0640
   59loPI   C3A  937  13.534  14.705   9.366  0.2277  0.0626 -0.1437
   59loPI   C4A  938  13.677  14.672   8.916  0.0025  0.1275 -0.1215
   59loPI   C5A  939  13.689  14.453   8.556 -0.0089  0.1891  0.0690
   59loPI   C6A  940  13.947  14.139   8.510  0.2534 -0.6078 -0.0098
   59loPI   C1B  941  12.991  14.884  10.183 -0.1243 -0.2280 -0.0000
   59loPI   C2B  942  12.998  14.902   9.762 -0.1321  0.0711 -0.0711
   59loPI   C3B  943  13.018  14.890   9.314 -0.2302 -0.1072  0.0490
   59loPI   C4B  944  13.237  14.830   8.962  0.1355 -0.1528  0.0054
   60loPI    C1  945  10.949   5.935  10.298 -0.0933  0.1140 -0.1655
   60loPI    C2  946  10.843   5.930  10.684 -0.0229  0.2375 -0.1440
   60loPI    C3  947  10.899   5.586  10.487 -0.0000  0.1742 -0.0280
   60loPI   PO4  948  10.784   6.128  10.179  0.4516 -0.1254  0.2644
   60loPI   GL1  949  10.853   6.014   9.737  0.1086  0.0747 -0.1623
   60loPI   GL2  950  11.159   6.080   9.856  0.0467 -0.0531  0.0262
   60loPI   C1A  951  10.901   5.928   9.280 -0.1604 -0.0140 -0.0346
   60loPI   C2A  952  10.897   5.834   8.885 -0.1376  0.0444 -0.2387
   60loPI   C3A  953  10.896   5.986   8.528  0.0853  0.1274 -0.0359
   60loPI   C4A  954  10.841   5.838   8.192 -0.4466  0.0294  0.2948
   60loPI   C5A  955  10.764   5.391   8.022  0.2107 -0.1276  0.0727
   60loPI   C6A  956  10.927   4.996   7.981 -0.2448 -0.3655 -0.0270
   60loPI   C1B  957  11.397   5.881   9.622  0.0315  0.2425  0.0763
   60loPI   C2B  958  11.374   5.721   9.202 -0.3313  0.1258  0.0351
   60loPI   C3B  959  11.377   5.754   8.720  0.0877 -0.0252  0.3685
   60loPI   C4B  960  11.450   5.892   8.312 -0.1005  0.0125 -0.1046
   61loPI    C1  961   7.029   7.504  10.656 -0.0574  0.1020 -0.0821
   61loPI    C2  962   7.109   7.718  10.984  0.0501 -0.0261 -0.0237
   61loPI    C3  963   6.808   7.455  10.986 -0.0840  0.1254 -0.0965
   61loPI   PO4  964   7.155   7.675  10.463  0.0516 -0.1342 -0.2184
   61loPI   GL1  965   7.187   7.597  10.084  0.0451  0.1633 -0.0968
   61loPI   GL2  966   6.886   7.364  10.179  0.1350 -0.1010 -0.0483
   61loPI   C1A  967   7.028   7.500   9.654  0.0724 -0.1764 -0.2107
   61loPI   C2A  968   7.171   7.580   9.254  0.2013 -0.0794  0.0020
   61loPI   C3A  969   7.267   7.515   8.868  0.1648 -0.1899  0.1294
   61loPI   C4A  970   7.325   7.663   8.413 -0.2454 -0.0468  0.1094
   61loPI   C5A  971   7.256   7.866   8.075 -0.2023 -0.0746  0.0397
   61loPI   C6A  972   7.251   8.319   8.028 -0.0090  0.2538 -0.0272
   61loPI   C1B  973   6.699   7.225   9.803  0.0140 -0.3136  0.1285
   61loPI   C2B  974   6.782   7.240   9.277  0.2420  0.0774 -0.0912
   61loPI   C3B  975   6.816   7.188   8.811  0.0303  0.1284  0.1026
   61loPI   C4B  976   7.233   7.167   8.478  0.1973  0.0435  0.1536
   62loPI    C1  977   2.812   8.648  11.753 -0.0709  0.0964 -0.1194
   62loPI    C2  978   2.602   8.960  11.890  0.0072  0.0367  0.1408
   62loPI    C3  979   2.985   8.916  11.994  0.1519  0.1407 -0.3248
   62loPI   PO4  980   2.893   8.730  11.446  0.1150 -0.1552  0.2124
   62loPI   GL1  981   2.724   8.804  11.026  0.4997 -0.3490  0.0613
   62loPI   GL2  982   2.624   8.952  10.842 -0.1189 -0.0528 -0.2274
   62loPI   C1A  983   2.806   8.497  10.654 -0.0647  0.2826 -0.2874
   62loPI   C2A  984   2.896   8.400  10.097 -0.1522  0.1769 -0.0225
   62loPI   C3A  985   2.947   8.528   9.647  0.0649 -0.1094  0.1336
   62loPI   C4A  986   2.913   8.546   9.229  0.1098 -0.0767  0.0551
   62loPI   C5A  987   2.667   8.745   8.873  0.1985  0.0747  0.2431
   62loPI   C6A  988   2.332   8.892   8.514  0.1187 -0.0248  0.2493
   62loPI   C1B  989   2.800   8.916  10.391  0.0909  0.1167 -0.0496
   62loPI   C2B  990   2.791   8.916  10.011 -0.0613  0.1640 -0.0108
   62loPI   C3B  991   2.892   9.050   9.629  0.3122  0.1356 -0.2396
   62loPI   C4B  992   2.780   9.220   9.226 -0.0530 -0.0548  0.0820
   63loPI    C1  993   5.227  17.186  11.867  0.1499 -0.2732 -0.2725
   63loPI    C2  994   5.502  16.982  12.074  0.1074 -0.2121 -0.1550
   63loPI    C3  995   5.133  17.028  12.222  0.1525  0.0571 -0.1208
   63loPI   PO4  996   5.302  17.103  11.662 -0.3833  0.0011 -0.0262
   63loPI   GL1  997   5.084  17.019  11.304  0.3205 -0.0656 -0.2570
   63loPI   GL2  998   5.151  16.885  11.162 -0.1793 -0.2159 -0.4264
   63loPI   C1A  999   4.849  17.152  10.898  0.1308  0.1280  0.0613
   63loPI   C2A 1000   4.724  17.055  10.447 -0.0363 -0.2844 -0.1243
   63loPI   C3A 1001   4.726  16.973  10.073  0.1634  0.0936  0.2906
   63loPI   C4A 1002   4.832  17.027   9.656  0.2376  0.4207 -0.1097
   63loPI   C5A 1003   4.794  16.991   9.204  0.1948 -0.1390  0.0534
   63loPI   C6A 1004   4.625  16.898   8.751  0.1843 -0.0817 -0.1140
   63loPI   C1B 1005   5.146  16.814  10.631 -0.1639 -0.0975 -0.1648
   63loPI   C2B 1006   5.221  16.796  10.265 -0.0968 -0.1859  0.0228
   63loPI   C3B 1007   5.245  16.798   9.875  0.3012  0.0209 -0.0247
   63loPI   C4B 1008   5.252  16.792   9.395  0.1641 -0.1163  0.2922
   64loPI    C1 1009  13.732   9.065  11.030  0.0195  0.4320  0.4030
   64loPI    C2 1010  13.639   8.681  11.093  0.2874  0.2685 -0.1361
   64loPI    C3 1011  13.612   8.945  11.392 -0.1417 -0.1160  0.1786
   64loPI   PO4 1012  14.063   8.983  10.829  0.1417 -0.3299  0.1634
   64loPI   GL1 1013  14.117   9.191  10.514  0.0510  0.1480  0.0624
   64loPI   GL2 1014  14.057   8.983  10.309 -0.0060  0.3849  0.1404
   64loPI   C1A 1015  14.511   9.177  10.167  0.1235  0.0931 -0.1234
   64loPI   C2A 1016  14.519   9.158   9.818 -0.1458 -0.1189  0.0598
   64loPI   C3A 1017  14.380   9.207   9.367  0.0045  0.0019 -0.0363
   64loPI   C4A 1018  14.428   9.115   9.029  0.3466  0.4220 -0.0917
   64loPI   C5A 1019  14.552   9.234   8.761 -0.0990 -0.0123  0.0970
   64loPI   C6A 1020  14.775   9.123   8.372 -0.0821  0.2553  0.0521
   64loPI   C1B 1021  14.003   9.042   9.890  0.1366 -0.0300 -0.2555
   64loPI   C2B 1022  13.945   9.067   9.486 -0.4092 -0.0728 -0.0260
   64loPI   C3B 1023  13.843   9.331   9.204 -0.0043  0.0523 -0.0600
   64loPI   C4B 1024  14.037   9.357   8.828  0.0586 -0.1169  0.2519
   65loPI    C1 1025   4.548   8.987  11.503 -0.3744 -0.0175 -0.1734
   65loPI    C2 1026   4.699   8.737  11.230 -0.0436 -0.1339  0.1087
   65loPI    C3 1027   4.942   8.919  11.492 -0.3339  0.1270  0.2028
   65loPI   PO4 1028   4.268   8.986  11.295 -0.3066  0.1255  0.0213
   65loPI   GL1 1029   4.353   8.864  10.930 -0.2365 -0.3021  0.3406
   65loPI   GL2 1030   4.022   8.872  10.879 -0.1955  0.0285  0.0558
   65loPI   C1A 1031   4.680   8.903  10.560 -0.0681 -0.1825  0.1782
   65loPI   C2A 1032   4.703   8.848  10.098  0.0587 -0.1177 -0.0894
   65loPI   C3A 1033   4.695   8.830   9.741 -0.3396 -0.1412 -0.0523
   65loPI   C4A 1034   4.657   8.863   9.344 -0.0694  0.3811 -0.2108
   65loPI   C5A 1035   4.514   8.910   8.960 -0.0711  0.1863 -0.0026
   65loPI   C6A 1036   4.536   8.794   8.558 -0.0085  0.2033  0.0627
   65loPI   C1B 1037   4.127   9.045  10.546 -0.3040 -0.3336 -0.3221
   65loPI   C2B 1038   4.216   8.971  10.123 -0.1710 -0.0512 -0.1202
   65loPI   C3B 1039   4.189   9.129   9.703 -0.2380  0.2462 -0.0042
   65loPI   C4B 1040   4.091   9.118   9.195 -0.0826 -0.1407 -0.0186
   66loPI    C1 1041   1.763  10.360  11.584 -0.2187  0.2601 -0.0437
   66loPI    C2 1042   1.912  10.707  11.716 -0.1032  0.1621  0.0869
   66loPI    C3 1043   1.886  10.393  11.964  0.0926 -0.0171 -0.1153
   66loPI   PO4 1044   1.875  10.407  11.289  0.0065 -0.2987 -0.1056
   66loPI   GL1 1045   1.757  10.666  10.921 -0.1924 -0.2238  0.1785
   66loPI   GL2 1046   1.500  10.466  10.906 -0.1213 -0.0227 -0.0159
   66loPI   C1A 1047   1.719  10.442  10.462 -0.2278 -0.0565  0.0462
   66loPI   C2A 1048   1.558  10.254  10.192 -0.0589  0.0620 -0.1523
   66loPI   C3A 1049   1.593  10.316   9.839 -0.1394 -0.1412  0.0185
   66loPI   C4A 1050   1.554  10.384   9.417  0.2888  0.3529 -0.0658
   66loPI   C5A 1051   1.856  10.407   9.050 -0.1691 -0.2725  0.3514
   66loPI   C6A 1052   1.830  10.779   8.845 -0.1681  0.2232  0.0897
   66loPI   C1B 1053   1.234  10.564  10.541  0.0890  0.2085  0.0213
   66loPI   C2B 1054   1.113  10.456  10.124  0.2517  0.3320 -0.0987
   66loPI   C3B 1055   1.133  10.420   9.704 -0.1270 -0.1647  0.2337
   66loPI   C4B 1056   1.040  10.606   9.344  0.2796 -0.1769 -0.0342
   67loPI    C1 1057  12.657   1.828  11.069  0.0988  0.1089 -0.2461
   67loPI    C2 1058  12.430   2.019  11.337 -0.1108 -0.2109 -0.1898
   67loPI    C3 1059  12.724   1.776  11.460  0.0871 -0.0101 -0.2592
   67loPI   PO4 1060  12.717   1.975  10.907  0.0270  0.0534  0.3265
   67loPI   GL1 1061  12.981   1.856  10.577  0.3093  0.4419  0.0432
   67loPI   GL2 1062  12.662   1.649  10.520 -0.1019 -0.0024  0.0167
   67loPI   C1A 1063  12.981   1.924  10.135  0.2728 -0.0953 -0.0419
   67loPI   C2A 1064  13.049   1.973   9.724  0.0545 -0.2038  0.0251
   67loPI   C3A 1065  13.018   1.918   9.289  0.1906 -0.4195 -0.1138
   67loPI   C4A 1066  13.007   1.853   8.850  0.0765  0.0010 -0.0211
   67loPI   C5A 1067  12.986   1.690   8.423 -0.0941 -0.4000  0.0089
   67loPI   C6A 1068  12.945   1.364   8.097 -0.3338  0.3522  0.0101
   67loPI   C1B 1069  12.592   1.537  10.127  0.2373  0.1906  0.1893
   67loPI   C2B 1070  12.647   1.569   9.651 -0.0125  0.0199  0.1163
   67loPI   C3B 1071  12.628   1.551   9.260  0.0042 -0.0791 -0.0091
   67loPI   C4B 1072  12.649   1.527   8.838  0.1278 -0.1890 -0.2786
   68loPI    C1 1073   7.648  17.129  11.400  0.0956 -0.1671 -0.1450
   68loPI    C2 1074   7.969  16.994  11.598  0.0736 -0.1942 -0.1277
   68loPI    C3 1075   7.934  17.384  11.515  0.1365 -0.1989 -0.1761
   68loPI   PO4 1076   7.619  16.938  11.224  0.1930 -0.3165 -0.1296
   68loPI   GL1 1077   7.753  17.173  10.805  0.0223 -0.1660 -0.1185
   68loPI   GL2 1078   7.500  16.962  10.756 -0.4478  0.1736  0.1752
   68loPI   C1A 1079   7.995  17.275  10.387  0.0962 -0.3089  0.0031
   68loPI   C2A 1080   7.956  17.349  10.014  0.2683  0.0117  0.2766
   68loPI   C3A 1081   7.899  17.351   9.641  0.2030 -0.2377  0.0380
   68loPI   C4A 1082   7.881  17.413   9.199 -0.1755  0.2502 -0.0663
   68loPI   C5A 1083   7.919  17.587   8.788  0.0605  0.2982 -0.1747
   68loPI   C6A 1084   8.216  17.526   8.459  0.0424  0.3636  0.0375
   68loPI   C1B 1085   7.492  17.031  10.305  0.2588  0.0091  0.0315
   68loPI   C2B 1086   7.587  17.022   9.920 -0.1584 -0.0438 -0.1950
   68loPI   C3B 1087   7.555  17.029   9.491 -0.4876 -0.1207  0.1046
   68loPI   C4B 1088   7.627  17.019   8.978  0.0031 -0.1918  0.0558
   69loPI    C1 1089   6.939   4.322  11.373  0.3587  0.1058 -0.2144
   69loPI    C2 1090   6.933   4.181  11.747  0.1730  0.0212 -0.2487
   69loPI    C3 1091   7.282   4.234  11.560  0.2624 -0.0216 -0.0959
   69loPI   PO4 1092   6.784   4.569  11.315 -0.0787 -0.0752 -0.0030
   69loPI   GL1 1093   6.688   4.629  10.907 -0.1939  0.2100  0.0115
   69loPI   GL2 1094   6.957   4.786  10.932 -0.0743  0.0224 -0.0721
   69loPI   C1A 1095   6.509   4.456  10.497 -0.3267 -0.0229 -0.0730
   69loPI   C2A 1096   6.535   4.444  10.024 -0.1886  0.0005  0.1801
   69loPI   C3A 1097   6.443   4.468   9.573  0.0556  0.1465 -0.0069
   69loPI   C4A 1098   6.501   4.557   9.092  0.1200  0.0035 -0.0835
   69loPI   C5A 1099   6.647   4.704   8.788 -0.2285  0.1581  0.0552
   69loPI   C6A 1100   7.065   4.865   8.629  0.2478 -0.1550 -0.1332
   69loPI   C1B 1101   6.882   4.746  10.471 -0.1944 -0.4276 -0.1131
   69loPI   C2B 1102   6.892   4.847  10.066 -0.1221  0.1069 -0.0410
   69loPI   C3B 1103   6.817   4.742   9.635  0.0246 -0.0576  0.0750
   69loPI   C4B 1104   6.903   4.833   9.204 -0.1617  0.1970  0.0512
   70loPI    C1 1105   3.701   4.274  11.930  0.1240  0.0919 -0.1923
   70loPI    C2 1106   3.989   4.544  11.867  0.1354  0.1446  0.0748
   70loPI    C3 1107   3.800   4.532  12.219 -0.0157 -0.0545 -0.0113
   70loPI   PO4 1108   3.795   4.111  11.665  0.0004  0.0057 -0.2428
   70loPI   GL1 1109   3.844   4.011  11.219  0.0204  0.1033  0.2942
   70loPI   GL2 1110   3.436   4.028  11.130  0.0972 -0.2450 -0.1009
   70loPI   C1A 1111   3.770   3.919  10.789 -0.1727  0.3762 -0.0065
   70loPI   C2A 1112   3.806   3.887  10.324 -0.1419 -0.1574  0.1100
   70loPI   C3A 1113   3.827   3.942   9.857 -0.0187 -0.1167  0.0617
   70loPI   C4A 1114   3.794   3.874   9.434 -0.0901 -0.0768  0.0218
   70loPI   C5A 1115   3.640   3.922   9.046  0.0422  0.4683 -0.0514
   70loPI   C6A 1116   3.387   4.217   8.987  0.0628 -0.0190  0.2729
   70loPI   C1B 1117   3.298   4.058  10.780 -0.0466  0.1503  0.3667
   70loPI   C2B 1118   3.311   4.095  10.321 -0.0896  0.4162  0.2051
   70loPI   C3B 1119   3.329   4.100   9.857 -0.0534 -0.1502 -0.0732
   70loPI   C4B 1120   3.341   4.075   9.481  0.3459 -0.0443 -0.1496
   71loPI    C1 1121   6.248  13.256  11.107  0.4103  0.0170  0.1696
   71loPI    C2 1122   6.025  13.086  11.392  0.4055 -0.0404  0.1316
   71loPI    C3 1123   6.104  13.477  11.407  0.1489  0.0168  0.0474
   71loPI   PO4 1124   6.159  13.145  10.899 -0.2509  0.1535 -0.1023
   71loPI   GL1 1125   6.005  13.271  10.585 -0.1154 -0.4041  0.1772
   71loPI   GL2 1126   6.381  13.463  10.550 -0.1286 -0.0898  0.1741
   71loPI   C1A 1127   5.981  13.136  10.158  0.0785  0.2260  0.2144
   71loPI   C2A 1128   6.014  13.152   9.790 -0.0292 -0.2405  0.2009
   71loPI   C3A 1129   5.989  13.284   9.325 -0.0607  0.0532 -0.0232
   71loPI   C4A 1130   5.971  13.133   8.895 -0.0579 -0.0251  0.1056
   71loPI   C5A 1131   6.009  13.331   8.581  0.1077  0.0518 -0.1843
   71loPI   C6A 1132   6.105  13.234   8.135  0.0453 -0.1708  0.0406
   71loPI   C1B 1133   6.321  13.483  10.075 -0.1480  0.2062  0.0159
   71loPI   C2B 1134   6.363  13.513   9.719  0.0010 -0.0488  0.3477
   71loPI   C3B 1135   6.391  13.626   9.266 -0.4661 -0.0994  0.1024
   71loPI   C4B 1136   5.902  13.718   9.000  0.2173  0.2977  0.0100
   72loPI    C1 1137   9.017   0.785  11.098  0.0857 -0.0088 -0.0302
   72loPI    C2 1138   8.660   0.741  11.274 -0.0414  0.2793 -0.2086
   72loPI    C3 1139   8.986   0.811  11.496 -0.1317  0.2307 -0.0598
   72loPI   PO4 1140   8.986   1.001  10.947  0.0166  0.1738  0.2309
   72loPI   GL1 1141   9.255   0.997  10.631  0.3071  0.0788  0.1929
   72loPI   GL2 1142   9.072   1.232  10.475 -0.1112 -0.3156  0.4137
   72loPI   C1A 1143   9.229   0.708  10.306  0.0654 -0.0001  0.0939
   72loPI   C2A 1144   9.207   0.814   9.859 -0.1328  0.2334  0.1638
   72loPI   C3A 1145   9.078   0.886   9.459 -0.2062  0.1119 -0.1006
   72loPI   C4A 1146   8.983   0.792   9.055 -0.0479 -0.2774  0.0868
   72loPI   C5A 1147   8.751   0.743   8.660 -0.0448  0.1757 -0.0741
   72loPI   C6A 1148   8.586   0.445   8.475 -0.0480  0.1934 -0.0402
   72loPI   C1B 1149   9.092   1.366  10.003 -0.0501  0.1975 -0.1266
   72loPI   C2B 1150   8.904   1.402   9.611  0.0315  0.2221  0.0909
   72loPI   C3B 1151   8.948   1.320   9.249  0.0099 -0.1016 -0.3898
   72loPI   C4B 1152   8.700   1.213   8.824  0.1042  0.0295  0.2086
   73loPI    C1 1153  16.717  17.427  11.328  0.0275 -0.1242 -0.1016
   73loPI    C2 1154  16.389  17.415  11.099 -0.0220  0.0642 -0.0421
   73loPI    C3 1155  16.408  17.668  11.409  0.0749 -0.1342  0.1160
   73loPI   PO4 1156  16.872  17.316  11.110  0.0090 -0.3000  0.1904
   73loPI   GL1 1157  16.821  17.398  10.704 -0.1489 -0.2331  0.0505
   73loPI   GL2 1158  17.036  17.602  10.607  0.2523  0.1629 -0.1539
   73loPI   C1A 1159  16.764  17.372  10.260 -0.1383  0.1350  0.3314
   73loPI   C2A 1160  16.680  17.315   9.789  0.2867  0.1151 -0.0126
   73loPI   C3A 1161  16.706  17.348   9.331 -0.2820  0.1895 -0.1649
   73loPI   C4A 1162  16.749  17.354   8.860  0.0898  0.4454  0.0373
   73loPI   C5A 1163  16.871  17.407   8.399  0.0816 -0.2272 -0.1633
   73loPI   C6A 1164  16.692  17.166   8.079 -0.0385  0.0821 -0.1425
   73loPI   C1B 1165  17.147  17.663  10.201 -0.3023 -0.2083 -0.1190
   73loPI   C2B 1166  17.101  17.659   9.661  0.0937 -0.2288  0.1330
   73loPI   C3B 1167  17.160  17.755   9.255  0.1221 -0.1718  0.0311
   73loPI   C4B 1168  17.150  17.625   8.734  0.4691  0.0347  0.2116
   74loPI    C1 1169   3.288  16.753  11.696  0.0343 -0.0634  0.1020
   74loPI    C2 1170   3.621  16.767  11.916  0.0192 -0.2322  0.1372
   74loPI    C3 1171   3.392  16.439  11.921 -0.0275 -0.2040 -0.0624
   74loPI   PO4 1172   3.521  16.805  11.428  0.2346 -0.0143 -0.1383
   74loPI   GL1 1173   3.542  16.973  10.893 -0.0087  0.1731 -0.1676
   74loPI   GL2 1174   3.112  16.890  11.062  0.2599 -0.2092  0.3345
   74loPI   C1A 1175   3.419  16.953  10.485  0.0896  0.4785  0.5044
   74loPI   C2A 1176   3.385  16.897  10.086  0.0743 -0.0258  0.0746
   74loPI   C3A 1177   3.429  16.965   9.707 -0.1939  0.2076 -0.4038
   74loPI   C4A 1178   3.345  16.820   9.320  0.0672 -0.1480  0.0240
   74loPI   C5A 1179   3.551  16.992   8.907  0.0411 -0.1442  0.1279
   74loPI   C6A 1180   3.686  16.843   8.450  0.5080  0.0009 -0.3926
   74loPI   C1B 1181   3.039  16.698  10.624  0.2413  0.3664 -0.1191
   74loPI   C2B 1182   2.983  16.620  10.182 -0.0735  0.1435  0.0516
   74loPI   C3B 1183   3.055  16.614   9.721 -0.0174  0.1071 -0.0124
   74loPI   C4B 1184   3.051  16.429   9.265 -0.1216  0.1031 -0.1348
   75loPI    C1 1185  14.820   7.314  10.998 -0.1437  0.1059  0.0956
   75loPI    C2 1186  14.846   6.951  11.163 -0.3251  0.0009 -0.1012
   75loPI    C3 1187  14.655   7.245  11.356 -0.0117  0.0488  0.1460
   75loPI   PO4 1188  15.137   7.312  10.905 -0.3246 -0.3172  0.0694
   75loPI   GL1 1189  15.269   7.365  10.593 -0.0722 -0.1188  0.2434
   75loPI   GL2 1190  14.939   7.371  10.467  0.1680  0.0416  0.0951
   75loPI   C1A 1191  15.631   7.150  10.306 -0.1167  0.2427  0.1871
   75loPI   C2A 1192  15.779   7.143   9.909  0.2059  0.2044  0.0941
   75loPI   C3A 1193  15.726   7.257   9.468  0.0907  0.0114  0.0405
   75loPI   C4A 1194  15.840   7.294   9.134  0.2321  0.1457  0.3261
   75loPI   C5A 1195  15.674   7.249   8.772  0.1095  0.0113  0.1318
   75loPI   C6A 1196  15.442   6.942   8.536 -0.1473  0.0623  0.0859
   75loPI   C1B 1197  15.148   7.415  10.085 -0.0742  0.1491  0.0105
   75loPI   C2B 1198  15.222   7.346   9.634  0.0374  0.1321  0.1030
   75loPI   C3B 1199  15.314   7.479   9.170 -0.0719  0.0028 -0.0765
   75loPI   C4B 1200  15.234   7.551   8.751  0.1262  0.3405 -0.3129
   76loPI    C1 1201   6.994   1.319  11.301  0.1581 -0.1023  0.1905
   76loPI    C2 1202   7.196   1.054  11.079  0.0766 -0.0362  0.0356
   76loPI    C3 1203   7.180   1.012  11.477  0.2125 -0.1632  0.0283
   76loPI   PO4 1204   6.962   1.499  11.136 -0.3200 -0.0401 -0.4157
   76loPI   GL1 1205   6.966   1.556  10.693 -0.3498 -0.1286  0.4268
   76loPI   GL2 1206   6.673   1.539  10.517  0.1399  0.3046 -0.2508
   76loPI   C1A 1207   7.111   1.423  10.329  0.1253  0.1881  0.4886
   76loPI   C2A 1208   7.157   1.458   9.839  0.1767 -0.1653  0.0167
   76loPI   C3A 1209   7.128   1.384   9.538 -0.3972  0.1344  0.1728
   76loPI   C4A 1210   7.007   1.383   9.119  0.0476  0.3179 -0.1075
   76loPI   C5A 1211   6.777   1.323   8.737  0.0989  0.0982 -0.2480
   76loPI   C6A 1212   6.717   1.163   8.306 -0.2937  0.2827 -0.0711
   76loPI   C1B 1213   6.738   1.568  10.063  0.0144 -0.0842  0.2404
   76loPI   C2B 1214   6.559   1.476   9.615  0.0726 -0.2270  0.1058
   76loPI   C3B 1215   6.471   1.565   9.196  0.2261  0.5114  0.1514
   76loPI   C4B 1216   6.107   1.773   8.948 -0.1350  0.0066  0.0138
   77loPI    C1 1217  14.433  11.825  11.456  0.1554 -0.0369 -0.2179
   77loPI    C2 1218  14.447  11.442  11.339  0.0164 -0.1762  0.2051
   77loPI    C3 1219  14.663  11.563  11.653  0.1019  0.1079  0.0403
   77loPI   PO4 1220  14.463  12.113  11.268  0.0628  0.2760  0.1219
   77loPI   GL1 1221  14.372  12.425  10.926 -0.1881  0.1090  0.0002
   77loPI   GL2 1222  14.482  12.792  10.913  0.0837 -0.2552  0.2417
   77loPI   C1A 1223  14.392  12.438  10.532  0.2554  0.0658  0.2542
   77loPI   C2A 1224  14.454  12.479  10.071 -0.0733 -0.2046  0.2964
   77loPI   C3A 1225  14.511  12.438   9.635 -0.2589 -0.0486 -0.0908
   77loPI   C4A 1226  14.517  12.411   9.141  0.1159  0.1207  0.0935
   77loPI   C5A 1227  14.563  12.143   8.684 -0.1008  0.1021 -0.1169
   77loPI   C6A 1228  14.445  11.727   8.456 -0.1765 -0.0148  0.1994
   77loPI   C1B 1229  14.754  12.778  10.435  0.2035 -0.2528  0.1029
   77loPI   C2B 1230  14.837  12.793  10.006 -0.0179  0.1271 -0.1005
   77loPI   C3B 1231  14.905  12.795   9.573 -0.2897 -0.2666 -0.1731
   77loPI   C4B 1232  14.922  12.877   9.140  0.2138  0.0220 -0.1778
   78loPI    C1 1233   9.294   8.797  10.542  0.1610 -0.0852  0.1742
   78loPI    C2 1234   9.024   9.090  10.585  0.1277 -0.0585 -0.1853
   78loPI    C3 1235   9.251   8.979  10.896 -0.3001 -0.0877  0.1257
   78loPI   PO4 1236   9.146   8.650  10.420  0.0028  0.0904  0.2944
   78loPI   GL1 1237   9.295   8.484   9.996 -0.0536  0.2415 -0.1107
   78loPI   GL2 1238   8.921   8.445  10.028 -0.0290  0.0373 -0.0469
   78loPI   C1A 1239   9.302   8.512   9.543  0.0131 -0.3673  0.1453
   78loPI   C2A 1240   9.372   8.324   9.088  0.2479  0.0244  0.1464
   78loPI   C3A 1241   9.408   8.351   8.692 -0.0831  0.0860 -0.0020
   78loPI   C4A 1242   9.527   8.129   8.364 -0.2395 -0.2542  0.0001
   78loPI   C5A 1243   9.795   8.157   7.929  0.0273  0.0213 -0.1690
   78loPI   C6A 1244  10.029   8.290   7.593  0.2712 -0.1950 -0.0692
   78loPI   C1B 1245   8.840   8.441   9.571  0.0409 -0.1196 -0.1111
   78loPI   C2B 1246   8.882   8.465   9.192 -0.2193  0.1561 -0.1116
   78loPI   C3B 1247   8.934   8.358   8.711 -0.0450 -0.0143 -0.2597
   78loPI   C4B 1248   9.022   8.297   8.318 -0.3048 -0.0522  0.3009
   79loPI    C1 1249   9.969  10.564  10.884  0.0332 -0.1590  0.2244
   79loPI    C2 1250  10.035  10.914  11.067 -0.1966 -0.1261  0.2478
   79loPI    C3 1251  10.235  10.587  11.182  0.1495  0.0314  0.1083
   79loPI   PO4 1252   9.827  10.538  10.626 -0.0932  0.1734  0.1472
   79loPI   GL1 1253   9.856  10.613  10.205  0.2164 -0.4113  0.1072
   79loPI   GL2 1254   9.960  10.962  10.297  0.0321 -0.0414 -0.1400
   79loPI   C1A 1255   9.840  10.509   9.782  0.1597  0.1698  0.1567
   79loPI   C2A 1256   9.799  10.491   9.407  0.2978  0.2259 -0.0525
   79loPI   C3A 1257   9.949  10.540   9.051 -0.1970 -0.0642  0.0569
   79loPI   C4A 1258  10.088  10.451   8.706 -0.0423  0.2786  0.1740
   79loPI   C5A 1259  10.184  10.382   8.185  0.0933  0.2929  0.0657
   79loPI   C6A 1260   9.924  10.454   7.839  0.1022 -0.2532 -0.2036
   79loPI   C1B 1261  10.141  10.890   9.873  0.3204 -0.2157 -0.0702
   79loPI   C2B 1262  10.137  10.858   9.471 -0.2130  0.1822  0.0079
   79loPI   C3B 1263  10.165  10.940   9.093 -0.0924  0.3160  0.0412
   79loPI   C4B 1264  10.017  10.951   8.684 -0.0612  0.0199 -0.1703
   80loPI    C1 1265   9.168   2.033  11.237 -0.0991  0.2724 -0.1114
   80loPI    C2 1266   9.306   1.684  11.374 -0.2616  0.0494 -0.4985
   80loPI    C3 1267   9.012   1.872  11.568  0.1969  0.2566  0.0238
   80loPI   PO4 1268   9.132   1.976  10.965  0.0244  0.0269 -0.1327
   80loPI   GL1 1269   9.319   2.326  10.766  0.1118  0.0662 -0.0799
   80loPI   GL2 1270   9.395   2.641  10.858  0.0936  0.1750 -0.1071
   80loPI   C1A 1271   9.296   2.188  10.385 -0.2028  0.3108 -0.1722
   80loPI   C2A 1272   9.250   2.163   9.958 -0.0705  0.1445  0.0126
   80loPI   C3A 1273   9.285   2.187   9.501 -0.2206 -0.2663  0.0608
   80loPI   C4A 1274   9.277   2.138   9.040 -0.0563  0.1100  0.0072
   80loPI   C5A 1275   9.392   2.016   8.642 -0.2077 -0.2415 -0.1294
   80loPI   C6A 1276   9.747   2.003   8.516 -0.0781 -0.1515 -0.1940
   80loPI   C1B 1277   9.219   2.700  10.507 -0.0854  0.0919 -0.0912
   80loPI   C2B 1278   9.157   2.637  10.106 -0.1397 -0.2505 -0.2054
   80loPI   C3B 1279   9.191   2.668   9.696  0.1692  0.1023  0.5577
   80loPI   C4B 1280   9.162   2.671   9.212  0.1336 -0.1282  0.2028
   81loPI    C1 1281   2.699  15.663  11.558 -0.2300  0.0155 -0.0263
   81loPI    C2 1282   2.879  15.334  11.698 -0.1882  0.0142 -0.0823
   81loPI    C3 1283   2.566  15.490  11.893 -0.1072  0.0346  0.0329
   81loPI   PO4 1284   2.680  15.531  11.291 -0.2672 -0.1050 -0.0121
   81loPI   GL1 1285   2.538  15.572  10.924 -0.0611  0.3318 -0.2699
   81loPI   GL2 1286   2.588  15.301  10.793 -0.0169  0.1156 -0.0519
   81loPI   C1A 1287   2.649  15.833  10.635  0.3039  0.1335  0.2959
   81loPI   C2A 1288   2.717  15.865  10.235 -0.0085 -0.1615  0.2983
   81loPI   C3A 1289   2.729  15.803   9.843 -0.1793  0.1050 -0.2231
   81loPI   C4A 1290   2.736  15.664   9.454 -0.2585 -0.2099  0.3327
   81loPI   C5A 1291   2.611  15.686   9.025  0.0681 -0.1534  0.2915
   81loPI   C6A 1292   2.397  15.828   8.631  0.1582  0.0395 -0.0654
   81loPI   C1B 1293   2.788  15.359  10.456  0.0773 -0.2181  0.2618
   81loPI   C2B 1294   2.837  15.296  10.078 -0.0309 -0.1623 -0.1788
   81loPI   C3B 1295   2.804  15.240   9.678  0.1775  0.2067  0.1141
   81loPI   C4B 1296   2.897  15.220   9.293 -0.0257 -0.0426 -0.0474
   82loPI    C1 1297  15.923   7.543  11.272 -0.0423 -0.0549  0.0442
   82loPI    C2 1298  15.693   7.238  11.393 -0.0932  0.0919  0.3260
   82loPI    C3 1299  15.594   7.613  11.488 -0.2157  0.2307 -0.3013
   82loPI   PO4 1300  16.136   7.455  11.143  0.1086  0.3116  0.2897
   82loPI   GL1 1301  16.134   7.312  10.763 -0.2135  0.4706  0.3047
   82loPI   GL2 1302  15.898   7.593  10.640 -0.1054 -0.0841 -0.0407
   82loPI   C1A 1303  16.136   7.077  10.366 -0.0577 -0.2635  0.1525
   82loPI   C2A 1304  16.210   7.011   9.931  0.2308  0.2757  0.0124
   82loPI   C3A 1305  16.239   7.039   9.476 -0.1894 -0.1944 -0.0758
   82loPI   C4A 1306  16.315   7.077   9.012  0.0182 -0.3696 -0.4508
   82loPI   C5A 1307  16.411   6.838   8.623  0.0355  0.2111 -0.1586
   82loPI   C6A 1308  16.417   6.421   8.657 -0.2838 -0.0463  0.1310
   82loPI   C1B 1309  16.073   7.543  10.297  0.2429  0.5017  0.2105
   82loPI   C2B 1310  16.241   7.515   9.927 -0.1435  0.0742  0.1143
   82loPI   C3B 1311  16.133   7.630   9.495 -0.1867  0.1837  0.1851
   82loPI   C4B 1312  16.176   7.659   9.045 -0.0580  0.0133 -0.1436
   83loPI    C1 1313  14.624   2.852  11.364 -0.0327 -0.1687  0.0467
   83loPI    C2 1314  14.784   2.680  11.688  0.3723  0.0671 -0.0209
   83loPI    C3 1315  14.662   3.060  11.703 -0.0804 -0.0722 -0.0069
   83loPI   PO4 1316  14.855   2.769  11.130  0.2133  0.1054 -0.0518
   83loPI   GL1 1317  15.022   2.860  10.748  0.0821 -0.3053 -0.3039
   83loPI   GL2 1318  14.722   2.647  10.648  0.2579 -0.0805 -0.0001
   83loPI   C1A 1319  15.049   3.107  10.379 -0.0173  0.5523  0.0742
   83loPI   C2A 1320  15.248   3.219   9.979 -0.3155 -0.0137  0.1632
   83loPI   C3A 1321  15.160   3.097   9.623  0.0657 -0.1322  0.0380
   83loPI   C4A 1322  15.066   3.150   9.136  0.0171 -0.1135 -0.2358
   83loPI   C5A 1323  15.108   3.038   8.698 -0.0703 -0.2898  0.0605
   83loPI   C6A 1324  14.736   2.791   8.565 -0.3491  0.2824  0.0018
   83loPI   C1B 1325  14.665   2.816  10.212  0.2602 -0.2291 -0.1055
   83loPI   C2B 1326  14.726   2.889   9.847 -0.1730  0.0625 -0.0318
   83loPI   C3B 1327  14.752   2.857   9.499 -0.2652  0.0273  0.0545
   83loPI   C4B 1328  14.857   2.735   9.088  0.1178 -0.1737 -0.0333
   84loPI    C1 1329  12.503   5.519  10.904  0.1238  0.0604  0.0533
   84loPI    C2 1330  12.408   5.222  11.154  0.2206  0.0853  0.1202
   84loPI    C3 1331  12.365   5.602  11.270 -0.1360  0.1020 -0.0515
   84loPI   PO4 1332  12.453   5.458  10.701 -0.1081  0.3838  0.3027
   84loPI   GL1 1333  12.630   5.478  10.292  0.0130 -0.1749  0.0533
   84loPI   GL2 1334  12.616   5.143  10.154 -0.0366 -0.3469 -0.0020
   84loPI   C1A 1335  12.814   5.296   9.779 -0.0475 -0.0966  0.1256
   84loPI   C2A 1336  12.836   5.194   9.333 -0.0060  0.2457  0.0865
   84loPI   C3A 1337  12.780   5.297   8.925 -0.2040  0.1128 -0.0778
   84loPI   C4A 1338  12.963   5.326   8.617 -0.1543 -0.3390 -0.1472
   84loPI   C5A 1339  13.051   5.173   8.262 -0.1009  0.1235 -0.0177
   84loPI   C6A 1340  12.889   4.859   8.051  0.1897 -0.0826 -0.1571
   84loPI   C1B 1341  12.435   4.931   9.819 -0.5506 -0.1560 -0.1398
   84loPI   C2B 1342  12.416   4.808   9.435 -0.1304 -0.2255  0.0756
   84loPI   C3B 1343  12.471   4.923   8.979  0.0979 -0.0513 -0.0890
   84loPI   C4B 1344  12.576   4.972   8.468 -0.0527 -0.3032  0.0840
   85loPI    C1 1345   4.934  10.351  11.300 -0.1259 -0.0339 -0.1145
   85loPI    C2 1346   4.916  10.013  11.513  0.1352  0.0109 -0.0169
   85loPI    C3 1347   4.837  10.364  11.687  0.2025  0.0334 -0.0316
   85loPI   PO4 1348   4.845  10.346  11.115  0.1147  0.0810  0.0170
   85loPI   GL1 1349   4.868  10.370  10.738 -0.0097 -0.2107 -0.0041
   85loPI   GL2 1350   4.995  10.654  10.597  0.0894 -0.0245 -0.3421
   85loPI   C1A 1351   4.823  10.272  10.332  0.1298  0.0885  0.0295
   85loPI   C2A 1352   4.834  10.254   9.895 -0.1152 -0.1031 -0.1658
   85loPI   C3A 1353   4.877  10.353   9.382  0.0799  0.3276 -0.2132
   85loPI   C4A 1354   4.707  10.373   9.018 -0.0059 -0.0179  0.1371
   85loPI   C5A 1355   4.777  10.214   8.658 -0.1998  0.3718  0.1320
   85loPI   C6A 1356   4.880  10.143   8.285  0.0017  0.4198  0.0799
   85loPI   C1B 1357   5.196  10.562  10.125  0.4471  0.0294  0.1386
   85loPI   C2B 1358   5.189  10.554   9.729 -0.0668  0.2499 -0.0064
   85loPI   C3B 1359   5.170  10.734   9.300 -0.1029  0.0441  0.0426
   85loPI   C4B 1360   5.117  10.709   8.822 -0.1736  0.0316 -0.0672
   86loPI    C1 1361  12.597  15.015  10.974  0.1001 -0.4135  0.1452
   86loPI    C2 1362  12.370  14.771  11.194  0.0200 -0.1859  0.3187
   86loPI    C3 1363  12.691  14.946  11.356  0.1721 -0.3030  0.1481
   86loPI   PO4 1364  12.612  14.896  10.740 -0.1443  0.1875 -0.3160
   86loPI   GL1 1365  12.488  14.784  10.357  0.1843 -0.0438 -0.2182
   86loPI   GL2 1366  12.470  15.070  10.234  0.1085 -0.1861  0.0133
   86loPI   C1A 1367  12.617  14.536   9.977 -0.0618 -0.1171 -0.0703
   86loPI   C2A 1368  12.568  14.486   9.590 -0.0850 -0.0182  0.2472
   86loPI   C3A 1369  12.680  14.464   9.195  0.0814 -0.1372 -0.1524
   86loPI   C4A 1370  12.823  14.482   8.863  0.4540 -0.2081 -0.2731
   86loPI   C5A 1371  12.720  14.484   8.364  0.0915  0.0087  0.2129
   86loPI   C6A 1372  12.645  14.131   8.149  0.0384  0.1681 -0.0879
   86loPI   C1B 1373  12.477  15.031   9.824  0.3396  0.3781  0.1489
   86loPI   C2B 1374  12.557  15.028   9.351 -0.0516  0.0414 -0.2340
   86loPI   C3B 1375  12.686  14.945   8.958  0.0514  0.2615 -0.2111
   86loPI   C4B 1376  12.782  14.988   8.569  0.2998  0.1332 -0.0512
   87loPI    C1 1377   7.009   9.004  10.974  0.1837 -0.0750 -0.1631
   87loPI    C2 1378   6.905   9.155  11.330 -0.2281  0.0062 -0.3119
   87loPI    C3 1379   7.225   8.917  11.299 -0.3519 -0.2341  0.1639
   87loPI   PO4 1380   6.998   9.094  10.789 -0.1755 -0.0973  0.2276
   87loPI   GL1 1381   6.589   8.966  10.548  0.0631 -0.5410  0.1404
   87loPI   GL2 1382   6.424   8.808  10.321 -0.0988  0.0519 -0.0776
   87loPI   C1A 1383   6.818   9.091  10.159 -0.2837 -0.1294 -0.5138
   87loPI   C2A 1384   6.728   9.135   9.726  0.0963  0.1035  0.1254
   87loPI   C3A 1385   6.808   9.073   9.327  0.0435 -0.1753 -0.0751
   87loPI   C4A 1386   6.785   9.182   8.832  0.3275 -0.1221 -0.0190
   87loPI   C5A 1387   7.026   9.136   8.515 -0.2313  0.0297 -0.4398
   87loPI   C6A 1388   7.489   9.355   8.446 -0.2420  0.0751 -0.4574
   87loPI   C1B 1389   6.443   8.713   9.975 -0.0368 -0.0521  0.0040
   87loPI   C2B 1390   6.390   8.774   9.594  0.0269  0.2594  0.4341
   87loPI   C3B 1391   6.541   8.733   9.118 -0.1520 -0.0998 -0.2605
   87loPI   C4B 1392   6.547   8.671   8.739 -0.0265  0.0904  0.2399
   88loPI    C1 1393  16.490  15.324  11.354 -0.1894  0.3335  0.1091
   88loPI    C2 1394  16.638  15.034  11.586  0.0122  0.1206 -0.2763
   88loPI    C3 1395  16.248  15.121  11.600 -0.0120 -0.0193 -0.0014
   88loPI   PO4 1396  16.493  15.305  11.190 -0.1154 -0.1659 -0.3105
   88loPI   GL1 1397  16.525  15.224  10.790  0.1626  0.0363 -0.1155
   88loPI   GL2 1398  16.245  15.198  10.777  0.0275  0.1329  0.0289
   88loPI   C1A 1399  16.726  15.100  10.492 -0.0263  0.2262 -0.0802
   88loPI   C2A 1400  16.653  15.040  10.063 -0.0579 -0.0212 -0.0219
   88loPI   C3A 1401  16.764  15.080   9.658  0.0354 -0.3493 -0.1193
   88loPI   C4A 1402  16.805  15.103   9.275  0.0290  0.0319  0.0960
   88loPI   C5A 1403  16.810  15.006   8.901  0.1228 -0.0417  0.2329
   88loPI   C6A 1404  16.904  15.152   8.450  0.0768 -0.1556 -0.0664
   88loPI   C1B 1405  16.209  15.169  10.329 -0.0784 -0.1226  0.1401
   88loPI   C2B 1406  16.237  15.242   9.901 -0.0309  0.2841 -0.0579
   88loPI   C3B 1407  16.295  15.140   9.468  0.0784 -0.2973  0.4698
   88loPI   C4B 1408  16.356  15.179   8.965  0.0965  0.2657  0.1538
   89loPI    C1 1409  15.614   4.101  11.186 -0.0438 -0.2527  0.0901
   89loPI    C2 1410  15.959   3.899  11.185 -0.0457 -0.2559  0.0267
   89loPI    C3 1411  15.669   3.797  11.440  0.0364 -0.1903  0.1478
   89loPI   PO4 1412  15.507   4.116  10.996 -0.0355  0.1585 -0.0048
   89loPI   GL1 1413  15.638   4.346  10.593  0.0236 -0.1390  0.0396
   89loPI   GL2 1414  15.293   4.494  10.634  0.3866 -0.1148  0.0254
   89loPI   C1A 1415  15.755   4.362  10.115 -0.0956 -0.0270 -0.2499
   89loPI   C2A 1416  15.793   4.305   9.721 -0.2285  0.0469 -0.1712
   89loPI   C3A 1417  15.805   4.266   9.363 -0.0849 -0.0240 -0.0428
   89loPI   C4A 1418  15.848   4.274   8.955 -0.0186 -0.3228 -0.0184
   89loPI   C5A 1419  15.685   4.396   8.598  0.1163 -0.0987 -0.0342
   89loPI   C6A 1420  15.375   4.505   8.404 -0.2826  0.0328 -0.2678
   89loPI   C1B 1421  15.251   4.491  10.204 -0.1797 -0.4748  0.1472
   89loPI   C2B 1422  15.339   4.433   9.761  0.0135 -0.0635  0.0047
   89loPI   C3B 1423  15.317   4.419   9.319  0.0122 -0.1828  0.0516
   89loPI   C4B 1424  15.250   4.433   8.917 -0.1799  0.0591 -0.1149
   90loPI    C1 1425   3.098   1.443  11.320  0.1135 -0.2741  0.1235
   90loPI    C2 1426   3.172   1.503  11.708  0.0031 -0.2500  0.1412
   90loPI    C3 1427   2.811   1.376  11.591  0.0221 -0.2135  0.0425
   90loPI   PO4 1428   3.314   1.258  11.212 -0.1164 -0.2787 -0.1086
   90loPI   GL1 1429   3.313   1.182  10.800 -0.0004 -0.0535 -0.1921
   90loPI   GL2 1430   3.021   1.297  10.671  0.2360  0.1681  0.0358
   90loPI   C1A 1431   3.462   1.173  10.365  0.4116 -0.0038 -0.1094
   90loPI   C2A 1432   3.378   1.133   9.935  0.0375  0.1894 -0.1530
   90loPI   C3A 1433   3.359   1.231   9.538 -0.0497 -0.1871  0.2162
   90loPI   C4A 1434   3.420   1.140   9.102  0.0353 -0.0571 -0.1297
   90loPI   C5A 1435   3.247   0.991   8.755 -0.1739 -0.0415  0.2515
   90loPI   C6A 1436   3.148   1.122   8.416 -0.0023 -0.4017 -0.3211
   90loPI   C1B 1437   3.006   1.335  10.232 -0.1371 -0.2202 -0.0724
   90loPI   C2B 1438   2.937   1.298   9.739 -0.0202  0.0649  0.0209
   90loPI   C3B 1439   2.887   1.329   9.337  0.2605  0.0335 -0.1210
   90loPI   C4B 1440   2.910   1.336   8.860 -0.1435 -0.0120 -0.1869
   91loPI    C1 1441  14.266   7.441  10.991 -0.1655  0.1153 -0.0447
   91loPI    C2 1442  14.232   7.574  11.367  0.2055  0.1453 -0.0180
   91loPI    C3 1443  14.081   7.217  11.266 -0.0961  0.2358  0.1015
   91loPI   PO4 1444  14.394   7.578  10.852 -0.0561 -0.3752 -0.1147
   91loPI   GL1 1445  14.506   7.269  10.520  0.3692  0.0290  0.2331
   91loPI   GL2 1446  14.206   7.141  10.489  0.0754 -0.0814  0.4329
   91loPI   C1A 1447  14.680   7.080  10.147 -0.0642 -0.1907  0.1249
   91loPI   C2A 1448  14.781   6.989   9.768  0.1988  0.1641 -0.1794
   91loPI   C3A 1449  14.882   6.992   9.407  0.0336 -0.3703  0.3475
   91loPI   C4A 1450  14.889   7.079   8.920 -0.2782  0.1721  0.2744
   91loPI   C5A 1451  14.979   7.128   8.518  0.0988  0.1903 -0.2779
   91loPI   C6A 1452  14.666   7.021   8.291  0.1254 -0.0974  0.1781
   91loPI   C1B 1453  14.178   7.057  10.037 -0.4319  0.0489  0.2672
   91loPI   C2B 1454  14.256   7.185   9.596 -0.1744 -0.1203  0.0583
   91loPI   C3B 1455  14.476   7.247   9.161 -0.0943 -0.0548  0.4163
   91loPI   C4B 1456  14.427   7.115   8.801 -0.1590  0.0830 -0.0955
   92loPI    C1 1457  15.916  11.318  11.019 -0.0293  0.0771 -0.1379
   92loPI    C2 1458  16.194  11.280  11.305 -0.1730 -0.0122 -0.0089
   92loPI    C3 1459  15.911  11.562  11.336 -0.2794 -0.1204  0.0139
   92loPI   PO4 1460  15.970  11.069  10.888 -0.1577  0.0184 -0.2057
   92loPI   GL1 1461  15.844  10.919  10.521  0.0332  0.1035 -0.2126
   92loPI   GL2 1462  16.240  10.975  10.488  0.0796  0.1617 -0.0327
   92loPI   C1A 1463  15.897  10.959  10.009  0.2155  0.0608  0.0143
   92loPI   C2A 1464  15.915  11.040   9.540 -0.1463  0.2259 -0.1980
   92loPI   C3A 1465  15.766  10.972   9.184 -0.0530 -0.2218 -0.1949
   92loPI   C4A 1466  15.655  10.922   8.797 -0.0177 -0.2507 -0.1383
   92loPI   C5A 1467  15.453  11.061   8.425  0.1752 -0.3179 -0.0334
   92loPI   C6A 1468  15.104  11.334   8.440 -0.0475 -0.0131  0.2809
   92loPI   C1B 1469  16.510  10.998  10.151 -0.1675 -0.1433 -0.0186
   92loPI   C2B 1470  16.453  11.018   9.784 -0.0574 -0.1776 -0.1345
   92loPI   C3B 1471  16.322  10.926   9.334  0.0507  0.2119 -0.0457
   92loPI   C4B 1472  16.385  10.855   8.934  0.4615  0.2407  0.0973
   93loPI    C1 1473   9.304  10.362  10.704  0.2006 -0.0874 -0.3537
   93loPI    C2 1474   9.614  10.209  10.905 -0.1219 -0.2335  0.0464
   93loPI    C3 1475   9.485  10.579  10.987 -0.0487 -0.1676 -0.1293
   93loPI   PO4 1476   9.305  10.511  10.406  0.0002 -0.1773  0.5767
   93loPI   GL1 1477   9.416  10.549   9.998 -0.2834 -0.1708  0.1886
   93loPI   GL2 1478   9.213  10.806  10.033  0.2194  0.3909  0.0630
   93loPI   C1A 1479   9.336  10.294   9.577  0.1295  0.1825  0.0187
   93loPI   C2A 1480   9.324  10.290   9.083  0.0055 -0.2457  0.2118
   93loPI   C3A 1481   9.579  10.679   8.730 -0.0866  0.2134 -0.0328
   93loPI   C4A 1482   9.719  10.623   8.292  0.1481  0.0167 -0.0220
   93loPI   C5A 1483   9.816  11.114   8.100 -0.3203 -0.3303 -0.1638
   93loPI   C6A 1484  10.197  11.020   7.935 -0.3130  0.0839 -0.2220
   93loPI   C1B 1485   9.183  10.774   9.556  0.3628  0.1425 -0.1776
   93loPI   C2B 1486   9.133  10.758   9.059 -0.0266 -0.2924  0.0161
   93loPI   C3B 1487   9.174  10.949   8.670  0.2054  0.0612  0.0563
   93loPI   C4B 1488   9.285  10.854   8.215  0.1943 -0.4992  0.2900
   94loPI    C1 1489   0.104   6.723  12.159 -0.1583 -0.0175 -0.0556
   94loPI    C2 1490  -0.115   7.057  12.138  0.0815  0.1335 -0.2056
   94loPI    C3 1491   0.245   7.065  12.311  0.1354 -0.0222 -0.3093
   94loPI   PO4 1492   0.028   6.585  11.959  0.1356  0.4023  0.1557
   94loPI   GL1 1493  -0.175   6.630  11.501  0.1574  0.2974  0.2933
   94loPI   GL2 1494  -0.090   6.246  11.419 -0.2345  0.0551 -0.3535
   94loPI   C1A 1495  -0.056   6.592  11.061 -0.0393 -0.1101 -0.0415
   94loPI   C2A 1496   0.057   6.551  10.644 -0.0016  0.0786 -0.1828
   94loPI   C3A 1497   0.033   6.483  10.223 -0.1832  0.1177  0.0783
   94loPI   C4A 1498   0.126   6.438   9.828  0.3803  0.0529  0.1444
   94loPI   C5A 1499   0.182   6.482   9.468 -0.0583  0.3854 -0.1735
   94loPI   C6A 1500   0.058   6.640   9.128  0.2433  0.1580  0.1791
   94loPI   C1B 1501   0.148   6.155  11.020  0.2411  0.0626 -0.0443
   94loPI   C2B 1502   0.104   6.049  10.570  0.0967 -0.0740 -0.0723
   94loPI   C3B 1503   0.154   5.975  10.117 -0.1380  0.0055  0.2575
   94loPI   C4B 1504   0.208   5.953   9.736 -0.3092  0.3336  0.1058
   95loPI    C1 1505   1.143   8.953  11.639 -0.0547 -0.1669 -0.1746
   95loPI    C2 1506   0.783   8.840  11.772 -0.0358  0.0066  0.0305
   95loPI    C3 1507   1.093   8.857  12.024  0.1220 -0.1581 -0.1485
   95loPI   PO4 1508   1.313   8.759  11.484  0.1421 -0.0884 -0.0646
   95loPI   GL1 1509   1.092   8.672  11.069 -0.1959 -0.2209 -0.4043
   95loPI   GL2 1510   0.853   8.549  10.817  0.2804 -0.0542 -0.1365
   95loPI   C1A 1511   1.368   8.978  10.857 -0.1876 -0.0946 -0.1264
   95loPI   C2A 1512   1.254   8.987  10.427  0.1239  0.0043  0.0977
   95loPI   C3A 1513   1.351   8.955  10.025  0.4098  0.1224 -0.1600
   95loPI   C4A 1514   1.377   8.961   9.573 -0.0729 -0.1261  0.1290
   95loPI   C5A 1515   1.592   8.915   9.212  0.0137  0.0843 -0.0526
   95loPI   C6A 1516   1.422   8.753   8.738 -0.0931  0.0269  0.1071
   95loPI   C1B 1517   0.971   8.546  10.460  0.0297 -0.0689  0.1323
   95loPI   C2B 1518   1.025   8.575  10.010 -0.3453 -0.1018  0.0855
   95loPI   C3B 1519   0.973   8.563   9.624  0.1711  0.2794  0.3011
   95loPI   C4B 1520   1.251   8.557   9.197 -0.0713  0.2692 -0.1904
   96loPI    C1 1521  11.108  16.174  11.053  0.0129 -0.1321 -0.0936
   96loPI    C2 1522  11.405  16.104  11.312  0.1492  0.3320 -0.1147
   96loPI    C3 1523  11.110  16.357  11.409 -0.2710 -0.1552 -0.0780
   96loPI   PO4 1524  11.146  15.914  10.915 -0.1782 -0.1283 -0.0459
   96loPI   GL1 1525  11.294  15.777  10.470  0.1398  0.2845 -0.2235
   96loPI   GL2 1526  11.481  15.635  10.320 -0.1864  0.0570  0.0246
   96loPI   C1A 1527  11.023  15.887  10.140 -0.3076 -0.2772  0.1551
   96loPI   C2A 1528  10.954  15.918   9.758 -0.1509  0.0843 -0.2520
   96loPI   C3A 1529  11.060  15.907   9.221 -0.0483 -0.0405  0.0980
   96loPI   C4A 1530  11.153  15.967   8.772 -0.0574 -0.1240 -0.0041
   96loPI   C5A 1531  11.455  16.305   8.551 -0.0251  0.1057  0.3244
   96loPI   C6A 1532  11.759  16.476   8.272  0.0838  0.2756 -0.3708
   96loPI   C1B 1533  11.764  15.622   9.893 -0.1577 -0.0192 -0.1081
   96loPI   C2B 1534  11.776  15.617   9.549 -0.2532 -0.0694  0.0628
   96loPI   C3B 1535  12.009  15.552   9.156 -0.1724 -0.2529 -0.1184
   96loPI   C4B 1536  12.017  15.602   8.720  0.1280  0.0406  0.1511
   97loPI    C1 1537   0.276   9.930  11.318  0.3509 -0.1435  0.1091
   97loPI    C2 1538  -0.016  10.055  11.561  0.1688  0.1834 -0.2653
   97loPI    C3 1539   0.280   9.827  11.704 -0.0960  0.1123  0.1891
   97loPI   PO4 1540   0.209   9.804  11.065  0.0629 -0.2877 -0.2757
   97loPI   GL1 1541   0.150  10.026  10.613  0.0182  0.0417  0.3073
   97loPI   GL2 1542   0.343  10.284  10.646 -0.0591 -0.1792  0.2060
   97loPI   C1A 1543   0.382   9.798  10.372 -0.0516  0.0332  0.0191
   97loPI   C2A 1544   0.431   9.750   9.944  0.1490  0.2701  0.0699
   97loPI   C3A 1545   0.311   9.818   9.483 -0.1605 -0.0484 -0.2196
   97loPI   C4A 1546   0.305   9.848   9.019 -0.1755 -0.0920  0.1318
   97loPI   C5A 1547   0.479   9.876   8.709 -0.0802 -0.3659  0.1818
   97loPI   C6A 1548   0.578   9.710   8.204 -0.1244  0.2121  0.0458
   97loPI   C1B 1549   0.251  10.255  10.196 -0.2893  0.3559  0.3380
   97loPI   C2B 1550   0.232  10.343   9.732  0.0923  0.0659  0.1054
   97loPI   C3B 1551   0.191  10.290   9.289 -0.3215 -0.0477 -0.0756
   97loPI   C4B 1552   0.222  10.284   8.792  0.2349 -0.1281  0.1969
   98loPI    C1 1553   2.559  11.053  11.235 -0.1038  0.0150  0.0805
   98loPI    C2 1554   2.698  11.375  11.428 -0.0815  0.0277  0.0434
   98loPI    C3 1555   2.893  11.026  11.452 -0.1024  0.0183  0.0787
   98loPI   PO4 1556   2.515  11.132  11.044 -0.1631 -0.1983  0.0487
   98loPI   GL1 1557   2.741  10.983  10.719  0.1318 -0.2106  0.1936
   98loPI   GL2 1558   2.775  10.686  10.694 -0.0541 -0.3368 -0.3629
   98loPI   C1A 1559   2.455  11.125  10.426  0.2400 -0.2676  0.2051
   98loPI   C2A 1560   2.341  11.175   9.953 -0.2194 -0.0742 -0.2511
   98loPI   C3A 1561   2.352  11.085   9.590  0.1456  0.1512 -0.1421
   98loPI   C4A 1562   2.256  11.028   9.113  0.1230  0.0005 -0.0593
   98loPI   C5A 1563   2.169  11.111   8.744  0.1086  0.0584  0.2031
   98loPI   C6A 1564   2.350  11.336   8.471  0.1562 -0.1876 -0.0961
   98loPI   C1B 1565   2.601  10.632  10.218 -0.3034  0.1525 -0.0047
   98loPI   C2B 1566   2.514  10.600   9.718  0.3346  0.2739 -0.3396
   98loPI   C3B 1567   2.316  10.599   9.384  0.3312 -0.4448 -0.0374
   98loPI   C4B 1568   2.332  10.594   8.923  0.0241 -0.1473  0.1248
   99loPI    C1 1569   7.555   6.898  10.994  0.0382 -0.2863  0.1743
   99loPI    C2 1570   7.921   6.786  11.111  0.2558  0.1796 -0.0315
   99loPI    C3 1571   7.660   6.929  11.379  0.3335  0.1363  0.0677
   99loPI   PO4 1572   7.653   6.964  10.689 -0.1054  0.3445 -0.0732
   99loPI   GL1 1573   7.816   6.835  10.285  0.2785  0.0033 -0.1298
   99loPI   GL2 1574   7.900   6.461  10.358  0.0553  0.1500  0.0825
   99loPI   C1A 1575   7.726   6.808   9.847 -0.0405  0.0238  0.2310
   99loPI   C2A 1576   7.807   6.870   9.446  0.1146 -0.1002 -0.1029
   99loPI   C3A 1577   7.811   6.908   8.981 -0.1873 -0.2892  0.1982
   99loPI   C4A 1578   7.783   6.929   8.561  0.2056  0.2273  0.3037
   99loPI   C5A 1579   7.678   7.197   8.236  0.0655  0.2673  0.0972
   99loPI   C6A 1580   7.393   6.950   7.917 -0.2277  0.0085  0.5570
   99loPI   C1B 1581   7.919   6.318   9.976  0.0150 -0.2290  0.3126
   99loPI   C2B 1582   7.865   6.302   9.525 -0.1686 -0.1293  0.1519
   99loPI   C3B 1583   7.891   6.331   9.038  0.2029 -0.1043 -0.1175
   99loPI   C4B 1584   7.955   6.423   8.568 -0.5015  0.2683 -0.3469
  100loPI    C1 1585  15.375   8.504  10.991 -0.0932 -0.0270  0.0604
  100loPI    C2 1586  15.194   8.472  11.347 -0.2402  0.1766  0.0055
  100loPI    C3 1587  15.324   8.829  11.220  0.1147  0.0492  0.0008
  100loPI   PO4 1588  15.627   8.391  10.986 -0.1738  0.0814  0.1484
  100loPI   GL1 1589  15.904   8.477  10.682  0.0416  0.1640  0.0591
  100loPI   GL2 1590  15.877   8.073  10.581 -0.3076  0.1129 -0.0451
  100loPI   C1A 1591  16.209   8.535  10.331 -0.0779 -0.0452  0.1119
  100loPI   C2A 1592  16.368   8.467   9.943 -0.2804  0.1822  0.3627
  100loPI   C3A 1593  16.318   8.538   9.529 -0.0372 -0.0127 -0.1126
  100loPI   C4A 1594  16.363   8.460   9.114 -0.4037  0.1061  0.0819
  100loPI   C5A 1595  16.535   8.616   8.738  0.0917  0.2599 -0.1214
  100loPI   C6A 1596  16.659   8.824   8.427 -0.1388  0.0085 -0.0163
  100loPI   C1B 1597  15.968   8.031  10.131  0.0327 -0.0816  0.2938
  100loPI   C2B 1598  16.034   8.074   9.698 -0.2555  0.3347  0.2271
  100loPI   C3B 1599  15.958   8.182   9.350  0.1295 -0.0881  0.3667
  100loPI   C4B 1600  15.996   8.148   8.964  0.1902 -0.1787  0.1543
  101loPI    C1 1601   6.685  13.006  11.198  0.1253 -0.0022  0.1702
  101loPI    C2 1602   6.487  12.847  11.508 -0.0437  0.2684  0.2044
  101loPI    C3 1603   6.554  13.242  11.494 -0.0225  0.2568 -0.0956
  101loPI   PO4 1604   6.707  12.962  10.949  0.2547  0.1511 -0.0886
  101loPI   GL1 1605   6.496  12.840  10.626  0.1495 -0.2417  0.2516
  101loPI   GL2 1606   6.512  12.544  10.434 -0.0846  0.0859 -0.2161
  101loPI   C1A 1607   6.525  13.085  10.254 -0.2989 -0.1094 -0.1445
  101loPI   C2A 1608   6.513  13.026   9.879  0.1648 -0.0208  0.1827
  101loPI   C3A 1609   6.460  13.064   9.435 -0.1159  0.0893  0.1564
  101loPI   C4A 1610   6.501  13.100   8.951  0.1629  0.0032 -0.3099
  101loPI   C5A 1611   6.444  13.051   8.482 -0.0468 -0.2970  0.2108
  101loPI   C6A 1612   6.453  12.817   8.085  0.0355  0.2765  0.0896
  101loPI   C1B 1613   6.619  12.505  10.027  0.2412  0.0549  0.2383
  101loPI   C2B 1614   6.610  12.519   9.555 -0.3423  0.1568 -0.2932
  101loPI   C3B 1615   6.500  12.645   9.193  0.3767 -0.1403 -0.0788
  101loPI   C4B 1616   6.469  12.513   8.793  0.2691  0.0151 -0.0894
  102loPI    C1 1617   7.797   9.312  10.929 -0.3801 -0.2350  0.1360
  102loPI    C2 1618   7.683   9.141  11.272  0.2248  0.0241  0.4826
  102loPI    C3 1619   7.823   9.516  11.272  0.1723  0.0522 -0.0636
  102loPI   PO4 1620   7.915   9.094  10.776  0.4366  0.4007 -0.0839
  102loPI   GL1 1621   8.006   9.043  10.396  0.2159  0.4575 -0.1509
  102loPI   GL2 1622   8.205   9.087  10.293 -0.0472  0.0135  0.0369
  102loPI   C1A 1623   7.726   9.261  10.018 -0.0466  0.0815 -0.1659
  102loPI   C2A 1624   7.719   9.298   9.606 -0.1378  0.3280  0.1313
  102loPI   C3A 1625   7.698   9.174   9.194 -0.3954 -0.0437 -0.0237
  102loPI   C4A 1626   7.859   9.256   8.798  0.0513  0.1023 -0.0321
  102loPI   C5A 1627   8.248   9.486   8.696  0.1201  0.2496  0.3537
  102loPI   C6A 1628   8.522   9.695   8.394 -0.0119 -0.0475  0.4203
  102loPI   C1B 1629   8.185   9.030   9.779  0.0425 -0.1231 -0.1226
  102loPI   C2B 1630   8.247   9.034   9.347  0.3346 -0.0101 -0.1400
  102loPI   C3B 1631   8.312   9.032   8.873 -0.1168  0.0726 -0.1992
  102loPI   C4B 1632   8.325   9.031   8.417  0.4228 -0.0052  0.0775
  103loPI    C1 1633  16.668   1.601  10.986 -0.0605 -0.0474 -0.1081
  103loPI    C2 1634  16.269   1.630  10.979 -0.0399  0.2421 -0.2945
  103loPI    C3 1635  16.478   1.806  11.272 -0.0692 -0.2711  0.0490
  103loPI   PO4 1636  16.702   1.380  11.031  0.4650  0.1639 -0.2492
  103loPI   GL1 1637  16.771   1.136  10.656 -0.1714  0.1009 -0.1449
  103loPI   GL2 1638  16.582   0.839  10.499  0.2139 -0.2750  0.1849
  103loPI   C1A 1639  16.946   1.130  10.195  0.1690  0.0279  0.0168
  103loPI   C2A 1640  17.003   1.113   9.810  0.0358 -0.0144  0.0440
  103loPI   C3A 1641  16.997   1.165   9.389 -0.1826 -0.1770  0.1109
  103loPI   C4A 1642  16.938   1.103   9.073  0.0441 -0.0174 -0.6112
  103loPI   C5A 1643  17.096   1.096   8.594  0.3547  0.0938 -0.0440
  103loPI   C6A 1644  17.393   1.049   8.352 -0.4916 -0.1628  0.0645
  103loPI   C1B 1645  16.575   0.837  10.050  0.0542 -0.1102  0.0715
  103loPI   C2B 1646  16.676   0.748   9.615  0.0051  0.0110 -0.1820
  103loPI   C3B 1647  16.562   0.832   9.190  0.0465  0.1575  0.0411
  103loPI   C4B 1648  16.659   0.783   8.685  0.3692 -0.0761 -0.0799
  104loPI    C1 1649  10.493   1.103  11.278  0.2166 -0.1762  0.2593
  104loPI    C2 1650  10.592   1.297  11.614 -0.1838  0.2771  0.1265
  104loPI    C3 1651  10.208   1.226  11.530 -0.0657 -0.2074 -0.0392
  104loPI   PO4 1652  10.535   1.274  11.039 -0.1372 -0.0940 -0.1105
  104loPI   GL1 1653  10.387   1.127  10.566 -0.0249 -0.3134 -0.3004
  104loPI   GL2 1654  10.703   1.261  10.558 -0.2366 -0.1369 -0.1992
  104loPI   C1A 1655  10.365   1.268  10.116 -0.2399  0.2020 -0.1554
  104loPI   C2A 1656  10.313   1.286   9.804  0.1743  0.3318  0.0130
  104loPI   C3A 1657  10.343   1.303   9.367 -0.2403  0.0152  0.0852
  104loPI   C4A 1658  10.306   1.262   8.976  0.3921 -0.0621 -0.0090
  104loPI   C5A 1659  10.112   1.383   8.629  0.1538  0.1408 -0.0530
  104loPI   C6A 1660  10.028   1.454   8.256 -0.0982 -0.0025  0.0854
  104loPI   C1B 1661  10.889   1.136  10.178  0.2673  0.0564 -0.0649
  104loPI   C2B 1662  10.801   1.095   9.834  0.1762  0.0940 -0.1701
  104loPI   C3B 1663  10.824   1.220   9.534 -0.1252  0.1491 -0.0109
  104loPI   C4B 1664  10.831   1.145   9.119  0.0638  0.1634 -0.1019
  105loPI    C1 1665   0.975   6.822  12.014 -0.0690  0.2631 -0.2012
  105loPI    C2 1666   0.699   6.820  12.304 -0.1993 -0.1398 -0.3205
  105loPI    C3 1667   1.036   6.608  12.346 -0.1345 -0.0509 -0.3866
  105loPI   PO4 1668   0.806   6.717  11.826  0.3384 -0.2450  0.0109
  105loPI   GL1 1669   0.656   6.795  11.494 -0.0339 -0.3797  0.1887
  105loPI   GL2 1670   0.383   6.776  11.322 -0.1152 -0.0635  0.1124
  105loPI   C1A 1671   0.935   6.764  11.041 -0.2284  0.0786  0.0319
  105loPI   C2A 1672   1.063   6.709  10.589  0.1032  0.1525 -0.0207
  105loPI   C3A 1673   0.964   6.653  10.121  0.1824 -0.0216 -0.3018
  105loPI   C4A 1674   1.028   6.735   9.717  0.0888 -0.2555 -0.1640
  105loPI   C5A 1675   0.851   6.697   9.294 -0.1745 -0.1576  0.0990
  105loPI   C6A 1676   0.512   6.897   9.000 -0.0125  0.3113 -0.2794
  105loPI   C1B 1677   0.377   6.872  10.924  0.2521 -0.0435 -0.1039
  105loPI   C2B 1678   0.346   6.886  10.533 -0.2297 -0.1444  0.3123
  105loPI   C3B 1679   0.500   6.841  10.122  0.0069 -0.0270  0.1003
  105loPI   C4B 1680   0.489   6.927   9.591 -0.3090  0.1030 -0.1578
  106loPI    C1 1681   0.361   2.356  11.527  0.3518  0.0920  0.0473
  106loPI    C2 1682   0.656   2.182  11.733  0.0521 -0.2174  0.2249
  106loPI    C3 1683   0.289   2.023  11.736 -0.0550  0.0053 -0.2187
  106loPI   PO4 1684   0.403   2.358  11.176  0.0684 -0.2786  0.1345
  106loPI   GL1 1685   0.469   2.332  10.770  0.1291 -0.0862 -0.0992
  106loPI   GL2 1686   0.714   2.552  10.652  0.0314 -0.0368 -0.1378
  106loPI   C1A 1687   0.522   2.160  10.369 -0.1784  0.0519  0.3808
  106loPI   C2A 1688   0.589   2.220  10.006  0.2468 -0.3411  0.0624
  106loPI   C3A 1689   0.505   2.234   9.594 -0.0920  0.1549 -0.0728
  106loPI   C4A 1690   0.525   2.228   9.098 -0.0669  0.0529  0.0496
  106loPI   C5A 1691   0.455   2.097   8.698 -0.1455 -0.0067  0.1008
  106loPI   C6A 1692   0.502   1.960   8.248  0.2517  0.1367 -0.2081
  106loPI   C1B 1693   0.889   2.549  10.226  0.0075 -0.0939  0.2940
  106loPI   C2B 1694   0.956   2.503   9.774 -0.1769 -0.0050 -0.1111
  106loPI   C3B 1695   0.889   2.545   9.317  0.0587 -0.1599  0.1693
  106loPI   C4B 1696   0.893   2.537   8.945  0.0201  0.0933  0.0509
  107loPI    C1 1697   5.234   9.363  11.356 -0.1916  0.1492 -0.1104
  107loPI    C2 1698   5.298   9.693  11.572  0.0291 -0.0315  0.1056
  107loPI    C3 1699   5.276   9.337  11.753 -0.1640 -0.1417 -0.1302
  107loPI   PO4 1700   5.325   9.396  11.128 -0.0392 -0.1409 -0.2960
  107loPI   GL1 1701   5.374   9.188  10.736  0.0715  0.3142 -0.1683
  107loPI   GL2 1702   5.497   9.052  10.478 -0.2303 -0.1426  0.2673
  107loPI   C1A 1703   5.034   9.194  10.398 -0.1968  0.1503 -0.2791
  107loPI   C2A 1704   4.967   9.271   9.938  0.2712 -0.0029  0.0832
  107loPI   C3A 1705   4.983   9.219   9.526 -0.2791  0.0609  0.4098
  107loPI   C4A 1706   4.953   9.223   9.120 -0.1208  0.4835  0.1475
  107loPI   C5A 1707   5.014   9.274   8.654 -0.4898  0.3261 -0.2481
  107loPI   C6A 1708   5.154   9.465   8.313  0.0572  0.2561  0.1765
  107loPI   C1B 1709   5.449   9.064  10.027 -0.1041  0.1498  0.0681
  107loPI   C2B 1710   5.435   9.102   9.683 -0.1994  0.5120 -0.0416
  107loPI   C3B 1711   5.436   9.080   9.224 -0.0471  0.2450 -0.1663
  107loPI   C4B 1712   5.532   9.128   8.834  0.0108  0.0924  0.1879
  108loPI    C1 1713   6.064  12.611  11.352  0.0816 -0.2361 -0.0677
  108loPI    C2 1714   5.985  12.350  11.644  0.0970 -0.0130  0.1395
  108loPI    C3 1715   6.045  12.735  11.732 -0.0788  0.0905 -0.1788
  108loPI   PO4 1716   5.967  12.523  11.176  0.1422 -0.0887 -0.0166
  108loPI   GL1 1717   5.916  12.638  10.839 -0.1156  0.1183 -0.1041
  108loPI   GL2 1718   5.744  12.761  10.696  0.0630 -0.1843  0.2453
  108loPI   C1A 1719   6.079  12.676  10.337 -0.0261 -0.1467 -0.2068
  108loPI   C2A 1720   6.145  12.719   9.883 -0.1328  0.1811  0.1625
  108loPI   C3A 1721   6.093  12.754   9.474 -0.1461  0.1113 -0.0987
  108loPI   C4A 1722   6.033  12.669   9.035 -0.2622 -0.0308  0.1034
  108loPI   C5A 1723   6.036  12.728   8.666 -0.1090  0.0652  0.0718
  108loPI   C6A 1724   5.735  12.914   8.432  0.0342 -0.1091  0.1032
  108loPI   C1B 1725   5.553  12.815  10.168  0.0679  0.0273 -0.1332
  108loPI   C2B 1726   5.612  12.849   9.830  0.1899 -0.4082 -0.0473
  108loPI   C3B 1727   5.597  12.934   9.452 -0.0013 -0.4822  0.0854
  108loPI   C4B 1728   5.562  12.810   9.021 -0.1232 -0.1630 -0.1053
  109loPI    C1 1729   0.646  10.651  11.473 -0.0797 -0.1743  0.1855
  109loPI    C2 1730   0.323  10.417  11.450 -0.1507 -0.0407 -0.2758
  109loPI    C3 1731   0.281  10.814  11.461 -0.0125 -0.0318  0.0417
  109loPI   PO4 1732   0.741  10.603  11.295  0.4251 -0.2168  0.1135
  109loPI   GL1 1733   0.902  10.568  10.966  0.1867 -0.2717 -0.4276
  109loPI   GL2 1734   1.136  10.813  11.041  0.0487  0.1377 -0.0189
  109loPI   C1A 1735   0.705  10.622  10.478  0.2477  0.0598  0.1029
  109loPI   C2A 1736   0.628  10.623   9.994  0.2260 -0.4169 -0.1584
  109loPI   C3A 1737   0.562  10.683   9.535 -0.1538  0.0100  0.2204
  109loPI   C4A 1738   0.433  10.697   9.053 -0.0956  0.0218 -0.1048
  109loPI   C5A 1739   0.348  10.771   8.621  0.0310 -0.2324 -0.1533
  109loPI   C6A 1740   0.112  10.915   8.354 -0.0641  0.1665 -0.1369
  109loPI   C1B 1741   1.376  10.980  10.767 -0.2345  0.1660  0.1164
  109loPI   C2B 1742   1.453  10.937  10.356 -0.0327 -0.0887 -0.0270
  109loPI   C3B 1743   1.533  10.732  10.015  0.0784 -0.1872 -0.1703
  109loPI   C4B 1744   1.385  10.827   9.602  0.0994  0.0800  0.3346
  110loPI    C1 1745   5.598  14.534  11.341 -0.0275  0.1664  0.1771
  110loPI    C2 1746   5.658  14.191  11.536 -0.3651  0.0036  0.0037
  110loPI    C3 1747   5.677  14.538  11.733 -0.2336 -0.1259  0.2249
  110loPI   PO4 1748   5.399  14.521  11.185  0.1489 -0.2843 -0.2423
  110loPI   GL1 1749   5.567  14.677  10.817 -0.0603 -0.1667 -0.1939
  110loPI   GL2 1750   5.431  14.891  10.511 -0.1136  0.1619 -0.0728
  110loPI   C1A 1751   5.702  14.485  10.399 -0.2155  0.1098  0.2533
  110loPI   C2A 1752   5.842  14.192  10.078  0.0140  0.1721  0.0719
  110loPI   C3A 1753   5.789  14.318   9.667  0.4442  0.1558 -0.0417
  110loPI   C4A 1754   5.851  14.218   9.228 -0.1359 -0.0146  0.1318
  110loPI   C5A 1755   5.870  14.276   8.825  0.3250 -0.4343 -0.0453
  110loPI   C6A 1756   5.988  14.536   8.414 -0.1315 -0.5435 -0.0357
  110loPI   C1B 1757   5.458  14.755  10.012 -0.3061  0.0148 -0.0604
  110loPI   C2B 1758   5.562  14.822   9.645  0.1649 -0.0061 -0.0663
  110loPI   C3B 1759   5.829  14.767   9.331  0.0168 -0.3282  0.0175
  110loPI   C4B 1760   5.839  14.797   8.952  0.1954  0.2897 -0.0403
  111loPI    C1 1761  15.397  11.442  11.191 -0.1874  0.1978  0.0748
  111loPI    C2 1762  15.033  11.346  11.326 -0.1047  0.0073  0.1654
  111loPI    C3 1763  15.316  11.465  11.582 -0.0557 -0.0005  0.1149
  111loPI   PO4 1764  15.441  11.627  11.015 -0.0335 -0.0460 -0.2771
  111loPI   GL1 1765  15.611  11.599  10.647  0.1374  0.2320 -0.1250
  111loPI   GL2 1766  15.599  11.480  10.406 -0.0979 -0.3125  0.1996
  111loPI   C1A 1767  15.407  11.839  10.204 -0.3886 -0.1747  0.0132
  111loPI   C2A 1768  15.299  11.836   9.788 -0.2526  0.2238 -0.0770
  111loPI   C3A 1769  15.230  11.747   9.350 -0.1508 -0.1882 -0.1740
  111loPI   C4A 1770  15.170  11.688   8.979  0.0234  0.1550 -0.0909
  111loPI   C5A 1771  14.972  11.813   8.590  0.0409  0.3876  0.3269
  111loPI   C6A 1772  15.029  12.198   8.222 -0.0515  0.0460  0.1637
  111loPI   C1B 1773  15.677  11.428   9.985 -0.2244 -0.0467  0.3787
  111loPI   C2B 1774  15.595  11.491   9.556  0.0288  0.0983  0.2942
  111loPI   C3B 1775  15.599  11.438   9.100 -0.3374  0.1428 -0.2298
  111loPI   C4B 1776  15.556  11.488   8.725 -0.1235  0.2287 -0.1177
  112loPI    C1 1777   3.034   3.818  11.360 -0.0197  0.0874 -0.2528
  112loPI    C2 1778   2.927   3.843  11.744  0.1011 -0.5692 -0.1651
  112loPI    C3 1779   3.280   3.989  11.625 -0.1435  0.0814 -0.1331
  112loPI   PO4 1780   2.910   3.608  11.314 -0.5127  0.3192  0.0413
  112loPI   GL1 1781   2.673   3.606  10.955 -0.4515 -0.2043  0.0460
  112loPI   GL2 1782   2.497   3.847  10.915 -0.1252 -0.0215 -0.2119
  112loPI   C1A 1783   2.955   3.753  10.607 -0.1700 -0.0270  0.0282
  112loPI   C2A 1784   2.954   3.765  10.214 -0.1650 -0.1034  0.1085
  112loPI   C3A 1785   2.912   3.725   9.822 -0.0942 -0.0926  0.0002
  112loPI   C4A 1786   2.915   3.743   9.430  0.1349 -0.0148 -0.2897
  112loPI   C5A 1787   2.920   3.825   8.989 -0.2819 -0.0226 -0.1167
  112loPI   C6A 1788   2.835   3.979   8.608  0.1216 -0.0110  0.0310
  112loPI   C1B 1789   2.456   3.918  10.511 -0.2681  0.1609  0.1651
  112loPI   C2B 1790   2.532   3.875  10.023  0.0962 -0.2262  0.0460
  112loPI   C3B 1791   2.495   3.970   9.639 -0.0841 -0.2451 -0.0011
  112loPI   C4B 1792   2.293   3.930   9.249  0.0968  0.0288 -0.1031
  113loPI    C1 1793  17.539   2.168  11.238  0.0102  0.0600 -0.0367
  113loPI    C2 1794  17.364   2.192  11.597 -0.0497  0.0352 -0.0642
  113loPI    C3 1795  17.495   2.524  11.416 -0.0667  0.0536 -0.0427
  113loPI   PO4 1796  17.412   2.090  11.093  0.0569 -0.0933 -0.1285
  113loPI   GL1 1797  17.477   1.997  10.688 -0.0619 -0.1006  0.2399
  113loPI   GL2 1798  17.599   2.280  10.556 -0.0109  0.3265 -0.1025
  113loPI   C1A 1799  17.218   1.936  10.285  0.1496 -0.0976  0.0160
  113loPI   C2A 1800  17.343   2.011   9.869 -0.0180 -0.2188  0.2060
  113loPI   C3A 1801  17.304   2.040   9.394  0.0485  0.0503 -0.0204
  113loPI   C4A 1802  17.350   1.975   9.008 -0.1235 -0.1116 -0.2259
  113loPI   C5A 1803  17.613   1.841   8.639  0.2060  0.1436  0.0537
  113loPI   C6A 1804  18.014   1.554   8.557 -0.0172  0.0893  0.0013
  113loPI   C1B 1805  17.616   2.290  10.146 -0.1870 -0.2130  0.0642
  113loPI   C2B 1806  17.712   2.336   9.752  0.0529 -0.1341  0.2315
  113loPI   C3B 1807  17.626   2.399   9.353 -0.0275  0.0223  0.1115
  113loPI   C4B 1808  17.714   2.364   8.981 -0.0134  0.0028  0.0819
  114loPI    C1 1809  16.332   3.421  11.119  0.0811  0.0453 -0.0505
  114loPI    C2 1810  16.001   3.448  11.342  0.0394  0.1425 -0.1240
  114loPI    C3 1811  16.311   3.232  11.471 -0.0369  0.0849 -0.0357
  114loPI   PO4 1812  16.270   3.352  10.935  0.1489  0.1490 -0.2478
  114loPI   GL1 1813  16.218   3.693  10.748  0.1276 -0.0897 -0.1972
  114loPI   GL2 1814  16.351   4.045  10.937 -0.0286  0.0731  0.2732
  114loPI   C1A 1815  16.393   3.846  10.379 -0.0466 -0.0361  0.0016
  114loPI   C2A 1816  16.479   3.664  10.063  0.1146 -0.2627 -0.3362
  114loPI   C3A 1817  16.493   3.725   9.662  0.0351 -0.1660 -0.0111
  114loPI   C4A 1818  16.501   3.576   9.281  0.1228 -0.2154 -0.0062
  114loPI   C5A 1819  16.348   3.738   8.867 -0.3485  0.1941  0.0654
  114loPI   C6A 1820  16.195   4.086   8.645  0.0698 -0.0197  0.0550
  114loPI   C1B 1821  16.130   4.259  10.504  0.1268  0.0295  0.4388
  114loPI   C2B 1822  16.334   4.231   9.964  0.0355 -0.1629 -0.2206
  114loPI   C3B 1823  16.299   4.142   9.588 -0.1382  0.2657 -0.1052
  114loPI   C4B 1824  16.292   4.174   9.179 -0.0570 -0.1654 -0.1249
  115loPI    C1 1825  13.564  12.893  11.438 -0.0764  0.2169 -0.0570
  115loPI    C2 1826  13.275  13.107  11.613 -0.0166  0.0116  0.3013
  115loPI    C3 1827  13.415  12.777  11.791 -0.1149 -0.3379 -0.2457
  115loPI   PO4 1828  13.493  12.809  11.226 -0.0285 -0.1292  0.1165
  115loPI   GL1 1829  13.601  12.957  10.843 -0.0192  0.0959  0.2234
  115loPI   GL2 1830  13.721  13.277  10.760  0.1667 -0.0369 -0.3027
  115loPI   C1A 1831  13.797  12.655  10.459  0.1054  0.1259 -0.2352
  115loPI   C2A 1832  13.986  12.571   9.959 -0.2404 -0.0954  0.0983
  115loPI   C3A 1833  14.099  12.590   9.486 -0.1731  0.0881  0.0960
  115loPI   C4A 1834  13.987  12.563   9.011  0.0802 -0.0772  0.0830
  115loPI   C5A 1835  13.808  12.583   8.520  0.0264 -0.4540 -0.0766
  115loPI   C6A 1836  13.632  12.892   8.306  0.0386 -0.0871 -0.0117
  115loPI   C1B 1837  13.752  13.122  10.322 -0.0145 -0.0514 -0.0188
  115loPI   C2B 1838  13.882  13.167   9.889  0.1910 -0.0224  0.3165
  115loPI   C3B 1839  13.961  13.187   9.491  0.4883 -0.1599 -0.2704
  115loPI   C4B 1840  14.050  13.118   9.088 -0.1314  0.0765  0.0679
  116loPI    C1 1841   7.057   3.230  11.632 -0.0935 -0.0264 -0.0369
  116loPI    C2 1842   6.683   3.335  11.729 -0.0969 -0.2397  0.1895
  116loPI    C3 1843   6.856   3.022  11.908  0.0905 -0.3152 -0.1162
  116loPI   PO4 1844   7.001   3.267  11.331  0.2845  0.0491  0.1455
  116loPI   GL1 1845   6.880   3.031  11.002  0.2582  0.0834 -0.2198
  116loPI   GL2 1846   6.575   2.922  10.938 -0.1976 -0.0093  0.0349
  116loPI   C1A 1847   6.965   2.922  10.605  0.1709  0.2458 -0.0050
  116loPI   C2A 1848   6.758   2.902  10.236  0.1290  0.1083  0.0605
  116loPI   C3A 1849   6.803   3.024   9.866  0.1174 -0.0444 -0.1869
  116loPI   C4A 1850   6.783   2.996   9.443 -0.0888  0.0476  0.2169
  116loPI   C5A 1851   6.678   3.008   9.072 -0.2546 -0.1506  0.1603
  116loPI   C6A 1852   6.786   3.390   8.793 -0.0722 -0.1248 -0.2278
  116loPI   C1B 1853   6.456   3.063  10.598  0.1490  0.0162  0.2076
  116loPI   C2B 1854   6.256   2.981  10.146 -0.0175 -0.0370 -0.0178
  116loPI   C3B 1855   6.240   3.042   9.786 -0.0624  0.0135  0.1680
  116loPI   C4B 1856   6.313   3.225   9.397  0.2443 -0.0384  0.0618
  117loPI    C1 1857   8.223  15.889  11.282  0.2382  0.1966 -0.2152
  117loPI    C2 1858   8.176  15.705  11.635  0.0850  0.1932 -0.2369
  117loPI    C3 1859   8.542  15.801  11.507  0.1453  0.1440 -0.1026
  117loPI   PO4 1860   8.192  15.711  11.036  0.1411 -0.0667  0.1188
  117loPI   GL1 1861   8.343  15.660  10.513 -0.0802  0.0597  0.1387
  117loPI   GL2 1862   8.074  15.764  10.495 -0.0247 -0.3860 -0.1186
  117loPI   C1A 1863   8.309  15.804  10.072  0.3263 -0.0046  0.3651
  117loPI   C2A 1864   8.201  15.889   9.813  0.0832  0.0752  0.0345
  117loPI   C3A 1865   8.258  15.820   9.305 -0.1222  0.0687 -0.4460
  117loPI   C4A 1866   8.252  15.888   8.941  0.0326  0.0282  0.0580
  117loPI   C5A 1867   8.530  15.930   8.613  0.3104  0.0283 -0.2976
  117loPI   C6A 1868   8.917  15.857   8.413 -0.1890  0.2961  0.2350
  117loPI   C1B 1869   7.774  16.002  10.167 -0.1029  0.1747 -0.1941
  117loPI   C2B 1870   7.708  16.109   9.782 -0.2762 -0.1119  0.3128
  117loPI   C3B 1871   7.811  16.047   9.425  0.1588  0.1280  0.1674
  117loPI   C4B 1872   7.763  15.918   8.999 -0.1212  0.1069  0.0122
  118loPI    C1 1873   6.254  11.318  11.260 -0.2230  0.0047 -0.1483
  118loPI    C2 1874   6.063  10.968  11.288  0.2115 -0.2459 -0.2302
  118loPI    C3 1875   6.359  11.055  11.542 -0.0297  0.1548 -0.0781
  118loPI   PO4 1876   6.311  11.369  11.008 -0.2400 -0.0920 -0.0446
  118loPI   GL1 1877   6.444  11.273  10.698  0.0953  0.0475 -0.0516
  118loPI   GL2 1878   6.214  10.927  10.699  0.0336  0.0425  0.0839
  118loPI   C1A 1879   6.647  11.215  10.305  0.2669 -0.1730  0.1231
  118loPI   C2A 1880   6.502  11.163   9.931  0.0332  0.0665  0.1619
  118loPI   C3A 1881   6.502  11.192   9.462  0.3113 -0.0943 -0.0347
  118loPI   C4A 1882   6.432  11.102   9.169 -0.1692  0.0514  0.0730
  118loPI   C5A 1883   6.364  11.218   8.781  0.0668 -0.4204 -0.0780
  118loPI   C6A 1884   6.012  11.396   8.507 -0.1360  0.0369 -0.1447
  118loPI   C1B 1885   6.164  10.875  10.307 -0.3175 -0.2961  0.2332
  118loPI   C2B 1886   6.068  10.779   9.870  0.1578  0.2723 -0.0660
  118loPI   C3B 1887   5.965  10.855   9.356  0.1914  0.1092 -0.1928
  118loPI   C4B 1888   6.067  10.839   8.916  0.1946  0.3470 -0.0443
  119loPI    C1 1889  16.309  11.767  11.141  0.0482 -0.1161 -0.0904
  119loPI    C2 1890  16.612  11.571  11.313 -0.1537 -0.1445  0.2407
  119loPI    C3 1891  16.373  11.804  11.534 -0.2072  0.0975 -0.0657
  119loPI   PO4 1892  16.257  11.626  10.916 -0.3015  0.1462 -0.2311
  119loPI   GL1 1893  16.397  11.503  10.566 -0.2397  0.1557 -0.1086
  119loPI   GL2 1894  16.068  11.383  10.493  0.1276 -0.3094  0.3127
  119loPI   C1A 1895  16.444  11.775  10.207 -0.1295  0.1335  0.0249
  119loPI   C2A 1896  16.464  11.852   9.791 -0.0063 -0.0293 -0.1484
  119loPI   C3A 1897  16.494  11.834   9.403  0.1497 -0.1951  0.1299
  119loPI   C4A 1898  16.521  11.650   9.098  0.1973 -0.2727  0.3905
  119loPI   C5A 1899  16.591  11.606   8.616 -0.0434  0.2546  0.2683
  119loPI   C6A 1900  16.650  11.610   8.133 -0.2872 -0.0667 -0.0439
  119loPI   C1B 1901  16.173  11.396  10.070 -0.1133 -0.0339 -0.2204
  119loPI   C2B 1902  16.152  11.450   9.685  0.0068  0.0965  0.0743
  119loPI   C3B 1903  16.116  11.366   9.172 -0.0186 -0.0380 -0.0821
  119loPI   C4B 1904  16.178  11.261   8.792 -0.0463  0.0364 -0.0068
  120loPI    C1 1905   2.474   7.334  11.846  0.1300 -0.2608 -0.0337
  120loPI    C2 1906   2.352   7.713  11.876 -0.0742 -0.3023 -0.2990
  120loPI    C3 1907   2.606   7.563  12.146 -0.0572 -0.0034 -0.1440
  120loPI   PO4 1908   2.551   7.318  11.480 -0.2262  0.0535 -0.2857
  120loPI   GL1 1909   2.404   7.261  11.206 -0.0731 -0.2114 -0.3529
  120loPI   GL2 1910   2.192   7.222  11.003  0.0913  0.0504 -0.0674
  120loPI   C1A 1911   2.517   7.596  10.806 -0.1230  0.2712  0.5054
  120loPI   C2A 1912   2.536   7.633  10.351  0.2125  0.1413 -0.0524
  120loPI   C3A 1913   2.561   7.667   9.895  0.0924  0.2733  0.2420
  120loPI   C4A 1914   2.663   7.636   9.441  0.1081 -0.1717  0.1358
  120loPI   C5A 1915   2.349   7.796   9.018  0.0318 -0.1794 -0.1428
  120loPI   C6A 1916   1.896   7.877   8.935 -0.1756  0.2042 -0.1269
  120loPI   C1B 1917   2.254   7.268  10.562  0.2882 -0.2464  0.1262
  120loPI   C2B 1918   2.190   7.205  10.101  0.1708  0.1763  0.2371
  120loPI   C3B 1919   2.239   7.322   9.690  0.0892  0.2156  0.0275
  120loPI   C4B 1920   2.317   7.266   9.269  0.1411 -0.0897 -0.0661
  121loPI    C1 1921   3.394   6.196  11.645 -0.2580 -0.1824  0.1811
  121loPI    C2 1922   3.752   6.348  11.740 -0.3095 -0.0228  0.1221
  121loPI    C3 1923   3.694   5.952  11.750 -0.1429 -0.0467  0.1702
  121loPI   PO4 1924   3.298   6.258  11.450 -0.2279  0.1643 -0.2010
  121loPI   GL1 1925   3.166   6.561  11.085 -0.3573 -0.2836 -0.2336
  121loPI   GL2 1926   2.926   6.476  11.061  0.0091  0.1900 -0.0819
  121loPI   C1A 1927   3.300   6.424  10.678  0.0747 -0.2999  0.4057
  121loPI   C2A 1928   3.303   6.339  10.206  0.1120 -0.4738  0.1162
  121loPI   C3A 1929   3.323   6.424   9.806  0.2038  0.0057  0.0201
  121loPI   C4A 1930   3.389   6.485   9.346 -0.0886  0.2272 -0.1776
  121loPI   C5A 1931   3.459   6.647   8.939 -0.0061 -0.1844 -0.1214
  121loPI   C6A 1932   3.801   6.660   8.730 -0.4302 -0.1782  0.0161
  121loPI   C1B 1933   2.811   6.607  10.754  0.0055 -0.0782 -0.0034
  121loPI   C2B 1934   2.793   6.518  10.375 -0.0652  0.4149  0.0884
  121loPI   C3B 1935   2.833   6.615   9.858 -0.1253  0.1155 -0.1304
  121loPI   C4B 1936   2.881   6.626   9.427  0.0937 -0.0154 -0.0860
  122loPI    C1 1937   9.500  16.721  11.398 -0.0486 -0.2124  0.2038
  122loPI    C2 1938   9.300  16.414  11.557 -0.3317  0.0296  0.3261
  122loPI    C3 1939   9.368  16.742  11.775 -0.0083  0.0464  0.2056
  122loPI   PO4 1940   9.412  16.768  11.107  0.0205  0.2716  0.0228
  122loPI   GL1 1941   9.295  16.591  10.717 -0.0446  0.2423 -0.0860
  122loPI   GL2 1942   9.485  16.902  10.656  0.0768  0.1356 -0.1406
  122loPI   C1A 1943   9.081  16.563  10.224 -0.0095  0.2787 -0.0792
  122loPI   C2A 1944   9.054  16.553   9.777  0.0535  0.1486  0.0855
  122loPI   C3A 1945   8.937  16.579   9.320 -0.0255 -0.1264 -0.1005
  122loPI   C4A 1946   9.140  16.585   8.926 -0.0483 -0.1469  0.0828
  122loPI   C5A 1947   9.181  16.805   8.561  0.1661  0.0289  0.1570
  122loPI   C6A 1948   9.465  17.093   8.352 -0.1366 -0.0305 -0.1336
  122loPI   C1B 1949   9.419  16.900  10.310  0.1325 -0.1555 -0.2045
  122loPI   C2B 1950   9.407  16.900   9.945  0.0575 -0.1155  0.1481
  122loPI   C3B 1951   9.387  16.877   9.401  0.1682 -0.0658  0.0249
  122loPI   C4B 1952   9.500  16.922   8.980  0.0390  0.0742 -0.1685
  123loPI    C1 1953  15.062   1.863  10.896  0.3378  0.0872 -0.0362
  123loPI    C2 1954  15.216   1.543  11.081  0.0112 -0.0501  0.0059
  123loPI    C3 1955  15.054   1.839  11.295  0.0600  0.0133 -0.0442
  123loPI   PO4 1956  15.172   1.940  10.686  0.2449  0.2962 -0.2350
  123loPI   GL1 1957  15.397   2.207  10.503  0.0093  0.0355  0.1703
  123loPI   GL2 1958  15.218   2.455  10.442  0.1520  0.1660  0.3365
  123loPI   C1A 1959  15.268   2.201   9.984  0.2236 -0.0510  0.2327
  123loPI   C2A 1960  15.262   2.097   9.502 -0.3521  0.0387 -0.0462
  123loPI   C3A 1961  15.352   2.184   9.080 -0.2191 -0.3762 -0.3220
  123loPI   C4A 1962  15.667   2.113   8.739  0.2855 -0.3068 -0.1409
  123loPI   C5A 1963  15.937   1.832   8.607 -0.2408 -0.3115 -0.2143
  123loPI   C6A 1964  16.340   1.936   8.647 -0.0592 -0.0710  0.0991
  123loPI   C1B 1965  15.140   2.690  10.024  0.0413  0.1071 -0.1045
  123loPI   C2B 1966  15.194   2.620   9.577 -0.3069  0.2965  0.0596
  123loPI   C3B 1967  15.307   2.687   9.187 -0.2295  0.1103 -0.2256
  123loPI   C4B 1968  15.353   2.586   8.812 -0.1067 -0.1233 -0.1031
  124loPI    C1 1969   2.579  12.009  11.417  0.1462 -0.2890  0.1072
  124loPI    C2 1970   2.546  12.341  11.638 -0.2610 -0.2796  0.0400
  124loPI    C3 1971   2.456  11.985  11.797  0.1698 -0.3618  0.1103
  124loPI   PO4 1972   2.703  12.152  11.215 -0.1757 -0.1587 -0.0257
  124loPI   GL1 1973   2.725  12.370  10.848  0.0116 -0.1666 -0.2097
  124loPI   GL2 1974   2.463  12.470  10.668  0.0204 -0.2299  0.1249
  124loPI   C1A 1975   2.968  12.344  10.525  0.2944  0.0175  0.2822
  124loPI   C2A 1976   2.913  12.318   9.953 -0.1352 -0.0516  0.0338
  124loPI   C3A 1977   2.910  12.334   9.506  0.0152  0.0452 -0.0918
  124loPI   C4A 1978   2.978  12.293   9.157  0.0130  0.1227  0.2143
  124loPI   C5A 1979   2.950  12.444   8.717  0.1062  0.0600  0.0998
  124loPI   C6A 1980   2.647  12.871   8.654 -0.1092 -0.1034  0.1334
  124loPI   C1B 1981   2.499  12.451  10.198  0.3127 -0.1087  0.2422
  124loPI   C2B 1982   2.436  12.559   9.730 -0.0990  0.0660  0.0902
  124loPI   C3B 1983   2.563  12.532   9.274  0.2870  0.1173  0.3838
  124loPI   C4B 1984   2.500  12.500   8.925 -0.2488  0.1591  0.3055
  125loPI    C1 1985   1.286  15.800  11.453  0.1731  0.3234  0.4134
  125loPI    C2 1986   1.125  15.456  11.579 -0.1395  0.3756  0.1693
  125loPI    C3 1987   1.504  15.544  11.670 -0.0362 -0.0605  0.1841
  125loPI   PO4 1988   1.311  15.817  11.276  0.2219 -0.1315 -0.1029
  125loPI   GL1 1989   1.330  16.037  10.967 -0.0856  0.2969 -0.0977
  125loPI   GL2 1990   1.148  15.786  10.795 -0.0797 -0.3843  0.0485
  125loPI   C1A 1991   1.624  16.133  10.606  0.4382  0.1902  0.1666
  125loPI   C2A 1992   1.773  16.220  10.206  0.0376  0.0428  0.0257
  125loPI   C3A 1993   1.780  16.170   9.747 -0.0107 -0.0010 -0.0349
  125loPI   C4A 1994   1.788  16.028   9.393  0.0729 -0.1414  0.0441
  125loPI   C5A 1995   1.716  15.995   8.999  0.1878 -0.2080  0.0796
  125loPI   C6A 1996   1.855  15.936   8.489  0.1322 -0.1845 -0.1357
  125loPI   C1B 1997   1.291  15.837  10.412  0.2089  0.4124 -0.0936
  125loPI   C2B 1998   1.424  15.713  10.082  0.2606 -0.1254 -0.1268
  125loPI   C3B 1999   1.269  15.696   9.711  0.0207  0.1299  0.0233
  125loPI   C4B 2000   1.266  15.645   9.152 -0.2494  0.0638  0.2943
  126loPI    C1 2001  13.707  15.409  11.003 -0.0208  0.2385  0.0507
  126loPI    C2 2002  13.918  15.174  11.248  0.0005  0.0303 -0.1630
  126loPI    C3 2003  13.704  15.477  11.397  0.1257 -0.0055  0.0964
  126loPI   PO4 2004  13.710  15.187  10.784 -0.0204 -0.0820  0.2391
  126loPI   GL1 2005  14.014  15.079  10.405 -0.0876 -0.2042 -0.2507
  126loPI   GL2 2006  13.844  15.068   9.997 -0.0482  0.0538  0.1615
  126loPI   C1A 2007  14.254  15.274  10.085 -0.0906 -0.0964 -0.0038
  126loPI   C2A 2008  14.388  15.263   9.598  0.0369 -0.2358 -0.2172
  126loPI   C3A 2009  14.455  15.332   9.104  0.0623 -0.0669  0.0164
  126loPI   C4A 2010  14.489  15.377   8.679 -0.0950 -0.2763  0.1474
  126loPI   C5A 2011  14.681  15.391   8.167  0.0276 -0.0017 -0.0810
  126loPI   C6A 2012  14.755  15.302   7.682  0.0437  0.0900 -0.3324
  126loPI   C1B 2013  13.907  15.074   9.574 -0.2704 -0.0863 -0.4022
  126loPI   C2B 2014  14.037  15.030   9.167 -0.1007  0.0831 -0.0493
  126loPI   C3B 2015  14.074  15.012   8.785  0.0690 -0.1644 -0.1134
  126loPI   C4B 2016  13.882  14.951   8.389  0.1176  0.0354 -0.0347
  127loPI    C1 2017  11.953   7.937  10.595 -0.0135  0.0696  0.0292
  127loPI    C2 2018  12.114   7.664  10.839 -0.0278 -0.1679 -0.2218
  127loPI    C3 2019  11.837   7.918  10.978 -0.0057 -0.2713  0.0177
  127loPI   PO4 2020  11.886   7.852  10.406 -0.2247 -0.1816  0.1438
  127loPI   GL1 2021  11.720   7.477  10.112  0.0227  0.2098 -0.0839
  127loPI   GL2 2022  11.495   7.394  10.017  0.0657 -0.0258  0.0270
  127loPI   C1A 2023  11.700   7.776   9.753 -0.2862  0.0325 -0.1063
  127loPI   C2A 2024  11.598   7.940   9.391 -0.0148  0.3695  0.1998
  127loPI   C3A 2025  11.545   8.005   8.974  0.1632  0.3130  0.1196
  127loPI   C4A 2026  11.553   7.798   8.593  0.0973 -0.0744 -0.1133
  127loPI   C5A 2027  11.654   7.872   8.213  0.1275  0.2259 -0.1130
  127loPI   C6A 2028  11.585   7.636   7.853  0.1798 -0.0911  0.1376
  127loPI   C1B 2029  11.356   7.301   9.658 -0.2563 -0.1633  0.0021
  127loPI   C2B 2030  11.394   7.191   9.216  0.1476  0.1728 -0.2489
  127loPI   C3B 2031  11.589   7.021   8.922 -0.0037 -0.1212  0.0024
  127loPI   C4B 2032  11.937   6.895   8.850 -0.2292  0.0357  0.0981
  128loPI    C1 2033  15.480  14.928  11.477  0.2995 -0.0354 -0.0359
  128loPI    C2 2034  15.170  14.702  11.591  0.0482  0.1170 -0.3938
  128loPI    C3 2035  15.542  14.603  11.700 -0.1351  0.0199  0.1773
  128loPI   PO4 2036  15.529  14.915  11.235  0.0964  0.0542 -0.1265
  128loPI   GL1 2037  15.502  15.059  10.775  0.1952  0.0842 -0.0811
  128loPI   GL2 2038  15.578  14.695  10.797 -0.1092 -0.0238  0.0521
  128loPI   C1A 2039  15.693  15.229  10.307  0.0603 -0.0018  0.0697
  128loPI   C2A 2040  15.659  15.266   9.854  0.2681  0.2267  0.0780
  128loPI   C3A 2041  15.866  15.358   9.505  0.1327  0.0819 -0.1073
  128loPI   C4A 2042  15.777  15.275   9.044  0.0978 -0.3271 -0.2419
  128loPI   C5A 2043  15.857  15.368   8.732 -0.0573 -0.0333  0.0030
  128loPI   C6A 2044  16.103  15.355   8.495 -0.1946  0.2583  0.0674
  128loPI   C1B 2045  15.320  14.540  10.400  0.0328  0.0396  0.3214
  128loPI   C2B 2046  15.358  14.472   9.956  0.0756 -0.1856  0.2790
  128loPI   C3B 2047  15.524  14.535   9.545 -0.0422 -0.0078  0.3104
  128loPI   C4B 2048  15.583  14.545   9.062  0.1599  0.0497  0.0204
  129loPI    C1 2049  14.334  14.907  11.217 -0.0852 -0.0437  0.0735
  129loPI    C2 2050  14.424  15.191  11.484  0.2337 -0.0348 -0.0395
  129loPI    C3 2051  14.289  14.836  11.608 -0.1195  0.1453  0.1052
  129loPI   PO4 2052  14.496  14.866  11.047  0.2818  0.1980  0.3139
  129loPI   GL1 2053  14.507  14.671  10.700 -0.0002 -0.0116  0.0530
  129loPI   GL2 2054  14.784  14.511  10.609  0.2499 -0.1669  0.1496
  129loPI   C1A 2055  14.432  14.755  10.337 -0.3137  0.1321  0.1584
  129loPI   C2A 2056  14.468  14.834   9.907  0.2255 -0.1263  0.0097
  129loPI   C3A 2057  14.465  14.859   9.386  0.2161  0.0207 -0.2708
  129loPI   C4A 2058  14.512  14.803   8.981 -0.0905  0.2062  0.0196
  129loPI   C5A 2059  14.751  14.958   8.565 -0.1330 -0.0343 -0.3084
  129loPI   C6A 2060  14.988  15.331   8.587  0.0549 -0.2059 -0.1575
  129loPI   C1B 2061  14.896  14.700  10.212 -0.2800 -0.1693 -0.0761
  129loPI   C2B 2062  14.913  14.671   9.736  0.0291 -0.0671 -0.2146
  129loPI   C3B 2063  14.960  14.662   9.315 -0.1975  0.0342  0.1098
  129loPI   C4B 2064  15.066  14.653   8.835 -0.0047 -0.1275 -0.0572
  130loPI    C1 2065  16.900   8.102  11.554  0.0131  0.1073 -0.0064
  130loPI    C2 2066  17.230   7.895  11.644  0.1007  0.2121 -0.0835
  130loPI    C3 2067  17.010   8.057  11.936 -0.0428 -0.1015 -0.0136
  130loPI   PO4 2068  16.882   7.960  11.240 -0.0592  0.2592  0.1866
  130loPI   GL1 2069  16.763   7.819  10.863  0.4651  0.3339 -0.0426
  130loPI   GL2 2070  16.524   7.670  10.863 -0.2140 -0.3059 -0.0735
  130loPI   C1A 2071  16.916   7.686  10.420 -0.1558 -0.1626  0.3163
  130loPI   C2A 2072  16.962   7.675   9.951 -0.3911 -0.1743  0.1932
  130loPI   C3A 2073  17.040   7.881   9.573 -0.0791 -0.1563 -0.1625
  130loPI   C4A 2074  17.030   7.870   9.161 -0.1360 -0.0260  0.4777
  130loPI   C5A 2075  17.280   7.765   8.862 -0.2232 -0.0843  0.0823
  130loPI   C6A 2076  17.656   7.514   8.896 -0.0806  0.0366  0.0728
  130loPI   C1B 2077  16.518   7.393  10.458 -0.2878 -0.2294  0.2529
  130loPI   C2B 2078  16.645   7.302  10.050 -0.0339  0.1645 -0.0541
  130loPI   C3B 2079  16.637   7.352   9.608 -0.0667 -0.0239  0.6448
  130loPI   C4B 2080  16.569   7.489   9.297 -0.1897 -0.1781  0.2769
  131loPI    C1 2081   6.366   8.175  11.159  0.3797  0.2088 -0.0037
  131loPI    C2 2082   6.220   8.434  11.426  0.0510  0.0608 -0.0357
  131loPI    C3 2083   6.471   8.145  11.543  0.3034  0.3013  0.0245
  131loPI   PO4 2084   6.380   8.276  10.920  0.0052 -0.2215  0.0815
  131loPI   GL1 2085   6.179   8.372  10.541  0.0049  0.0668 -0.0316
  131loPI   GL2 2086   6.545   8.337  10.396  0.2104 -0.0388 -0.2138
  131loPI   C1A 2087   6.068   8.391  10.118  0.1282  0.0389  0.5202
  131loPI   C2A 2088   6.065   8.412   9.596  0.3517 -0.0521  0.0103
  131loPI   C3A 2089   6.075   8.368   9.159 -0.0981  0.2038 -0.0643
  131loPI   C4A 2090   6.163   8.329   8.698  0.0577  0.0851  0.0559
  131loPI   C5A 2091   6.157   8.636   8.348 -0.1453 -0.1657  0.0634
  131loPI   C6A 2092   5.788   8.940   8.334  0.1018 -0.0390  0.1239
  131loPI   C1B 2093   6.495   8.225   9.909  0.1645 -0.1808  0.1723
  131loPI   C2B 2094   6.510   8.203   9.500  0.1566 -0.0871  0.1161
  131loPI   C3B 2095   6.545   8.176   9.109  0.0769 -0.1392  0.1205
  131loPI   C4B 2096   6.568   8.114   8.655  0.0519  0.0665 -0.0540
  132loPI    C1 2097   4.035  11.451  11.359  0.2076  0.0428 -0.0948
  132loPI    C2 2098   3.752  11.519  11.633  0.1871 -0.0456 -0.0938
  132loPI    C3 2099   4.120  11.410  11.747  0.2298  0.0962 -0.0939
  132loPI   PO4 2100   3.962  11.601  11.194  0.2778  0.0752  0.0065
  132loPI   GL1 2101   3.861  11.430  10.763  0.0275  0.0118 -0.0815
  132loPI   GL2 2102   3.693  11.783  10.672  0.2650  0.0090 -0.0105
  132loPI   C1A 2103   4.082  11.482  10.350 -0.0545  0.2729 -0.1410
  132loPI   C2A 2104   4.088  11.510   9.884  0.0846 -0.0674 -0.0170
  132loPI   C3A 2105   4.043  11.525   9.477 -0.0378 -0.0858  0.0652
  132loPI   C4A 2106   4.040  11.526   9.075  0.1427  0.1032 -0.0900
  132loPI   C5A 2107   3.776  11.542   8.721  0.1271  0.0339  0.1126
  132loPI   C6A 2108   3.385  11.505   8.513 -0.1678 -0.3529  0.2166
  132loPI   C1B 2109   3.617  11.635  10.364  0.0361  0.0317  0.3111
  132loPI   C2B 2110   3.610  11.667   9.935  0.2139 -0.0194  0.0806
  132loPI   C3B 2111   3.506  11.623   9.516 -0.1229  0.3696 -0.2001
  132loPI   C4B 2112   3.457  11.638   9.092 -0.0600 -0.0031  0.0191
  133loPI    C1 2113  16.345  12.338  11.092  0.1688  0.2089 -0.1011
  133loPI    C2 2114  16.170  12.567  11.369 -0.1325  0.0152 -0.1259
  133loPI    C3 2115  16.455  12.308  11.475 -0.0601  0.1293 -0.0395
  133loPI   PO4 2116  16.216  12.293  10.951  0.0088 -0.1840 -0.0322
  133loPI   GL1 2117  16.295  12.523  10.568 -0.2456 -0.2598  0.1060
  133loPI   GL2 2118  16.332  12.255  10.335 -0.0859  0.0888 -0.1674
  133loPI   C1A 2119  16.246  12.859  10.271 -0.0335  0.0407  0.1258
  133loPI   C2A 2120  16.220  12.924   9.776  0.2245 -0.1555 -0.0821
  133loPI   C3A 2121  16.267  12.821   9.292  0.1650  0.0425 -0.0876
  133loPI   C4A 2122  16.415  12.546   8.903 -0.1094 -0.0446 -0.2170
  133loPI   C5A 2123  16.462  12.259   8.619  0.0474  0.1079 -0.1892
  133loPI   C6A 2124  16.257  12.000   8.381 -0.0577 -0.1152 -0.0938
  133loPI   C1B 2125  16.349  12.310   9.909  0.1653 -0.0214 -0.0040
  133loPI   C2B 2126  16.397  12.310   9.449  0.1507 -0.0205  0.3772
  133loPI   C3B 2127  16.244  12.105   9.048 -0.0290  0.2169  0.0601
  133loPI   C4B 2128  16.039  11.718   8.723 -0.3897  0.1888 -0.2088
  134loPI    C1 2129   0.734   7.271  12.028 -0.3173 -0.1743 -0.0515
  134loPI    C2 2130   0.650   7.642  12.153 -0.1520 -0.0625 -0.2659
  134loPI    C3 2131   0.673   7.342  12.417  0.1956  0.1691 -0.0246
  134loPI   PO4 2132   0.864   7.322  11.718  0.4153  0.1260 -0.0049
  134loPI   GL1 2133   0.937   7.290  11.235 -0.1770  0.1013  0.0648
  134loPI   GL2 2134   1.171   7.491  11.022  0.2208  0.1916 -0.2624
  134loPI   C1A 2135   0.820   7.204  10.725 -0.1243  0.0832  0.1381
  134loPI   C2A 2136   0.882   7.121  10.315  0.1917  0.2374  0.1344
  134loPI   C3A 2137   0.804   7.197   9.907 -0.3205  0.0322 -0.2025
  134loPI   C4A 2138   0.915   7.208   9.537  0.0664  0.0158 -0.1017
  134loPI   C5A 2139   0.997   7.273   9.085  0.0405  0.1067  0.0607
  134loPI   C6A 2140   0.944   7.679   8.815 -0.1627  0.1512  0.0658
  134loPI   C1B 2141   1.281   7.514  10.613  0.3553  0.3210 -0.0323
  134loPI   C2B 2142   1.226   7.509  10.203  0.2008  0.0042  0.1174
  134loPI   C3B 2143   1.279   7.604   9.704 -0.2244 -0.2525 -0.0817
  134loPI   C4B 2144   1.321   7.632   9.206 -0.3117 -0.3057  0.0936
  135loPI    C1 2145  15.940   0.787  11.093  0.1397 -0.3532  0.1098
  135loPI    C2 2146  15.763   0.872  11.442  0.0256  0.2333 -0.0805
  135loPI    C3 2147  16.161   0.896  11.409  0.0678 -0.1489  0.0907
  135loPI   PO4 2148  15.818   0.582  11.007 -0.1778  0.1297  0.0133
  135loPI   GL1 2149  15.626   0.504  10.618 -0.1858 -0.2183 -0.0118
  135loPI   GL2 2150  15.381   0.721  10.653  0.1087  0.0967  0.1327
  135loPI   C1A 2151  15.724   0.607  10.098 -0.1581  0.1399 -0.1526
  135loPI   C2A 2152  15.626   0.625   9.642  0.2182 -0.0470  0.0679
  135loPI   C3A 2153  15.744   0.593   9.161 -0.2355  0.1141  0.0488
  135loPI   C4A 2154  15.673   0.324   8.790 -0.3092  0.3222 -0.1271
  135loPI   C5A 2155  15.512   0.093   8.299  0.0347 -0.4972 -0.0337
  135loPI   C6A 2156  15.313  -0.350   8.249 -0.1852  0.3077 -0.2352
  135loPI   C1B 2157  15.230   0.630  10.220 -0.0116 -0.0176 -0.1407
  135loPI   C2B 2158  15.151   0.736   9.798  0.1008  0.1003  0.2020
  135loPI   C3B 2159  15.251   0.743   9.357  0.0176 -0.2499 -0.0008
  135loPI   C4B 2160  15.162   0.791   8.893 -0.0340  0.2387 -0.0736
  136loPI    C1 2161  13.051  12.851  10.936  0.1822 -0.1012  0.0633
  136loPI    C2 2162  12.905  13.121  11.192 -0.1952  0.0348 -0.2843
  136loPI    C3 2163  13.000  12.755  11.321  0.2730  0.3052  0.1822
  136loPI   PO4 2164  13.123  13.018  10.755  0.0054  0.1179 -0.1051
  136loPI   GL1 2165  13.289  12.982  10.427  0.0667  0.2337  0.0396
  136loPI   GL2 2166  13.292  12.608  10.494 -0.0421  0.0183  0.0503
  136loPI   C1A 2167  13.365  13.167  10.069  0.0755  0.0495  0.0270
  136loPI   C2A 2168  13.381  13.264   9.597  0.0156  0.1395  0.2012
  136loPI   C3A 2169  13.482  13.343   9.170 -0.4668  0.4582  0.1780
  136loPI   C4A 2170  13.528  13.300   8.822  0.1641 -0.0804  0.0640
  136loPI   C5A 2171  13.401  13.350   8.408  0.0374  0.5353 -0.0617
  136loPI   C6A 2172  13.520  13.469   7.937 -0.0820 -0.0270  0.0832
  136loPI   C1B 2173  13.441  12.705  10.074 -0.4487  0.0180 -0.1057
  136loPI   C2B 2174  13.488  12.756   9.672 -0.0549  0.2847  0.0920
  136loPI   C3B 2175  13.596  12.745   9.277 -0.2617 -0.1843 -0.1111
  136loPI   C4B 2176  13.617  12.819   8.878  0.2031 -0.4168  0.0149
  137loPI    C1 2177   8.249  13.860  11.351  0.1264  0.2535 -0.0009
  137loPI    C2 2178   8.485  13.783  11.664  0.0409 -0.1380 -0.0279
  137loPI    C3 2179   8.094  13.703  11.684 -0.0271  0.1580 -0.1159
  137loPI   PO4 2180   8.391  13.710  11.175 -0.1452 -0.0015  0.0237
  137loPI   GL1 2181   8.512  13.666  10.784 -0.0206 -0.1019 -0.0025
  137loPI   GL2 2182   8.283  13.922  10.707 -0.2336 -0.1655  0.0959
  137loPI   C1A 2183   8.642  13.697  10.342 -0.0233  0.0814 -0.0345
  137loPI   C2A 2184   8.654  13.720   9.994  0.2270  0.1360  0.1671
  137loPI   C3A 2185   8.668  13.819   9.488 -0.1665 -0.1668  0.2212
  137loPI   C4A 2186   8.578  13.816   9.020  0.3074 -0.0404  0.2280
  137loPI   C5A 2187   8.393  13.844   8.533 -0.1145  0.0509  0.0697
  137loPI   C6A 2188   7.963  13.948   8.448  0.0974 -0.0522  0.0354
  137loPI   C1B 2189   8.234  13.909  10.211  0.0406  0.0120  0.1596
  137loPI   C2B 2190   8.092  13.970   9.818 -0.1058  0.1155  0.1938
  137loPI   C3B 2191   8.196  13.945   9.376 -0.1623 -0.0178 -0.0356
  137loPI   C4B 2192   8.052  13.938   8.986 -0.0188  0.2431  0.1122
  138loPI    C1 2193  10.000   5.736  10.690  0.0195  0.2207  0.0301
  138loPI    C2 2194   9.872   5.385  10.833  0.1973  0.2193  0.1897
  138loPI    C3 2195   9.996   5.670  11.085 -0.0646  0.4449  0.0683
  138loPI   PO4 2196   9.815   5.694  10.458 -0.0961  0.1223 -0.3280
  138loPI   GL1 2197   9.708   5.407  10.214 -0.1668 -0.1068  0.0782
  138loPI   GL2 2198   9.915   5.141  10.309 -0.0327  0.4624  0.1641
  138loPI   C1A 2199   9.497   5.380   9.703 -0.1598 -0.1308  0.0478
  138loPI   C2A 2200   9.508   5.395   9.259  0.3821 -0.3469 -0.1147
  138loPI   C3A 2201   9.440   5.369   8.857 -0.1966  0.0315  0.0410
  138loPI   C4A 2202   9.632   5.263   8.563 -0.1239 -0.0313 -0.0414
  138loPI   C5A 2203   9.564   4.861   8.270 -0.1035 -0.0224 -0.1385
  138loPI   C6A 2204   9.787   4.493   8.347  0.0511 -0.3321 -0.0686
  138loPI   C1B 2205   9.595   4.988   9.989 -0.0340 -0.0175 -0.0652
  138loPI   C2B 2206   9.564   4.927   9.586  0.1295  0.2094  0.0829
  138loPI   C3B 2207   9.595   4.903   9.125  0.0753 -0.0257  0.2156
  138loPI   C4B 2208   9.716   4.813   8.792 -0.1761  0.0055 -0.0297
  139loPI    C1 2209   3.057   2.244  11.442 -0.1591  0.3342 -0.1050
  139loPI    C2 2210   3.104   2.345  11.826  0.4236 -0.0170 -0.0714
  139loPI    C3 2211   3.222   2.596  11.537  0.0427  0.2204 -0.0283
  139loPI   PO4 2212   3.122   1.978  11.328  0.3463 -0.1681  0.0549
  139loPI   GL1 2213   2.988   1.896  10.894 -0.0625  0.3971 -0.1600
  139loPI   GL2 2214   3.325   1.704  10.907  0.3421  0.0902 -0.0377
  139loPI   C1A 2215   2.941   1.857  10.418  0.0003 -0.0932 -0.3233
  139loPI   C2A 2216   2.865   1.828   9.924 -0.0043 -0.1080 -0.1982
  139loPI   C3A 2217   2.795   1.923   9.451  0.1925  0.2196  0.0737
  139loPI   C4A 2218   2.770   1.869   9.024 -0.0573  0.0161  0.0401
  139loPI   C5A 2219   2.827   1.713   8.587 -0.1443 -0.0241 -0.0586
  139loPI   C6A 2220   2.703   1.722   8.106  0.0313 -0.0886 -0.2470
  139loPI   C1B 2221   3.398   1.670  10.447  0.2850 -0.2867 -0.1618
  139loPI   C2B 2222   3.373   1.698  10.018 -0.4116  0.1866 -0.3186
  139loPI   C3B 2223   3.266   1.740   9.597 -0.1762 -0.0220 -0.2511
  139loPI   C4B 2224   3.313   1.643   9.202 -0.1265  0.2234 -0.3991
  140loPI    C1 2225   8.510  16.224  11.131  0.0654 -0.1138  0.0925
  140loPI    C2 2226   8.291  16.165  10.801 -0.2655 -0.0770  0.3003
  140loPI    C3 2227   8.594  15.918  10.887 -0.1380 -0.0519 -0.0580
  140loPI   PO4 2228   8.542  16.538  11.176  0.0573  0.2640  0.0222
  140loPI   GL1 2229   8.832  16.723  10.967  0.4021 -0.0898  0.2418
  140loPI   GL2 2230   8.770  16.446  10.696  0.0969 -0.2565 -0.0844
  140loPI   C1A 2231   8.986  16.982  10.665 -0.0266  0.2108 -0.1027
  140loPI   C2A 2232   8.919  17.059  10.185  0.1416 -0.1291  0.1269
  140loPI   C3A 2233   8.871  17.042   9.650 -0.1481 -0.0206 -0.2581
  140loPI   C4A 2234   8.910  17.111   9.310  0.1249 -0.1288 -0.0220
  140loPI   C5A 2235   8.944  17.143   8.921  0.2283 -0.2562  0.1300
  140loPI   C6A 2236   8.589  17.108   8.628 -0.0385 -0.3131  0.1158
  140loPI   C1B 2237   8.602  16.168  10.375 -0.2046  0.0373 -0.1570
  140loPI   C2B 2238   8.632  16.167   9.962 -0.1170 -0.0388 -0.0329
  140loPI   C3B 2239   8.640  16.200   9.538 -0.1443  0.0808  0.0034
  140loPI   C4B 2240   8.693  16.224   9.031 -0.0013  0.3621 -0.0204
  141loPI    C1 2241   4.232   2.715  11.285 -0.1056 -0.0133  0.0180
  141loPI    C2 2242   4.287   2.844  10.910 -0.1072  0.0279  0.0318
  141loPI    C3 2243   4.077   3.065  11.169 -0.2472 -0.0780  0.0097
  141loPI   PO4 2244   4.342   2.415  11.277  0.1259  0.0209 -0.0286
  141loPI   GL1 2245   4.193   2.215  10.924 -0.0605  0.1029  0.0103
  141loPI   GL2 2246   3.920   2.389  10.977 -0.1540  0.0504 -0.2173
  141loPI   C1A 2247   4.188   2.288  10.545  0.1191 -0.0525  0.0945
  141loPI   C2A 2248   4.172   2.349  10.161  0.0602 -0.0888  0.2182
  141loPI   C3A 2249   4.074   2.371   9.721  0.0558  0.0807  0.0738
  141loPI   C4A 2250   4.119   2.458   9.226  0.2032  0.0721  0.0003
  141loPI   C5A 2251   3.925   2.387   8.857 -0.0822 -0.0796  0.3501
  141loPI   C6A 2252   3.592   2.589   8.647  0.1482 -0.3698 -0.2943
  141loPI   C1B 2253   3.740   2.479  10.513  0.0386 -0.0184 -0.1126
  141loPI   C2B 2254   3.761   2.556  10.103  0.3593 -0.0668  0.1084
  141loPI   C3B 2255   3.628   2.570   9.631 -0.1311 -0.1147 -0.2002
  141loPI   C4B 2256   3.533   2.586   9.147 -0.2227 -0.2657 -0.2148
  142loPI    C1 2257  13.737  13.370  11.419  0.0711 -0.1531 -0.0802
  142loPI    C2 2258  13.678  13.704  11.631  0.0069 -0.0777 -0.2152
  142loPI    C3 2259  13.673  13.348  11.813  0.2700  0.0065 -0.0372
  142loPI   PO4 2260  13.880  13.486  11.175 -0.0342  0.0487 -0.4727
  142loPI   GL1 2261  14.187  13.410  10.893 -0.1719  0.3171  0.1278
  142loPI   GL2 2262  14.323  13.560  10.705  0.0752  0.0502 -0.0376
  142loPI   C1A 2263  14.093  13.028  10.641 -0.2251 -0.2532  0.0487
  142loPI   C2A 2264  14.255  12.906  10.245  0.0681  0.2892  0.0790
  142loPI   C3A 2265  14.361  12.923   9.788  0.0485  0.1345  0.0744
  142loPI   C4A 2266  14.445  12.942   9.426 -0.0187 -0.1370  0.1160
  142loPI   C5A 2267  14.428  12.838   8.924  0.0352 -0.2464  0.3843
  142loPI   C6A 2268  14.716  13.018   8.628 -0.1602  0.3502  0.0470
  142loPI   C1B 2269  14.209  13.424  10.278  0.0177 -0.1565  0.1551
  142loPI   C2B 2270  14.309  13.435   9.865 -0.1296 -0.2332 -0.1918
  142loPI   C3B 2271  14.357  13.458   9.365 -0.1237 -0.1359 -0.0898
  142loPI   C4B 2272  14.520  13.341   8.975 -0.1449 -0.3176 -0.0334
  143loPI    C1 2273  11.054   6.485  10.432  0.1281 -0.2622 -0.0693
  143loPI    C2 2274  11.354   6.640  10.645 -0.0286  0.2502 -0.2082
  143loPI    C3 2275  11.173   6.306  10.770  0.3073  0.1790  0.1080
  143loPI   PO4 2276  11.207   6.435  10.213 -0.0484  0.0146 -0.5199
  143loPI   GL1 2277  11.469   6.555   9.841  0.0607 -0.0665 -0.0826
  143loPI   GL2 2278  11.551   6.838   9.794 -0.1854  0.2749 -0.2487
  143loPI   C1A 2279  11.327   6.339   9.467  0.1405 -0.0548 -0.0917
  143loPI   C2A 2280  11.268   6.229   9.154 -0.2327  0.1504 -0.1493
  143loPI   C3A 2281  11.299   6.243   8.723 -0.1495 -0.3808 -0.0899
  143loPI   C4A 2282  11.270   6.403   8.241 -0.1242  0.4070 -0.0206
  143loPI   C5A 2283  11.126   6.659   7.862  0.0546  0.1584  0.0375
  143loPI   C6A 2284  11.202   6.714   7.468  0.1940 -0.1038 -0.0360
  143loPI   C1B 2285  11.624   6.726   9.331 -0.0021 -0.2622  0.0065
  143loPI   C2B 2286  11.614   6.559   9.015  0.3101  0.2551  0.4310
  143loPI   C3B 2287  11.504   6.693   8.560 -0.0867 -0.1341  0.2366
  143loPI   C4B 2288  11.479   6.904   8.147 -0.2647  0.2052 -0.0670
  144loPI    C1 2289   6.043   1.631  11.165 -0.1139 -0.3019 -0.2371
  144loPI    C2 2290   6.090   1.370  11.464  0.1604 -0.0413 -0.0468
  144loPI    C3 2291   6.084   1.762  11.541 -0.0837  0.0179 -0.3490
  144loPI   PO4 2292   5.790   1.411  11.068  0.0930 -0.2273  0.2106
  144loPI   GL1 2293   5.633   1.191  10.794  0.1120 -0.1134  0.1363
  144loPI   GL2 2294   5.406   0.996  10.721  0.0076 -0.1244  0.3825
  144loPI   C1A 2295   5.690   1.329  10.341 -0.0421  0.2473 -0.0023
  144loPI   C2A 2296   5.651   1.414   9.970  0.1794 -0.3434  0.1788
  144loPI   C3A 2297   5.745   1.271   9.569  0.1752 -0.1723  0.1225
  144loPI   C4A 2298   5.751   1.352   9.223 -0.0054  0.1149 -0.0839
  144loPI   C5A 2299   5.658   1.194   8.859 -0.0584  0.3833 -0.1366
  144loPI   C6A 2300   5.944   0.913   8.567  0.0176 -0.0353 -0.0617
  144loPI   C1B 2301   5.414   0.963  10.232  0.1452 -0.1568 -0.2958
  144loPI   C2B 2302   5.304   0.980   9.781 -0.0087 -0.1395 -0.1619
  144loPI   C3B 2303   5.421   0.885   9.445 -0.2951 -0.0105  0.0562
  144loPI   C4B 2304   5.337   0.929   9.080  0.0541 -0.1223 -0.0227
  145loPI    C1 2305  13.045   1.453  11.148 -0.0017 -0.2490  0.1877
  145loPI    C2 2306  12.780   1.346  10.868 -0.0951  0.2542  0.0736
  145loPI    C3 2307  12.673   1.349  11.253 -0.0661 -0.1215  0.0887
  145loPI   PO4 2308  13.237   1.534  10.883  0.2994 -0.0436  0.0325
  145loPI   GL1 2309  13.142   1.395  10.430  0.0793  0.1393  0.4316
  145loPI   GL2 2310  13.389   1.662  10.323 -0.1895  0.1333 -0.0232
  145loPI   C1A 2311  13.056   1.397  10.035  0.0253  0.1629  0.1129
  145loPI   C2A 2312  13.091   1.349   9.588  0.0396 -0.2399  0.0358
  145loPI   C3A 2313  13.182   1.447   9.189  0.2961 -0.0897  0.1051
  145loPI   C4A 2314  13.176   1.370   8.806  0.0858  0.0705 -0.2632
  145loPI   C5A 2315  13.260   1.183   8.478 -0.0156  0.4122 -0.0281
  145loPI   C6A 2316  13.356   0.918   8.109  0.0094  0.0392 -0.1959
  145loPI   C1B 2317  13.435   1.702   9.927  0.0440  0.1312 -0.1857
  145loPI   C2B 2318  13.439   1.732   9.493  0.0088  0.3881  0.0786
  145loPI   C3B 2319  13.486   1.895   9.075 -0.0665  0.1284  0.0821
  145loPI   C4B 2320  13.511   1.792   8.620  0.0274 -0.0951  0.0697
  146loPI    C1 2321  13.247   0.997  10.902  0.2276 -0.1962  0.1726
  146loPI    C2 2322  13.260   0.656  11.111 -0.1415 -0.1778  0.2313
  146loPI    C3 2323  13.191   1.003  11.298 -0.0781 -0.1108  0.1309
  146loPI   PO4 2324  13.191   0.952  10.676 -0.2709 -0.5268  0.1162
  146loPI   GL1 2325  13.307   0.774  10.253  0.0748 -0.2287  0.1793
  146loPI   GL2 2326  13.375   0.408  10.247 -0.4193  0.0788  0.3562
  146loPI   C1A 2327  13.225   0.944   9.913  0.0851  0.3740 -0.1343
  146loPI   C2A 2328  13.336   0.900   9.401 -0.1795 -0.2718  0.0169
  146loPI   C3A 2329  13.303   0.910   9.000 -0.1157  0.0717 -0.4237
  146loPI   C4A 2330  13.181   0.815   8.727  0.0485 -0.2176  0.0389
  146loPI   C5A 2331  12.990   0.672   8.283 -0.0739 -0.1338  0.0386
  146loPI   C6A 2332  12.868   0.330   7.943 -0.2518  0.2043  0.2261
  146loPI   C1B 2333  13.333   0.395   9.764 -0.1863  0.0944 -0.0783
  146loPI   C2B 2334  13.273   0.379   9.400  0.0408  0.0659  0.0970
  146loPI   C3B 2335  13.411   0.389   8.997 -0.0169  0.2010  0.0500
  146loPI   C4B 2336  13.314   0.352   8.562 -0.0093  0.2592  0.1209
  147loPI    C1 2337  11.639  16.839  10.918 -0.2159  0.0828  0.1440
  147loPI    C2 2338  11.533  16.499  11.100 -0.0548  0.0597  0.1969
  147loPI    C3 2339  11.505  16.847  11.295  0.0472  0.0435  0.2406
  147loPI   PO4 2340  11.533  16.869  10.716  0.0637  0.0682  0.0798
  147loPI   GL1 2341  11.286  16.890  10.414 -0.1002  0.0675 -0.1216
  147loPI   GL2 2342  11.179  17.188  10.590  0.2633  0.2080 -0.1472
  147loPI   C1A 2343  11.277  16.892  10.030 -0.0807 -0.1790 -0.0109
  147loPI   C2A 2344  11.287  16.964   9.619 -0.2383  0.1088 -0.2826
  147loPI   C3A 2345  11.302  16.866   9.233  0.2700  0.2385  0.2301
  147loPI   C4A 2346  11.309  16.775   8.795  0.0436  0.1410 -0.3393
  147loPI   C5A 2347  11.606  16.884   8.500 -0.0247 -0.2985  0.1696
  147loPI   C6A 2348  11.707  17.262   8.286  0.2249  0.4128 -0.2282
  147loPI   C1B 2349  11.257  17.380  10.199 -0.0005 -0.0572 -0.1981
  147loPI   C2B 2350  11.150  17.429   9.785  0.3528  0.0709  0.1364
  147loPI   C3B 2351  11.131  17.381   9.382 -0.2988  0.2947  0.0557
  147loPI   C4B 2352  11.262  17.271   8.963  0.0570 -0.1646  0.0602
  148loPI    C1 2353   7.940  10.899  11.013 -0.0076 -0.1192 -0.0243
  148loPI    C2 2354   8.213  11.177  11.103 -0.1066 -0.0069 -0.0683
  148loPI    C3 2355   8.317  10.791  11.092  0.1136  0.0570 -0.3423
  148loPI   PO4 2356   7.815  11.085  10.786 -0.3418 -0.3740  0.1526
  148loPI   GL1 2357   7.781  10.959  10.401 -0.2255  0.2388  0.0954
  148loPI   GL2 2358   7.802  11.324  10.371 -0.0705  0.1363  0.2223
  148loPI   C1A 2359   7.492  10.886  10.120  0.2645  0.0321  0.0040
  148loPI   C2A 2360   7.469  10.941   9.721  0.3765  0.0714 -0.1705
  148loPI   C3A 2361   7.421  10.812   9.279 -0.0453  0.0871  0.1621
  148loPI   C4A 2362   7.387  10.811   8.926  0.0605  0.1488  0.1032
  148loPI   C5A 2363   7.224  10.613   8.602  0.0548 -0.0261 -0.1678
  148loPI   C6A 2364   6.886  10.371   8.594  0.2075  0.1706 -0.0654
  148loPI   C1B 2365   7.738  11.299  10.003 -0.0091 -0.0209  0.0936
  148loPI   C2B 2366   7.750  11.297   9.545  0.0817  0.1590  0.1417
  148loPI   C3B 2367   7.768  11.215   9.106  0.2670 -0.3771  0.2094
  148loPI   C4B 2368   7.827  11.285   8.669  0.2354 -0.0803 -0.1230
  149loPI    C1 2369  17.603  12.622  11.187  0.2755  0.0581 -0.0140
  149loPI    C2 2370  17.644  12.225  11.212 -0.3201 -0.0306 -0.2669
  149loPI    C3 2371  17.491  12.430  11.520  0.0833  0.0237 -0.0967
  149loPI   PO4 2372  17.656  12.676  10.955 -0.0053  0.0105 -0.0272
  149loPI   GL1 2373  18.100  12.671  10.813  0.0837  0.2395 -0.0064
  149loPI   GL2 2374  18.032  12.339  10.884 -0.3807 -0.0783  0.1592
  149loPI   C1A 2375  18.296  12.673  10.350  0.2827  0.0411  0.0231
  149loPI   C2A 2376  18.361  12.562   9.850  0.2084  0.0410 -0.0633
  149loPI   C3A 2377  18.220  12.644   9.475 -0.1163  0.2568  0.0544
  149loPI   C4A 2378  18.146  12.608   9.000 -0.0532  0.0338  0.0299
  149loPI   C5A 2379  18.145  12.213   8.852  0.1773  0.2957 -0.0762
  149loPI   C6A 2380  18.433  11.931   8.915  0.0067  0.1593 -0.3515
  149loPI   C1B 2381  18.300  12.188  10.663  0.0119 -0.0942  0.1584
  149loPI   C2B 2382  18.450  12.159  10.186  0.3326  0.1277  0.2488
  149loPI   C3B 2383  18.475  12.074   9.753 -0.0161 -0.0368  0.0001
  149loPI   C4B 2384  18.335  12.015   9.406  0.0231  0.0890  0.1968
  150loPI    C1 2385   6.140   2.400  11.566  0.0373  0.1804 -0.1010
  150loPI    C2 2386   6.118   2.475  11.959  0.0842  0.0912 -0.0812
  150loPI    C3 2387   6.307   2.147  11.828  0.1526  0.1708 -0.1832
  150loPI   PO4 2388   6.179   2.596  11.417  0.0822 -0.1442 -0.0380
  150loPI   GL1 2389   6.180   2.551  11.027  0.0980 -0.1232 -0.0025
  150loPI   GL2 2390   5.828   2.531  11.041 -0.2419  0.0392  0.0422
  150loPI   C1A 2391   6.089   2.648  10.650 -0.0490  0.0442  0.0814
  150loPI   C2A 2392   5.935   2.691  10.328 -0.0651 -0.3587 -0.0168
  150loPI   C3A 2393   5.872   2.709   9.910 -0.2185 -0.0842 -0.0809
  150loPI   C4A 2394   5.953   2.789   9.482 -0.2152 -0.1386  0.0069
  150loPI   C5A 2395   6.068   2.954   9.082 -0.0915 -0.0661 -0.0028
  150loPI   C6A 2396   6.158   3.039   8.694 -0.2124  0.0879 -0.0039
  150loPI   C1B 2397   5.476   2.802  10.832 -0.0989  0.2344  0.1637
  150loPI   C2B 2398   5.458   2.848  10.346  0.1886 -0.0827  0.0625
  150loPI   C3B 2399   5.393   2.935   9.926  0.1511  0.2072 -0.0181
  150loPI   C4B 2400   5.495   2.861   9.512  0.1385  0.5646 -0.1675
  151loPI    C1 2401  13.600  16.355  11.006 -0.0589  0.2874 -0.1309
  151loPI    C2 2402  13.886  16.510  11.238  0.0140 -0.0335 -0.0009
  151loPI    C3 2403  13.510  16.486  11.373  0.0410 -0.1475  0.0556
  151loPI   PO4 2404  13.658  16.473  10.776 -0.0488 -0.4851 -0.0913
  151loPI   GL1 2405  13.558  16.622  10.374 -0.1599 -0.0567  0.1130
  151loPI   GL2 2406  13.512  17.013  10.146 -0.2648  0.0716 -0.0349
  151loPI   C1A 2407  13.699  16.557   9.948  0.1190 -0.1267  0.0325
  151loPI   C2A 2408  13.659  16.549   9.546  0.2687 -0.1158 -0.0566
  151loPI   C3A 2409  13.779  16.444   9.094 -0.0373  0.2641  0.1465
  151loPI   C4A 2410  13.846  16.528   8.651 -0.1345  0.3281  0.0571
  151loPI   C5A 2411  14.160  16.896   8.460  0.3460 -0.2327  0.2260
  151loPI   C6A 2412  14.564  17.056   8.262 -0.1106 -0.3357  0.0499
  151loPI   C1B 2413  13.569  17.008   9.709  0.0919  0.1171  0.2886
  151loPI   C2B 2414  13.657  17.024   9.281  0.0389 -0.1501 -0.0367
  151loPI   C3B 2415  13.579  16.922   8.822  0.0942 -0.1410 -0.3523
  151loPI   C4B 2416  13.616  17.062   8.475 -0.2080 -0.1003 -0.1177
  152loPI    C1 2417  15.856  13.575  11.125  0.1397 -0.2123 -0.0460
  152loPI    C2 2418  15.713  13.649  11.491 -0.0802 -0.2560 -0.1212
  152loPI    C3 2419  16.107  13.661  11.424 -0.0388 -0.2442  0.1153
  152loPI   PO4 2420  15.681  13.469  11.035  0.1596 -0.0205 -0.2141
  152loPI   GL1 2421  15.608  13.587  10.607  0.1344 -0.2353 -0.1901
  152loPI   GL2 2422  15.241  13.721  10.593 -0.2357 -0.0786 -0.0733
  152loPI   C1A 2423  15.561  13.482  10.137  0.0731  0.2076  0.1298
  152loPI   C2A 2424  15.719  13.532   9.818 -0.1399 -0.0818  0.0886
  152loPI   C3A 2425  15.729  13.543   9.350 -0.3395  0.1990 -0.0705
  152loPI   C4A 2426  15.780  13.549   8.888  0.0253  0.0635  0.3478
  152loPI   C5A 2427  15.706  13.241   8.651 -0.2886 -0.1766 -0.1476
  152loPI   C6A 2428  15.705  12.717   8.496  0.0643 -0.4147  0.0845
  152loPI   C1B 2429  15.103  13.629  10.222  0.1102  0.0169 -0.0790
  152loPI   C2B 2430  15.182  13.639   9.790  0.0634 -0.0003 -0.0513
  152loPI   C3B 2431  15.182  13.719   9.311 -0.2395 -0.0943  0.1440
  152loPI   C4B 2432  15.301  13.741   8.960  0.1530  0.2353  0.0238
  153loPI    C1 2433   3.230  15.050  11.527 -0.1616 -0.0522 -0.0258
  153loPI    C2 2434   3.446  14.752  11.370 -0.0350 -0.0454  0.1327
  153loPI    C3 2435   3.537  14.895  11.732 -0.2446  0.0252  0.1591
  153loPI   PO4 2436   3.159  15.195  11.324  0.0430 -0.2327 -0.2364
  153loPI   GL1 2437   3.077  15.287  10.951  0.1469  0.1337 -0.1826
  153loPI   GL2 2438   3.056  15.634  10.835  0.1722  0.3299 -0.3256
  153loPI   C1A 2439   3.163  15.119  10.558  0.1441  0.1570 -0.0702
  153loPI   C2A 2440   3.288  14.892  10.281 -0.2303 -0.0913  0.1881
  153loPI   C3A 2441   3.373  15.062   9.936  0.0670 -0.1638  0.0056
  153loPI   C4A 2442   3.354  15.078   9.482  0.0632 -0.1683 -0.0716
  153loPI   C5A 2443   3.279  15.004   8.996 -0.2108 -0.0613 -0.2031
  153loPI   C6A 2444   2.934  15.272   8.782  0.2378  0.2280  0.4668
  153loPI   C1B 2445   3.173  15.692  10.400 -0.0558  0.5770 -0.1655
  153loPI   C2B 2446   3.178  15.666   9.986 -0.5413 -0.0723 -0.1710
  153loPI   C3B 2447   3.206  15.526   9.581 -0.2667 -0.2199  0.1010
  153loPI   C4B 2448   3.259  15.480   9.149  0.1052  0.0432 -0.1594
  154loPI    C1 2449  17.503  16.752  11.366  0.1126  0.0250 -0.1197
  154loPI    C2 2450  17.581  17.041  11.631  0.2955 -0.1637  0.0359
  154loPI    C3 2451  17.298  16.769  11.708  0.1374 -0.0402 -0.1014
  154loPI   PO4 2452  17.539  16.831  11.165 -0.2056 -0.0559  0.2515
  154loPI   GL1 2453  17.562  16.975  10.804 -0.0980 -0.1083 -0.1071
  154loPI   GL2 2454  17.231  17.132  10.764  0.1093 -0.2781  0.2283
  154loPI   C1A 2455  17.750  17.096  10.468  0.1242 -0.4150  0.0335
  154loPI   C2A 2456  17.844  17.147  10.054  0.1886 -0.0064  0.0983
  154loPI   C3A 2457  17.731  17.094   9.641 -0.1250  0.2066  0.0429
  154loPI   C4A 2458  17.721  17.049   9.199 -0.2125 -0.0231  0.1083
  154loPI   C5A 2459  17.678  16.992   8.767  0.3096  0.5030  0.1292
  154loPI   C6A 2460  17.339  17.194   8.507 -0.0172 -0.1416  0.1706
  154loPI   C1B 2461  17.205  17.127  10.382 -0.0051  0.1817  0.0895
  154loPI   C2B 2462  17.279  17.211   9.928  0.1702 -0.2132  0.2654
  154loPI   C3B 2463  17.216  17.219   9.486 -0.1736 -0.0972 -0.0472
  154loPI   C4B 2464  17.285  17.176   9.073 -0.0140 -0.0733  0.1646
  155loPI    C1 2465   6.341   3.042  11.933 -0.0068  0.0471 -0.0488
  155loPI    C2 2466   6.067   2.899  12.187  0.0857  0.0213  0.0373
  155loPI    C3 2467   6.456   2.836  12.256  0.1234  0.2321  0.0250
  155loPI   PO4 2468   6.180   3.036  11.704 -0.1942  0.3091 -0.2064
  155loPI   GL1 2469   6.183   3.037  11.211 -0.0714 -0.2157  0.0734
  155loPI   GL2 2470   6.305   3.280  11.326 -0.2258 -0.1259 -0.3070
  155loPI   C1A 2471   5.945   3.056  10.842  0.0903 -0.0430 -0.0883
  155loPI   C2A 2472   5.821   3.192  10.543  0.3233  0.0976  0.0796
  155loPI   C3A 2473   5.800   3.194  10.047  0.1443  0.2112 -0.0861
  155loPI   C4A 2474   5.860   3.364   9.659 -0.0577 -0.1172  0.1909
  155loPI   C5A 2475   5.904   3.442   9.180  0.0760 -0.0208  0.2327
  155loPI   C6A 2476   6.230   3.429   8.942  0.1171  0.0274  0.0422
  155loPI   C1B 2477   6.306   3.473  10.893 -0.1475  0.2178  0.2924
  155loPI   C2B 2478   6.224   3.540  10.386 -0.0321 -0.2289  0.1306
  155loPI   C3B 2479   6.219   3.546   9.942  0.3726 -0.0464 -0.1140
  155loPI   C4B 2480   6.176   3.691   9.466  0.2671 -0.1174 -0.0589
  156loPI    C1 2481  14.804   8.849  11.130 -0.2599  0.1505  0.1305
  156loPI    C2 2482  14.713   8.489  11.280 -0.2061  0.0720 -0.0239
  156loPI    C3 2483  14.623   8.820  11.486 -0.0721 -0.0365  0.2128
  156loPI   PO4 2484  14.952   8.764  10.874 -0.0746 -0.1190 -0.0021
  156loPI   GL1 2485  14.709   8.735  10.466 -0.1820 -0.1182 -0.1334
  156loPI   GL2 2486  14.770   8.413  10.511  0.0250 -0.3676 -0.2180
  156loPI   C1A 2487  14.811   8.775  10.091 -0.0972 -0.0535  0.0331
  156loPI   C2A 2488  14.874   8.898   9.584 -0.2076 -0.0931  0.4760
  156loPI   C3A 2489  14.849   8.965   9.112 -0.2122 -0.0930  0.2891
  156loPI   C4A 2490  15.051   8.917   8.705 -0.0107 -0.1035  0.1231
  156loPI   C5A 2491  15.266   8.850   8.356  0.0322 -0.0841 -0.0181
  156loPI   C6A 2492  15.470   9.082   8.067 -0.4300  0.1088 -0.2652
  156loPI   C1B 2493  15.055   8.367  10.162  0.1520  0.1809 -0.3204
  156loPI   C2B 2494  14.969   8.354   9.780 -0.0156  0.1276  0.1021
  156loPI   C3B 2495  14.945   8.420   9.394 -0.0500  0.0135 -0.3475
  156loPI   C4B 2496  14.964   8.493   8.992 -0.2475 -0.3650  0.1421
  157loPI    C1 2497   0.280  17.292  11.297  0.2451  0.1499 -0.3197
  157loPI    C2 2498   0.543  17.164  11.570 -0.1553  0.1608  0.0818
  157loPI    C3 2499   0.567  17.538  11.429  0.1711  0.0937 -0.0484
  157loPI   PO4 2500   0.267  17.139  11.149  0.2451  0.1387 -0.1574
  157loPI   GL1 2501   0.446  16.930  10.796  0.0313 -0.0303 -0.2054
  157loPI   GL2 2502   0.657  17.260  10.846  0.0830 -0.0114 -0.1041
  157loPI   C1A 2503   0.605  17.023  10.333 -0.0808 -0.3477  0.0316
  157loPI   C2A 2504   0.764  16.927   9.927  0.0313 -0.3198 -0.2079
  157loPI   C3A 2505   0.587  16.954   9.550  0.0810  0.4206  0.3375
  157loPI   C4A 2506   0.577  16.863   9.090  0.2138 -0.2168  0.3075
  157loPI   C5A 2507   0.907  17.081   8.718  0.1071 -0.1812 -0.2751
  157loPI   C6A 2508   1.241  17.369   8.816  0.1820 -0.1001 -0.2644
  157loPI   C1B 2509   0.959  17.373  10.521  0.1842  0.3365 -0.3089
  157loPI   C2B 2510   1.119  17.271  10.122 -0.0101  0.2249 -0.0847
  157loPI   C3B 2511   0.996  17.271   9.661 -0.1153 -0.0406 -0.1877
  157loPI   C4B 2512   0.976  17.172   9.233  0.0310  0.2349 -0.0629
  158loPI    C1 2513   7.024  14.297  11.186 -0.0093  0.0022 -0.2743
  158loPI    C2 2514   6.858  14.548  11.449  0.0340 -0.0223 -0.2233
  158loPI    C3 2515   7.227  14.407  11.512  0.1439  0.1682 -0.4233
  158loPI   PO4 2516   7.056  14.421  10.928 -0.1065  0.2094  0.0970
  158loPI   GL1 2517   7.206  14.201  10.597 -0.2290  0.2553 -0.2495
  158loPI   GL2 2518   7.439  14.448  10.567 -0.1373  0.2718  0.3075
  158loPI   C1A 2519   7.211  14.230  10.179 -0.2971  0.1997 -0.0217
  158loPI   C2A 2520   7.130  14.312   9.771 -0.0939  0.0614 -0.0057
  158loPI   C3A 2521   7.131  14.284   9.311  0.2568  0.1729  0.0519
  158loPI   C4A 2522   7.110  14.334   8.847  0.1982 -0.3970  0.0841
  158loPI   C5A 2523   7.248  14.651   8.607  0.1791  0.0034 -0.0166
  158loPI   C6A 2524   7.259  15.028   8.372 -0.0471 -0.1140 -0.0536
  158loPI   C1B 2525   7.545  14.592  10.229  0.0405 -0.1907  0.0585
  158loPI   C2B 2526   7.604  14.585   9.814 -0.1440 -0.1726 -0.0756
  158loPI   C3B 2527   7.603  14.579   9.394 -0.0776 -0.0669  0.1324
  158loPI   C4B 2528   7.533  14.584   9.009  0.1707 -0.1451 -0.0308
  159loPI    C1 2529   0.715  14.301  11.321  0.2204  0.0347 -0.3243
  159loPI    C2 2530   0.693  14.667  11.482 -0.2175 -0.0553 -0.1650
  159loPI    C3 2531   0.964  14.405  11.616 -0.1513  0.0862 -0.0205
  159loPI   PO4 2532   0.749  14.320  11.047 -0.0518  0.1957  0.1749
  159loPI   GL1 2533   0.396  14.365  10.663  0.3786  0.2573  0.0508
  159loPI   GL2 2534   0.643  14.477  10.536 -0.0300 -0.1314 -0.2646
  159loPI   C1A 2535   0.137  14.176  10.403 -0.0222 -0.1717 -0.0640
  159loPI   C2A 2536   0.224  14.096  10.006 -0.1876  0.1443  0.1686
  159loPI   C3A 2537   0.199  14.125   9.531 -0.2208  0.0354  0.1249
  159loPI   C4A 2538   0.280  14.118   9.153 -0.1779 -0.2058  0.1727
  159loPI   C5A 2539   0.202  14.276   8.782  0.1677 -0.5010  0.2047
  159loPI   C6A 2540   0.444  14.639   8.539 -0.0407 -0.0585 -0.3434
  159loPI   C1B 2541   0.587  14.440  10.141 -0.0960 -0.0348 -0.0951
  159loPI   C2B 2542   0.640  14.456   9.711  0.4150  0.4238  0.1454
  159loPI   C3B 2543   0.637  14.523   9.267  0.0986  0.1976 -0.1294
  159loPI   C4B 2544   0.670  14.288   8.874 -0.3704  0.0388 -0.0171
  160loPI    C1 2545  11.911   9.459  10.646 -0.1431 -0.2127 -0.2479
  160loPI    C2 2546  11.661   9.302  10.915  0.0023 -0.0581 -0.0192
  160loPI    C3 2547  11.760   9.689  10.936  0.1511 -0.0857 -0.1914
  160loPI   PO4 2548  11.906   9.351  10.503 -0.3253  0.0895 -0.1567
  160loPI   GL1 2549  11.677   9.281  10.225 -0.0813  0.1902 -0.3287
  160loPI   GL2 2550  11.759   9.553  10.059  0.2362 -0.1523 -0.2106
  160loPI   C1A 2551  11.491   9.189   9.795 -0.1081 -0.1551  0.1315
  160loPI   C2A 2552  11.479   9.144   9.353 -0.1197 -0.1456  0.0208
  160loPI   C3A 2553  11.550   9.080   8.890  0.0018  0.0922  0.1722
  160loPI   C4A 2554  11.567   9.285   8.448  0.1485  0.2361 -0.0291
  160loPI   C5A 2555  11.494   9.512   8.050 -0.1547  0.1305  0.0511
  160loPI   C6A 2556  11.668   9.575   7.672  0.0222  0.0140  0.2519
  160loPI   C1B 2557  11.831   9.591   9.680 -0.0586 -0.0894  0.4817
  160loPI   C2B 2558  11.834   9.497   9.311  0.0929  0.2452 -0.0134
  160loPI   C3B 2559  11.917   9.497   8.787  0.2359  0.0874  0.0292
  160loPI   C4B 2560  12.036   9.450   8.365 -0.1856  0.0759 -0.0647
  161loPI    C1 2561   3.199  11.665  11.627  0.1678 -0.0863  0.1524
  161loPI    C2 2562   2.912  11.832  11.851 -0.0309  0.0450 -0.1913
  161loPI    C3 2563   2.971  11.436  11.863  0.0015  0.0569  0.1329
  161loPI   PO4 2564   3.036  11.724  11.317 -0.1103 -0.1013 -0.1360
  161loPI   GL1 2565   3.015  11.698  10.838  0.1850  0.0396 -0.2789
  161loPI   GL2 2566   3.168  11.874  10.635  0.1433  0.0784 -0.0551
  161loPI   C1A 2567   2.789  11.451  10.520 -0.1394 -0.1412  0.2771
  161loPI   C2A 2568   2.718  11.501  10.156 -0.0938 -0.2663 -0.2759
  161loPI   C3A 2569   2.658  11.454   9.677  0.3214  0.1452 -0.0446
  161loPI   C4A 2570   2.557  11.427   9.268  0.4393  0.0533  0.0296
  161loPI   C5A 2571   2.646  11.320   8.934  0.0473  0.1193  0.0677
  161loPI   C6A 2572   2.832  11.502   8.527 -0.0576 -0.3450  0.0979
  161loPI   C1B 2573   3.120  11.773  10.157  0.1835  0.1134 -0.0537
  161loPI   C2B 2574   2.979  11.814   9.741 -0.0605  0.0889  0.1831
  161loPI   C3B 2575   3.013  11.740   9.245 -0.2521  0.0201 -0.2758
  161loPI   C4B 2576   3.093  11.862   8.748  0.0131 -0.0408  0.1017
  162loPI    C1 2577   5.897   5.045  11.348 -0.2440 -0.0165 -0.1269
  162loPI    C2 2578   5.736   4.855  11.661 -0.1009  0.2158  0.0927
  162loPI    C3 2579   6.108   4.768  11.543 -0.1921  0.0540 -0.0824
  162loPI   PO4 2580   5.696   5.020  11.131 -0.0655  0.1151  0.2521
  162loPI   GL1 2581   5.589   5.349  10.789  0.1961  0.1135  0.0754
  162loPI   GL2 2582   5.329   5.216  10.673  0.1503  0.1969 -0.2695
  162loPI   C1A 2583   5.746   5.614  10.491 -0.0492  0.1336  0.0548
  162loPI   C2A 2584   5.804   5.643  10.031  0.4032 -0.0697  0.3653
  162loPI   C3A 2585   5.813   5.640   9.578  0.5034  0.1893 -0.4135
  162loPI   C4A 2586   5.789   5.635   9.224  0.2835  0.0579 -0.3638
  162loPI   C5A 2587   5.801   5.786   8.967 -0.1348  0.1993  0.2126
  162loPI   C6A 2588   5.651   5.789   8.539 -0.2423  0.1929  0.0396
  162loPI   C1B 2589   5.442   5.282  10.238 -0.0527  0.1517 -0.1655
  162loPI   C2B 2590   5.424   5.346   9.763 -0.0261 -0.2339  0.1000
  162loPI   C3B 2591   5.397   5.353   9.321  0.2139  0.1255 -0.4811
  162loPI   C4B 2592   5.404   5.256   8.954  0.0490 -0.0444  0.0089
  163loPI    C1 2593   5.541  15.007  11.218  0.1086  0.1525  0.0214
  163loPI    C2 2594   5.588  15.105  11.603  0.1698 -0.0129  0.0566
  163loPI    C3 2595   5.278  14.878  11.491  0.0703  0.1557 -0.0138
  163loPI   PO4 2596   5.629  15.193  11.027 -0.0370  0.1396 -0.0591
  163loPI   GL1 2597   5.591  15.480  10.750  0.0294  0.1112 -0.2752
  163loPI   GL2 2598   5.931  15.511  10.656  0.0248 -0.3430  0.0080
  163loPI   C1A 2599   5.439  15.378  10.420  0.0555  0.1842  0.2918
  163loPI   C2A 2600   5.393  15.231   9.954  0.1571  0.0587  0.1668
  163loPI   C3A 2601   5.600  15.418   9.560  0.0512 -0.2234 -0.2174
  163loPI   C4A 2602   5.625  15.434   9.108  0.0323 -0.0163 -0.0567
  163loPI   C5A 2603   5.771  15.263   8.832  0.0843 -0.1581 -0.0763
  163loPI   C6A 2604   6.188  15.025   8.684  0.2224 -0.1015  0.2357
  163loPI   C1B 2605   5.857  15.635  10.249 -0.2098  0.2596 -0.1907
  163loPI   C2B 2606   5.899  15.655   9.895 -0.1575  0.1500  0.1533
  163loPI   C3B 2607   6.014  15.676   9.418 -0.0607  0.2202 -0.0768
  163loPI   C4B 2608   6.056  15.724   8.895  0.0505  0.0177 -0.0397
  164loPI    C1 2609   1.580   3.877  11.513  0.2165 -0.3677 -0.0409
  164loPI    C2 2610   1.301   3.677  11.718 -0.0801 -0.0185 -0.0938
  164loPI    C3 2611   1.528   3.949  11.903 -0.1733  0.1139 -0.1731
  164loPI   PO4 2612   1.484   3.955  11.353  0.2675  0.0156 -0.1774
  164loPI   GL1 2613   1.379   4.046  10.999 -0.0835 -0.2839  0.0930
  164loPI   GL2 2614   1.427   3.705  10.743  0.4193 -0.2453  0.0056
  164loPI   C1A 2615   1.364   4.157  10.520 -0.3214 -0.0391 -0.2095
  164loPI   C2A 2616   1.503   4.228  10.086  0.3698 -0.1998  0.1152
  164loPI   C3A 2617   1.537   4.263   9.730 -0.0404  0.0728  0.1609
  164loPI   C4A 2618   1.433   4.269   9.328 -0.2294  0.1145 -0.1879
  164loPI   C5A 2619   1.390   4.282   8.923 -0.2813 -0.0063 -0.0743
  164loPI   C6A 2620   1.728   4.487   8.647  0.1729 -0.1073  0.1796
  164loPI   C1B 2621   1.520   3.723  10.389 -0.0889  0.1350 -0.1704
  164loPI   C2B 2622   1.605   3.756   9.981 -0.0944  0.0101  0.0559
  164loPI   C3B 2623   1.543   3.762   9.563  0.1519 -0.1118  0.1119
  164loPI   C4B 2624   1.645   3.834   9.169 -0.0122 -0.1935 -0.0854
  165loPI    C1 2625   6.046  13.725  10.964  0.4475 -0.2517  0.1258
  165loPI    C2 2626   6.065  13.941  11.300  0.0361  0.2064 -0.1318
  165loPI    C3 2627   5.729  13.743  11.208  0.1824 -0.0013 -0.2254
  165loPI   PO4 2628   6.344  13.744  10.944 -0.3091  0.0558 -0.2393
  165loPI   GL1 2629   6.518  14.108  10.778  0.0251  0.0974 -0.3638
  165loPI   GL2 2630   6.848  13.976  10.896 -0.0404 -0.3495  0.0477
  165loPI   C1A 2631   6.295  13.981  10.302 -0.2194  0.0452  0.1746
  165loPI   C2A 2632   6.328  13.989   9.829  0.2320 -0.0598  0.0171
  165loPI   C3A 2633   6.301  14.128   9.478  0.1179  0.0948  0.1608
  165loPI   C4A 2634   6.297  14.063   9.023  0.2215 -0.1006  0.0088
  165loPI   C5A 2635   6.455  13.749   8.737 -0.3019 -0.0706  0.1289
  165loPI   C6A 2636   6.469  13.531   8.335  0.2447 -0.1925 -0.1340
  165loPI   C1B 2637   6.809  13.864  10.414 -0.0634 -0.1071  0.2963
  165loPI   C2B 2638   6.778  13.941   9.987  0.1266  0.2519  0.1744
  165loPI   C3B 2639   6.759  13.907   9.521  0.0042 -0.3555 -0.1301
  165loPI   C4B 2640   6.829  13.930   9.144  0.3796 -0.2232  0.1601
  166loPI    C1 2641  15.605   5.959  11.383  0.0508  0.0922 -0.0639
  166loPI    C2 2642  15.477   6.334  11.439  0.2282  0.2075 -0.3970
  166loPI    C3 2643  15.757   6.180  11.680 -0.3714  0.0201  0.2143
  166loPI   PO4 2644  15.638   5.897  11.162  0.0017 -0.1258 -0.0638
  166loPI   GL1 2645  15.965   5.703  10.781  0.3981  0.0929 -0.0366
  166loPI   GL2 2646  15.935   5.448  10.901  0.0685 -0.2461 -0.1219
  166loPI   C1A 2647  15.859   5.735  10.339  0.1863  0.1131  0.2488
  166loPI   C2A 2648  15.997   5.665   9.917 -0.2417 -0.0922 -0.1481
  166loPI   C3A 2649  16.072   5.686   9.454  0.1608 -0.1491  0.1123
  166loPI   C4A 2650  16.114   5.764   9.028 -0.0800  0.1807 -0.2716
  166loPI   C5A 2651  16.011   6.047   8.763 -0.1958  0.2333 -0.1171
  166loPI   C6A 2652  15.952   6.417   8.495 -0.1022 -0.3357 -0.3283
  166loPI   C1B 2653  15.980   5.259  10.471  0.1307  0.1380 -0.1441
  166loPI   C2B 2654  16.067   5.090  10.045  0.0238  0.2979 -0.2691
  166loPI   C3B 2655  16.052   5.116   9.628  0.1348  0.0956 -0.0480
  166loPI   C4B 2656  16.148   5.232   9.202 -0.3095  0.2625  0.0366
  167loPI    C1 2657   8.209   2.274  11.173  0.1500  0.1846  0.0600
  167loPI    C2 2658   8.375   2.070  11.475 -0.1394 -0.1277  0.0142
  167loPI    C3 2659   8.145   2.388  11.551  0.1103  0.0355  0.0990
  167loPI   PO4 2660   8.110   2.068  11.011  0.0114  0.0316 -0.2202
  167loPI   GL1 2661   8.063   2.011  10.557  0.1633  0.1137 -0.0400
  167loPI   GL2 2662   8.402   1.986  10.623 -0.1336 -0.1609 -0.3048
  167loPI   C1A 2663   8.030   2.172  10.148  0.1920  0.1400  0.3240
  167loPI   C2A 2664   7.977   2.166   9.744  0.0311 -0.2936  0.0567
  167loPI   C3A 2665   7.837   2.120   9.338 -0.0163 -0.0579 -0.0543
  167loPI   C4A 2666   7.843   2.151   8.843  0.0934 -0.2129 -0.0838
  167loPI   C5A 2667   7.664   2.407   8.482 -0.1627 -0.0573 -0.2752
  167loPI   C6A 2668   7.296   2.683   8.412  0.1572 -0.1603  0.1308
  167loPI   C1B 2669   8.468   1.942  10.251  0.2784  0.1656  0.0637
  167loPI   C2B 2670   8.412   2.012   9.781  0.0811 -0.1646  0.0111
  167loPI   C3B 2671   8.332   1.994   9.334  0.2177  0.1763  0.1003
  167loPI   C4B 2672   8.320   2.004   8.831  0.1617 -0.0422  0.1768
  168loPI    C1 2673   3.662  13.450  11.240 -0.0923  0.0281 -0.1014
  168loPI    C2 2674   3.955  13.641  11.434 -0.0368  0.0079 -0.1650
  168loPI    C3 2675   3.615  13.551  11.624  0.0494 -0.0850 -0.0534
  168loPI   PO4 2676   3.747  13.504  10.930 -0.2803 -0.0457  0.0594
  168loPI   GL1 2677   3.958  13.683  10.612 -0.0334  0.2582  0.2446
  168loPI   GL2 2678   4.022  13.936  10.568  0.0104  0.1625 -0.0300
  168loPI   C1A 2679   3.695  13.607  10.259 -0.2414  0.0959  0.3223
  168loPI   C2A 2680   3.662  13.526   9.824  0.0948 -0.0378 -0.1437
  168loPI   C3A 2681   3.642  13.599   9.411  0.3060  0.0611 -0.0870
  168loPI   C4A 2682   3.602  13.502   8.958  0.1476 -0.0733 -0.0330
  168loPI   C5A 2683   3.254  13.326   8.516 -0.4628 -0.0505  0.3420
  168loPI   C6A 2684   2.963  13.095   8.282 -0.1985 -0.2090 -0.0400
  168loPI   C1B 2685   3.965  13.934  10.075 -0.0182 -0.0034 -0.0981
  168loPI   C2B 2686   4.006  13.849   9.594  0.1134  0.1531 -0.2686
  168loPI   C3B 2687   3.957  13.906   9.159 -0.0628  0.0823  0.0814
  168loPI   C4B 2688   4.162  13.833   8.791 -0.2802 -0.0548 -0.1550
  169loPI    C1 2689   0.322   4.605  11.652  0.1503 -0.1430 -0.0748
  169loPI    C2 2690   0.681   4.504  11.509  0.2247  0.0156 -0.0012
  169loPI    C3 2691   0.623   4.531  11.904  0.2366  0.3626 -0.0199
  169loPI   PO4 2692   0.187   4.491  11.302 -0.1113  0.0960 -0.1282
  169loPI   GL1 2693   0.093   4.521  10.941 -0.1182 -0.0847 -0.2086
  169loPI   GL2 2694  -0.185   4.730  10.948 -0.1289 -0.0326  0.1099
  169loPI   C1A 2695   0.381   4.470  10.647 -0.0428  0.2911  0.0074
  169loPI   C2A 2696   0.472   4.459  10.238 -0.1297 -0.3173  0.2379
  169loPI   C3A 2697   0.484   4.452   9.844 -0.2253 -0.2781  0.0639
  169loPI   C4A 2698   0.436   4.529   9.388 -0.1706 -0.1375  0.2156
  169loPI   C5A 2699   0.509   4.781   9.035  0.1847 -0.0868 -0.1449
  169loPI   C6A 2700   0.347   5.088   8.775 -0.3529  0.0925  0.2233
  169loPI   C1B 2701  -0.085   4.707  10.436  0.2845 -0.1461  0.1724
  169loPI   C2B 2702   0.011   4.691   9.946  0.0851  0.1102 -0.3549
  169loPI   C3B 2703  -0.034   4.732   9.498 -0.0839 -0.2357  0.1225
  169loPI   C4B 2704  -0.068   4.757   9.044  0.1317 -0.0971  0.2432
  170loPI    C1 2705   7.271   1.818  11.683 -0.3333 -0.1345 -0.0105
  170loPI    C2 2706   7.111   1.457  11.747 -0.3290 -0.0893  0.2673
  170loPI    C3 2707   7.257   1.669  12.053 -0.3007  0.1351  0.1019
  170loPI   PO4 2708   7.428   1.801  11.445 -0.0489 -0.0383  0.0585
  170loPI   GL1 2709   7.377   1.849  10.991  0.0994 -0.0796  0.1200
  170loPI   GL2 2710   7.716   1.760  10.820 -0.2604  0.0138  0.0256
  170loPI   C1A 2711   7.391   2.148  10.642  0.1729 -0.1186  0.3589
  170loPI   C2A 2712   7.479   2.324  10.241  0.1647 -0.1196  0.0743
  170loPI   C3A 2713   7.519   2.313   9.799 -0.2539 -0.0622 -0.0832
  170loPI   C4A 2714   7.363   2.367   9.388  0.1434 -0.0021  0.0416
  170loPI   C5A 2715   7.373   2.506   8.971 -0.1336  0.2297 -0.0016
  170loPI   C6A 2716   7.267   2.246   8.683  0.0885 -0.1862  0.2166
  170loPI   C1B 2717   7.610   1.696  10.396  0.0606  0.0124  0.3176
  170loPI   C2B 2718   7.590   1.781   9.931  0.1237 -0.0132  0.0749
  170loPI   C3B 2719   7.530   1.732   9.475  0.0921  0.2632 -0.1422
  170loPI   C4B 2720   7.481   1.900   9.036 -0.0074  0.1131  0.1172
  171loPI    C1 2721  11.537  12.072  10.729 -0.0228 -0.0906 -0.1984
  171loPI    C2 2722  11.845  11.820  10.688  0.0836  0.0477 -0.2553
  171loPI    C3 2723  11.525  11.711  10.901  0.2422 -0.0341 -0.0560
  171loPI   PO4 2724  11.472  12.173  10.425 -0.0602  0.1605 -0.2666
  171loPI   GL1 2725  11.217  12.181  10.045  0.3246  0.4363  0.1727
  171loPI   GL2 2726  11.181  12.430  10.143 -0.2098  0.2262  0.1720
  171loPI   C1A 2727  11.232  12.469   9.634  0.1120  0.1416 -0.0318
  171loPI   C2A 2728  11.269  12.567   9.238  0.1556  0.3376 -0.1458
  171loPI   C3A 2729  11.373  12.659   8.820 -0.1349 -0.1719 -0.0457
  171loPI   C4A 2730  11.329  12.517   8.390  0.2142  0.1170 -0.1229
  171loPI   C5A 2731  11.523  12.145   8.036  0.3803  0.0273 -0.1364
  171loPI   C6A 2732  11.611  11.731   8.163  0.3549  0.0987 -0.1848
  171loPI   C1B 2733  11.431  12.777   9.908 -0.1142 -0.0491  0.1704
  171loPI   C2B 2734  11.576  12.888   9.502 -0.1047 -0.0194 -0.2005
  171loPI   C3B 2735  11.661  12.908   9.127  0.2612  0.2072 -0.0163
  171loPI   C4B 2736  11.791  12.986   8.686  0.1781  0.3545 -0.1172
  172loPI    C1 2737  17.170   4.754  11.512  0.0932 -0.0052  0.0240
  172loPI    C2 2738  17.500   4.940  11.384  0.0073  0.2265  0.1341
  172loPI    C3 2739  17.512   4.719  11.717  0.0996  0.0668  0.0260
  172loPI   PO4 2740  17.045   4.733  11.271 -0.1841 -0.2356 -0.1878
  172loPI   GL1 2741  16.860   4.546  10.957  0.0867  0.0770  0.3109
  172loPI   GL2 2742  16.888   4.797  10.701  0.2029 -0.0653 -0.0022
  172loPI   C1A 2743  17.183   4.435  10.522 -0.1276 -0.1518  0.0037
  172loPI   C2A 2744  17.312   4.281  10.200  0.0365  0.1811  0.2527
  172loPI   C3A 2745  17.235   4.295   9.751 -0.0430  0.1343 -0.1709
  172loPI   C4A 2746  17.193   4.359   9.314 -0.1919  0.0783 -0.0313
  172loPI   C5A 2747  17.256   4.454   8.823  0.0867 -0.0326 -0.0514
  172loPI   C6A 2748  17.263   3.920   8.634 -0.0524  0.1458  0.0200
  172loPI   C1B 2749  17.052   4.833  10.309 -0.0342  0.4003  0.0900
  172loPI   C2B 2750  17.146   4.782   9.834 -0.4113  0.0754 -0.1725
  172loPI   C3B 2751  17.089   4.843   9.365 -0.0716  0.0305 -0.1814
  172loPI   C4B 2752  17.049   5.025   9.013  0.3073 -0.1544 -0.0524
  173loPI    C1 2753  11.139  14.987  11.190 -0.1654  0.0920  0.0497
  173loPI    C2 2754  10.784  15.094  11.340 -0.0349 -0.0530  0.4741
  173loPI    C3 2755  11.109  15.313  11.420 -0.0379  0.1301  0.0129
  173loPI   PO4 2756  11.061  14.884  10.923  0.1798  0.0761  0.0491
  173loPI   GL1 2757  10.929  14.911  10.576 -0.1858 -0.1385  0.2475
  173loPI   GL2 2758  11.195  14.795  10.438  0.0416  0.2030  0.1633
  173loPI   C1A 2759  10.766  15.005  10.181  0.2510  0.0031 -0.2097
  173loPI   C2A 2760  10.737  15.008   9.762  0.1041  0.0169  0.0184
  173loPI   C3A 2761  10.696  15.089   9.350 -0.1575  0.0516  0.0299
  173loPI   C4A 2762  10.816  15.017   8.963  0.1657 -0.2427  0.0923
  173loPI   C5A 2763  10.921  15.077   8.568 -0.2501 -0.1116 -0.0482
  173loPI   C6A 2764  10.669  15.261   8.185  0.5212 -0.0509 -0.0922
  173loPI   C1B 2765  11.178  14.808  10.066  0.0936 -0.0677 -0.1173
  173loPI   C2B 2766  11.219  14.863   9.668 -0.2381 -0.1732  0.0676
  173loPI   C3B 2767  11.173  14.962   9.324 -0.1549  0.3449  0.1400
  173loPI   C4B 2768  11.294  14.942   8.953 -0.2350  0.0753 -0.3817
  174loPI    C1 2769   2.409   6.533  11.873 -0.0695 -0.1111  0.0861
  174loPI    C2 2770   2.644   6.812  11.709 -0.1129 -0.1430 -0.0309
  174loPI    C3 2771   2.788   6.573  11.996 -0.0706 -0.0118  0.0580
  174loPI   PO4 2772   2.348   6.418  11.646  0.1141 -0.2816 -0.3897
  174loPI   GL1 2773   2.447   6.457  11.272  0.3296  0.1524  0.1261
  174loPI   GL2 2774   2.429   6.155  11.282  0.1618 -0.2574  0.0983
  174loPI   C1A 2775   2.377   6.753  10.944  0.4387 -0.0618 -0.0121
  174loPI   C2A 2776   2.345   6.719  10.498 -0.2824 -0.1207  0.2125
  174loPI   C3A 2777   2.262   6.739  10.028 -0.2365 -0.0568  0.1720
  174loPI   C4A 2778   2.347   6.854   9.652  0.1443 -0.1314 -0.0819
  174loPI   C5A 2779   2.426   6.732   9.230 -0.1375  0.1376  0.0223
  174loPI   C6A 2780   2.474   6.339   9.123  0.0800  0.1293  0.3169
  174loPI   C1B 2781   2.472   6.255  10.796  0.0353  0.0590 -0.1947
  174loPI   C2B 2782   2.405   6.188  10.404  0.3429  0.1417  0.5643
  174loPI   C3B 2783   2.427   6.235   9.983 -0.0477 -0.0916 -0.0090
  174loPI   C4B 2784   2.564   6.260   9.587  0.2016  0.2340 -0.3524
  175loPI    C1 2785   7.203  12.987  11.214 -0.0141 -0.0884  0.0353
  175loPI    C2 2786   7.049  13.290  11.425 -0.0904 -0.0923 -0.0145
  175loPI    C3 2787   7.009  12.915  11.556  0.2533 -0.0601  0.1960
  175loPI   PO4 2788   7.215  13.141  10.961  0.1410  0.0955 -0.0922
  175loPI   GL1 2789   7.065  13.063  10.593 -0.1182 -0.1166 -0.1659
  175loPI   GL2 2790   6.962  12.800  10.522  0.0802  0.1953 -0.0095
  175loPI   C1A 2791   6.980  13.410  10.312 -0.1768 -0.1529  0.3475
  175loPI   C2A 2792   6.811  13.365   9.900  0.0623 -0.1471 -0.0980
  175loPI   C3A 2793   6.869  13.455   9.459 -0.2170 -0.1842  0.3389
  175loPI   C4A 2794   6.888  13.414   9.063 -0.0047 -0.2425  0.2601
  175loPI   C5A 2795   6.930  13.286   8.731  0.1631 -0.1838 -0.1517
  175loPI   C6A 2796   7.251  13.260   8.482  0.1891 -0.2365  0.2088
  175loPI   C1B 2797   6.961  12.882  10.039  0.1521 -0.0189 -0.0840
  175loPI   C2B 2798   6.975  12.966   9.560 -0.1394  0.0065 -0.0267
  175loPI   C3B 2799   6.902  12.864   9.067 -0.3865 -0.1829  0.0277
  175loPI   C4B 2800   6.866  12.820   8.610 -0.3474  0.0962 -0.1153
  176loPI    C1 2801  12.200  12.588  11.190  0.0539  0.2377 -0.3160
  176loPI    C2 2802  12.389  12.748  11.504 -0.0571 -0.3076  0.0415
  176loPI    C3 2803  12.033  12.891  11.391  0.0232 -0.0515  0.1065
  176loPI   PO4 2804  12.460  12.632  10.954  0.2256 -0.1076 -0.1632
  176loPI   GL1 2805  12.569  12.436  10.525  0.0558 -0.2196  0.0987
  176loPI   GL2 2806  12.787  12.711  10.503  0.1570  0.1097 -0.0812
  176loPI   C1A 2807  12.388  12.289  10.184 -0.1672 -0.1912  0.1766
  176loPI   C2A 2808  12.247  12.238   9.768  0.1595  0.2666 -0.1663
  176loPI   C3A 2809  12.304  12.152   9.323  0.0575 -0.0388  0.0546
  176loPI   C4A 2810  12.251  12.210   8.949 -0.0617  0.1099  0.0818
  176loPI   C5A 2811  12.409  12.188   8.617 -0.0057 -0.0268  0.2251
  176loPI   C6A 2812  12.624  11.976   8.366  0.0709  0.1686 -0.0622
  176loPI   C1B 2813  12.952  12.892  10.129 -0.1222 -0.3161 -0.0266
  176loPI   C2B 2814  13.012  12.949   9.707  0.1717  0.3715  0.0937
  176loPI   C3B 2815  13.118  12.869   9.305 -0.0441  0.1606  0.0332
  176loPI   C4B 2816  13.071  12.920   8.752  0.0849  0.1899 -0.1215
  177loPI    C1 2817   4.515   3.173  11.457  0.0145 -0.2162  0.0896
  177loPI    C2 2818   4.749   3.428  11.658 -0.0425  0.0866 -0.2172
  177loPI    C3 2819   4.852   3.042  11.629  0.0905  0.0870  0.1783
  177loPI   PO4 2820   4.567   3.271  11.153 -0.0117  0.0936  0.0840
  177loPI   GL1 2821   4.354   3.316  10.854 -0.1246  0.1625  0.3920
  177loPI   GL2 2822   4.070   3.472  10.952 -0.0145  0.0680  0.1256
  177loPI   C1A 2823   4.407   3.221  10.344  0.2348  0.4599 -0.1789
  177loPI   C2A 2824   4.446   3.204   9.956 -0.1540 -0.3727 -0.1286
  177loPI   C3A 2825   4.347   3.173   9.530  0.0145 -0.2638  0.0412
  177loPI   C4A 2826   4.512   3.234   9.131 -0.0640  0.1736 -0.0274
  177loPI   C5A 2827   4.359   3.250   8.757  0.0212  0.0988 -0.2220
  177loPI   C6A 2828   4.647   3.403   8.434 -0.2164  0.0788  0.0711
  177loPI   C1B 2829   3.970   3.447  10.538  0.1409  0.0658 -0.1837
  177loPI   C2B 2830   3.952   3.351  10.105 -0.2304  0.0470  0.0402
  177loPI   C3B 2831   3.962   3.486   9.723  0.1018 -0.3651  0.0683
  177loPI   C4B 2832   3.878   3.390   9.346 -0.1254  0.3051 -0.2555
  178loPI    C1 2833   4.617   5.234  11.318 -0.2349  0.2513 -0.0498
  178loPI    C2 2834   4.512   5.280  11.701  0.0281 -0.0920  0.0690
  178loPI    C3 2835   4.871   5.130  11.609 -0.0254  0.0050 -0.3144
  178loPI   PO4 2836   4.602   5.439  11.252  0.0332 -0.1023 -0.0493
  178loPI   GL1 2837   4.466   5.593  10.834 -0.3088  0.0314  0.0137
  178loPI   GL2 2838   4.216   5.479  10.968 -0.3414 -0.2443 -0.0141
  178loPI   C1A 2839   4.391   5.547  10.408  0.4712  0.2540  0.0844
  178loPI   C2A 2840   4.504   5.641  10.033  0.2656 -0.1214  0.0334
  178loPI   C3A 2841   4.433   5.561   9.562  0.0478  0.0027 -0.1681
  178loPI   C4A 2842   4.426   5.530   9.146 -0.2329 -0.0414 -0.0152
  178loPI   C5A 2843   4.666   5.677   8.785  0.2236  0.3076  0.0566
  178loPI   C6A 2844   4.764   5.917   8.440 -0.3356  0.1215  0.1543
  178loPI   C1B 2845   4.028   5.219  10.641  0.3856 -0.2972  0.1330
  178loPI   C2B 2846   4.015   5.296  10.178 -0.0907 -0.1158  0.0509
  178loPI   C3B 2847   4.053   5.221   9.760 -0.1562 -0.2186  0.1466
  178loPI   C4B 2848   4.028   5.231   9.488  0.0677  0.2836  0.1939
  179loPI    C1 2849   3.235   6.718  11.615 -0.1410 -0.2830 -0.1141
  179loPI    C2 2850   3.402   6.938  11.903  0.1289 -0.2487 -0.2929
  179loPI    C3 2851   3.304   6.557  11.974 -0.0898 -0.1533 -0.0654
  179loPI   PO4 2852   3.092   6.851  11.505  0.2412  0.1744  0.0105
  179loPI   GL1 2853   2.780   6.937  11.207 -0.1119 -0.1479  0.1980
  179loPI   GL2 2854   3.138   7.043  11.031  0.1424 -0.0927 -0.0985
  179loPI   C1A 2855   2.685   7.099  10.797  0.1935  0.0754  0.1962
  179loPI   C2A 2856   2.720   7.078  10.403 -0.1206  0.2912  0.3326
  179loPI   C3A 2857   2.669   7.079   9.934 -0.0448 -0.2228  0.1175
  179loPI   C4A 2858   2.827   7.133   9.571 -0.1387 -0.0251 -0.1709
  179loPI   C5A 2859   2.813   7.062   9.183  0.3192  0.3514 -0.3218
  179loPI   C6A 2860   3.057   7.065   8.850 -0.1133 -0.0762 -0.1446
  179loPI   C1B 2861   3.196   6.916  10.644  0.0927 -0.2913  0.0830
  179loPI   C2B 2862   3.163   6.834  10.234 -0.0462  0.1233  0.1506
  179loPI   C3B 2863   3.210   6.974   9.821 -0.0885  0.0346 -0.4026
  179loPI   C4B 2864   3.309   6.981   9.339  0.1141  0.1427 -0.1806
  180loPI    C1 2865   1.954   1.279  11.710 -0.0167  0.1177 -0.1022
  180loPI    C2 2866   1.598   1.154  11.842  0.1285 -0.1569  0.0411
  180loPI    C3 2867   1.816   1.406  12.064  0.0411 -0.0162 -0.0307
  180loPI   PO4 2868   1.915   1.246  11.395 -0.4885  0.0900  0.1069
  180loPI   GL1 2869   2.242   1.080  11.100 -0.2703 -0.3951  0.2982
  180loPI   GL2 2870   2.209   0.754  11.070 -0.1664 -0.0806 -0.2935
  180loPI   C1A 2871   2.124   1.105  10.683  0.0505  0.0051  0.0113
  180loPI   C2A 2872   2.152   1.057  10.259  0.1040  0.0653  0.2803
  180loPI   C3A 2873   2.083   1.198   9.855  0.1388 -0.1093 -0.2634
  180loPI   C4A 2874   2.128   1.141   9.415 -0.0450  0.1837 -0.2464
  180loPI   C5A 2875   2.064   1.258   9.013  0.0627  0.0857 -0.4173
  180loPI   C6A 2876   1.868   1.517   8.695 -0.0320 -0.2196  0.0515
  180loPI   C1B 2877   2.216   0.583  10.624 -0.0371  0.1611  0.0790
  180loPI   C2B 2878   2.278   0.591  10.147  0.0313 -0.0879  0.0245
  180loPI   C3B 2879   2.152   0.646   9.812  0.1490 -0.0002  0.1789
  180loPI   C4B 2880   2.204   0.632   9.313 -0.1978  0.0863 -0.2585
  181loPI    C1 2881   0.901   6.212  12.045  0.2171 -0.1074 -0.1346
  181loPI    C2 2882   1.000   5.837  12.140 -0.2675 -0.1816  0.1087
  181loPI    C3 2883   0.798   6.062  12.401  0.0961  0.2854  0.0009
  181loPI   PO4 2884   0.843   6.127  11.769 -0.2900  0.0981 -0.0423
  181loPI   GL1 2885   1.062   6.298  11.425  0.0645 -0.0097  0.2077
  181loPI   GL2 2886   1.282   6.524  11.326 -0.0230  0.4207  0.0693
  181loPI   C1A 2887   1.068   6.170  10.952  0.0259 -0.0671 -0.1866
  181loPI   C2A 2888   1.123   6.217  10.577  0.0709 -0.2791 -0.2807
  181loPI   C3A 2889   1.080   6.136  10.096  0.0363  0.1038 -0.0948
  181loPI   C4A 2890   1.137   6.210   9.672 -0.1696 -0.0985 -0.2090
  181loPI   C5A 2891   0.923   6.177   9.204  0.0014  0.3449 -0.1263
  181loPI   C6A 2892   0.532   6.198   9.170  0.1491  0.0625 -0.2000
  181loPI   C1B 2893   1.456   6.503  10.884 -0.2662  0.1373  0.0547
  181loPI   C2B 2894   1.471   6.565  10.393  0.0796  0.1167  0.0081
  181loPI   C3B 2895   1.447   6.519   9.915 -0.2274  0.3509 -0.1087
  181loPI   C4B 2896   1.446   6.593   9.430 -0.3143 -0.0564  0.1625
  182loPI    C1 2897  16.251   2.789  11.114  0.0704 -0.2729 -0.0453
  182loPI    C2 2898  15.895   2.608  11.093 -0.1611  0.1509  0.0864
  182loPI    C3 2899  16.021   2.763  11.439  0.0326  0.2413 -0.0225
  182loPI   PO4 2900  16.410   2.645  11.013  0.1489 -0.2763  0.0788
  182loPI   GL1 2901  16.458   2.656  10.662 -0.1599 -0.0811  0.2572
  182loPI   GL2 2902  16.493   3.009  10.606  0.0300  0.1539  0.1258
  182loPI   C1A 2903  16.679   2.621  10.289  0.3149  0.0479 -0.0781
  182loPI   C2A 2904  16.677   2.586   9.936 -0.0042  0.0094 -0.2139
  182loPI   C3A 2905  16.649   2.677   9.502  0.0641 -0.0198 -0.2882
  182loPI   C4A 2906  16.646   2.688   9.117  0.0159 -0.0568 -0.1037
  182loPI   C5A 2907  16.620   2.516   8.708  0.1995 -0.2152  0.0417
  182loPI   C6A 2908  16.762   2.316   8.399  0.0732  0.3110  0.1888
  182loPI   C1B 2909  16.582   3.147  10.130  0.0946 -0.0435  0.1835
  182loPI   C2B 2910  16.569   3.188   9.708 -0.0295  0.1051 -0.0857
  182loPI   C3B 2911  16.630   3.112   9.346 -0.0997  0.0314  0.0501
  182loPI   C4B 2912  16.589   3.252   8.833 -0.3123 -0.4126  0.1338
  183loPI    C1 2913   5.737   9.823  11.441  0.0680 -0.0333 -0.2256
  183loPI    C2 2914   5.720   9.424  11.464 -0.0019 -0.0277 -0.1766
  183loPI    C3 2915   5.728   9.643  11.798 -0.2485  0.0233 -0.2015
  183loPI   PO4 2916   5.672   9.815  11.192 -0.1841  0.0802  0.0202
  183loPI   GL1 2917   5.552   9.742  10.766  0.1230 -0.0850 -0.3986
  183loPI   GL2 2918   5.283   9.714  10.640 -0.2340  0.0076  0.0206
  183loPI   C1A 2919   5.731   9.950  10.375 -0.0038 -0.0268  0.0136
  183loPI   C2A 2920   5.817   9.950   9.940  0.1622 -0.0630  0.0719
  183loPI   C3A 2921   5.718  10.000   9.484  0.1451  0.0747 -0.2826
  183loPI   C4A 2922   5.708  10.027   9.044 -0.1243  0.0958  0.0521
  183loPI   C5A 2923   5.582   9.999   8.618  0.1228 -0.1659  0.1781
  183loPI   C6A 2924   5.332  10.329   8.453  0.1203  0.0422 -0.1940
  183loPI   C1B 2925   5.359   9.564  10.194 -0.0233  0.0657 -0.1873
  183loPI   C2B 2926   5.357   9.602   9.803 -0.0174 -0.0649  0.0706
  183loPI   C3B 2927   5.342   9.563   9.348  0.0382  0.2290  0.0320
  183loPI   C4B 2928   5.312   9.576   8.875  0.0698 -0.1839  0.1991
  184loPI    C1 2929  10.620   2.049  11.252  0.2804 -0.1043  0.0965
  184loPI    C2 2930  10.720   2.321  11.528  0.1515 -0.0264  0.0676
  184loPI    C3 2931  10.765   1.931  11.606  0.2639  0.0001  0.1384
  184loPI   PO4 2932  10.674   2.122  11.016  0.1339 -0.0209 -0.2153
  184loPI   GL1 2933  10.466   2.194  10.729 -0.0553 -0.2335  0.2596
  184loPI   GL2 2934  10.840   2.320  10.633 -0.2550 -0.1278 -0.1851
  184loPI   C1A 2935  10.241   2.281  10.465  0.5401 -0.0412 -0.0831
  184loPI   C2A 2936  10.227   2.406  10.142  0.2160  0.2466  0.0184
  184loPI   C3A 2937  10.206   2.446   9.665 -0.1404  0.4800 -0.2355
  184loPI   C4A 2938  10.150   2.374   9.200  0.2459 -0.0777  0.0316
  184loPI   C5A 2939  10.105   2.316   8.736 -0.1150  0.2372 -0.2628
  184loPI   C6A 2940  10.338   2.539   8.352  0.0056 -0.1568 -0.0235
  184loPI   C1B 2941  10.696   2.242  10.258 -0.0252  0.0822  0.1530
  184loPI   C2B 2942  10.614   2.178   9.811 -0.0727 -0.0247 -0.1113
  184loPI   C3B 2943  10.651   2.189   9.372  0.3687  0.1033 -0.0650
  184loPI   C4B 2944  10.666   2.155   8.856 -0.0124  0.2719  0.0240
  185loPI    C1 2945  11.712   0.474  11.230  0.2121 -0.2517  0.0535
  185loPI    C2 2946  11.669   0.588  11.612 -0.1605 -0.0948 -0.0305
  185loPI    C3 2947  11.734   0.203  11.524 -0.0094 -0.1222  0.1932
  185loPI   PO4 2948  11.563   0.568  11.088  0.2186  0.0790  0.2624
  185loPI   GL1 2949  11.554   0.726  10.594 -0.1334 -0.4074 -0.1800
  185loPI   GL2 2950  11.455   0.429  10.561 -0.1977  0.0781  0.0311
  185loPI   C1A 2951  11.862   0.934  10.293 -0.0244 -0.3155  0.0652
  185loPI   C2A 2952  11.829   0.959   9.780  0.2534 -0.2034  0.2143
  185loPI   C3A 2953  11.899   0.930   9.295  0.1891  0.0783 -0.1988
  185loPI   C4A 2954  11.968   0.783   8.953  0.0132  0.0651  0.0857
  185loPI   C5A 2955  11.802   0.750   8.544  0.0247  0.1638 -0.2295
  185loPI   C6A 2956  11.634   0.355   8.234  0.0937 -0.1457  0.0238
  185loPI   C1B 2957  11.432   0.522  10.100  0.3350 -0.1893 -0.4690
  185loPI   C2B 2958  11.414   0.655   9.652  0.0073 -0.1329 -0.2576
  185loPI   C3B 2959  11.509   0.599   9.188 -0.1588  0.4615 -0.1399
  185loPI   C4B 2960  11.430   0.492   8.743  0.0443  0.2380 -0.0516
  186loPI    C1 2961   5.607   4.311  11.590 -0.2177 -0.0110 -0.0609
  186loPI    C2 2962   5.927   4.286  11.828 -0.1919  0.1102 -0.0820
  186loPI    C3 2963   5.630   4.021  11.864 -0.2807  0.2463  0.2228
  186loPI   PO4 2964   5.843   4.335  11.305  0.3182  0.3001  0.1671
  186loPI   GL1 2965   6.318   4.401  11.109  0.2424  0.0137  0.1171
  186loPI   GL2 2966   6.120   4.746  11.045 -0.0255 -0.0997 -0.0632
  186loPI   C1A 2967   6.237   4.134  10.757  0.1385 -0.1790 -0.2014
  186loPI   C2A 2968   6.104   4.006  10.367 -0.1583  0.0843  0.0415
  186loPI   C3A 2969   6.104   4.006   9.984 -0.1408  0.1216 -0.1993
  186loPI   C4A 2970   6.027   4.180   9.603 -0.0709  0.1438  0.1633
  186loPI   C5A 2971   6.032   4.126   9.250 -0.1822 -0.2464 -0.1634
  186loPI   C6A 2972   6.046   4.401   8.834 -0.5833 -0.0682  0.1403
  186loPI   C1B 2973   6.076   4.557  10.682  0.2840  0.2203  0.0402
  186loPI   C2B 2974   6.051   4.634  10.256  0.0581 -0.0732  0.1046
  186loPI   C3B 2975   5.977   4.696   9.722  0.1859  0.0082  0.1232
  186loPI   C4B 2976   6.021   4.609   9.305  0.1777 -0.0055  0.2313
  187loPI    C1 2977  15.512   3.269  11.499  0.0793 -0.0832 -0.2125
  187loPI    C2 2978  15.668   3.491  11.793 -0.1311 -0.1404 -0.0553
  187loPI    C3 2979  15.851   3.154  11.677 -0.0089 -0.0795 -0.0409
  187loPI   PO4 2980  15.464   3.381  11.325  0.1833 -0.0534 -0.1990
  187loPI   GL1 2981  15.705   3.562  10.949 -0.0247 -0.2166  0.0366
  187loPI   GL2 2982  15.865   3.338  10.651 -0.0619  0.1052 -0.0665
  187loPI   C1A 2983  15.799   3.848  10.493 -0.1279 -0.0686 -0.0025
  187loPI   C2A 2984  15.961   3.855  10.044 -0.2153  0.2228 -0.1157
  187loPI   C3A 2985  15.945   3.808   9.660 -0.0748 -0.1220 -0.0670
  187loPI   C4A 2986  15.979   3.823   9.306  0.1945 -0.0645  0.0063
  187loPI   C5A 2987  15.847   3.728   8.838  0.3572 -0.0747  0.1771
  187loPI   C6A 2988  15.998   3.337   8.578  0.1285  0.2150 -0.1193
  187loPI   C1B 2989  16.135   3.380  10.319 -0.2086 -0.1027 -0.0796
  187loPI   C2B 2990  16.091   3.361   9.873 -0.1429  0.1364 -0.1582
  187loPI   C3B 2991  16.084   3.326   9.506 -0.2446  0.3394 -0.0802
  187loPI   C4B 2992  16.100   3.323   9.094  0.3188  0.0254  0.1548
  188loPI    C1 2993   9.027   2.964  11.550  0.0566  0.0334 -0.0382
  188loPI    C2 2994   8.749   3.034  11.828  0.0382  0.2391 -0.1069
  188loPI    C3 2995   9.133   3.003  11.934 -0.0371 -0.3484  0.0312
  188loPI   PO4 2996   8.866   2.910  11.376  0.1996  0.1281 -0.1450
  188loPI   GL1 2997   8.908   2.770  10.927 -0.1208 -0.2514 -0.1187
  188loPI   GL2 2998   8.689   2.979  10.939  0.0011  0.0541  0.1175
  188loPI   C1A 2999   8.727   2.799  10.423  0.2729 -0.0784  0.0261
  188loPI   C2A 3000   8.746   2.849   9.931 -0.0280  0.1817  0.0770
  188loPI   C3A 3001   8.674   2.806   9.473  0.1688 -0.1776 -0.2130
  188loPI   C4A 3002   8.612   2.860   9.024  0.2535  0.0183  0.0834
  188loPI   C5A 3003   8.666   2.783   8.605 -0.0979 -0.0271 -0.1728
  188loPI   C6A 3004   8.915   3.034   8.202 -0.0960  0.2641 -0.1425
  188loPI   C1B 3005   8.694   3.296  10.597 -0.2413 -0.0422 -0.2411
  188loPI   C2B 3006   8.671   3.326  10.145 -0.1724 -0.0495  0.1509
  188loPI   C3B 3007   8.600   3.329   9.714 -0.4231 -0.1283 -0.1837
  188loPI   C4B 3008   8.563   3.371   9.293 -0.0209  0.0585  0.1818
  189loPI    C1 3009   2.457  10.737  11.611  0.0172 -0.1213  0.1204
  189loPI    C2 3010   2.368  10.703  11.999 -0.0747  0.1700  0.1267
  189loPI    C3 3011   2.633  10.977  11.878  0.0001  0.0383 -0.0101
  189loPI   PO4 3012   2.343  10.484  11.463 -0.7068 -0.0724 -0.0519
  189loPI   GL1 3013   2.325  10.595  11.019 -0.1859  0.4955 -0.0226
  189loPI   GL2 3014   2.382  10.201  11.056 -0.0961  0.0903  0.3839
  189loPI   C1A 3015   2.193  10.680  10.513  0.0751  0.1188 -0.0058
  189loPI   C2A 3016   2.076  10.690  10.098  0.2808  0.0225  0.2807
  189loPI   C3A 3017   1.977  10.814   9.695 -0.1298 -0.0393 -0.0385
  189loPI   C4A 3018   1.817  10.885   9.323  0.2211  0.0437 -0.1943
  189loPI   C5A 3019   1.399  10.814   9.080 -0.1664 -0.3011  0.0692
  189loPI   C6A 3020   1.308  10.422   8.929 -0.0315 -0.2630 -0.1119
  189loPI   C1B 3021   2.107  10.176  10.668 -0.0293 -0.2587 -0.1352
  189loPI   C2B 3022   2.063  10.153  10.237 -0.1655  0.0277  0.1207
  189loPI   C3B 3023   2.123  10.288   9.761  0.1466 -0.2708  0.1941
  189loPI   C4B 3024   2.075  10.159   9.392 -0.0517 -0.1447  0.0067
  190loPI    C1 3025  15.458  12.496  11.037 -0.0209 -0.2943 -0.1847
  190loPI    C2 3026  15.846  12.579  10.984 -0.0057  0.0666  0.4073
  190loPI    C3 3027  15.693  12.565  11.353 -0.5570 -0.0885  0.1824
  190loPI   PO4 3028  15.333  12.277  10.995 -0.0302 -0.2083  0.1089
  190loPI   GL1 3029  15.470  12.208  10.517 -0.1176  0.0715  0.1699
  190loPI   GL2 3030  15.765  12.386  10.436 -0.0902 -0.2394 -0.0842
  190loPI   C1A 3031  15.498  12.281   9.974  0.3740 -0.3059 -0.0594
  190loPI   C2A 3032  15.448  12.189   9.537 -0.1207 -0.0093  0.0852
  190loPI   C3A 3033  15.499  12.144   9.076 -0.4050  0.0164  0.0987
  190loPI   C4A 3034  15.523  11.973   8.744  0.0350  0.0972  0.0206
  190loPI   C5A 3035  15.380  11.870   8.333  0.0155  0.1394 -0.0767
  190loPI   C6A 3036  15.250  11.840   7.927  0.1239  0.0467  0.2493
  190loPI   C1B 3037  15.928  12.545  10.022 -0.3349  0.0356 -0.0979
  190loPI   C2B 3038  15.817  12.598   9.662  0.0271  0.1007 -0.2061
  190loPI   C3B 3039  15.896  12.378   9.294 -0.0928 -0.3136  0.1381
  190loPI   C4B 3040  15.951  12.396   8.806  0.3661 -0.1998  0.1177
  191loPI    C1 3041  14.610   5.122  11.216 -0.3393  0.0233  0.1205
  191loPI    C2 3042  14.625   5.186  11.611  0.1601  0.1343  0.0908
  191loPI    C3 3043  14.848   4.898  11.447 -0.1356  0.0090 -0.0996
  191loPI   PO4 3044  14.627   5.298  10.981 -0.3000 -0.0749  0.0422
  191loPI   GL1 3045  14.653   5.282  10.536 -0.3325 -0.1537 -0.0970
  191loPI   GL2 3046  14.967   5.437  10.602  0.4276  0.0130 -0.0677
  191loPI   C1A 3047  14.663   5.081  10.196  0.2063 -0.2337 -0.1316
  191loPI   C2A 3048  14.771   5.073   9.765 -0.0263  0.3915 -0.1250
  191loPI   C3A 3049  14.684   5.105   9.302  0.1198 -0.1965 -0.0554
  191loPI   C4A 3050  14.764   5.145   8.849 -0.2262  0.1519 -0.0939
  191loPI   C5A 3051  14.692   5.144   8.337 -0.1033 -0.0452 -0.0397
  191loPI   C6A 3052  14.516   4.893   8.226  0.3098 -0.4267 -0.0283
  191loPI   C1B 3053  15.029   5.410  10.188 -0.0812  0.1385 -0.1013
  191loPI   C2B 3054  15.050   5.497   9.731 -0.3795 -0.3551 -0.1090
  191loPI   C3B 3055  15.128   5.401   9.335 -0.1008  0.0378  0.0631
  191loPI   C4B 3056  15.221   5.362   8.913 -0.2514  0.2564 -0.2156
  192loPI    C1 3057  12.137  10.725  11.055 -0.2504 -0.2232 -0.0272
  192loPI    C2 3058  12.199  10.969  11.366 -0.4789 -0.0120 -0.1435
  192loPI    C3 3059  12.044  10.605  11.425 -0.4100 -0.0186  0.0009
  192loPI   PO4 3060  11.959  10.855  10.899  0.3349 -0.5236  0.0469
  192loPI   GL1 3061  11.824  10.819  10.449  0.2629  0.0936  0.0963
  192loPI   GL2 3062  12.076  10.735  10.210  0.0833  0.3648 -0.1777
  192loPI   C1A 3063  11.682  10.620   9.966  0.0345 -0.0124 -0.1331
  192loPI   C2A 3064  11.525  10.536   9.592 -0.1131 -0.0267  0.1319
  192loPI   C3A 3065  11.666  10.469   9.114  0.0204  0.1451  0.2336
  192loPI   C4A 3066  11.851  10.344   8.704  0.2875  0.0289  0.1740
  192loPI   C5A 3067  11.804  10.344   8.219  0.0549  0.2868  0.0605
  192loPI   C6A 3068  11.458  10.017   8.091  0.1651 -0.1230  0.1320
  192loPI   C1B 3069  12.021  10.949   9.818 -0.0554  0.1905 -0.0467
  192loPI   C2B 3070  11.966  10.767   9.380 -0.2666 -0.0432  0.0346
  192loPI   C3B 3071  12.093  10.769   9.020 -0.3416 -0.0209  0.4967
  192loPI   C4B 3072  12.273  10.593   8.662 -0.0746  0.1357 -0.0911
  193loPI    C1 3073  13.239   7.004  10.683 -0.0861  0.0095  0.0265
  193loPI    C2 3074  12.930   7.196  10.849 -0.0632  0.0544  0.0176
  193loPI    C3 3075  13.215   7.039  11.081 -0.0292  0.1201  0.0204
  193loPI   PO4 3076  13.375   7.159  10.521  0.2141  0.1055 -0.3032
  193loPI   GL1 3077  13.745   7.099  10.289 -0.2155 -0.0161  0.0786
  193loPI   GL2 3078  13.756   6.795  10.168 -0.1596 -0.0600 -0.0452
  193loPI   C1A 3079  13.791   7.339   9.893 -0.1663  0.1791  0.0244
  193loPI   C2A 3080  13.838   7.421   9.519 -0.0030  0.0314 -0.1815
  193loPI   C3A 3081  13.954   7.388   9.080  0.2262 -0.2569  0.2145
  193loPI   C4A 3082  14.033   7.400   8.707 -0.0046 -0.0376  0.0816
  193loPI   C5A 3083  14.325   7.533   8.429 -0.0159 -0.1961  0.0140
  193loPI   C6A 3084  14.445   7.808   8.062 -0.3932 -0.0042  0.2239
  193loPI   C1B 3085  13.857   6.818   9.745 -0.1509  0.0169  0.2969
  193loPI   C2B 3086  13.922   6.949   9.333 -0.1929 -0.1059 -0.2370
  193loPI   C3B 3087  13.942   6.916   8.843 -0.0262  0.1724 -0.2888
  193loPI   C4B 3088  14.120   6.896   8.431  0.2324  0.0795 -0.1047
  194loPI    C1 3089  17.105   2.944  11.461 -0.0453 -0.0744 -0.0229
  194loPI    C2 3090  17.079   2.602  11.667 -0.0534 -0.0937 -0.0560
  194loPI    C3 3091  17.337   2.885  11.781 -0.2188 -0.0104  0.1161
  194loPI   PO4 3092  17.139   2.860  11.238  0.0674  0.1007  0.0126
  194loPI   GL1 3093  17.349   3.075  10.857 -0.2364 -0.0752 -0.0201
  194loPI   GL2 3094  17.087   2.935  10.710 -0.0936 -0.0498 -0.0477
  194loPI   C1A 3095  17.460   3.268  10.454 -0.2549 -0.0762 -0.0559
  194loPI   C2A 3096  17.426   3.339  10.098  0.3452  0.2205 -0.0277
  194loPI   C3A 3097  17.445   3.365   9.719 -0.2381  0.1045 -0.1848
  194loPI   C4A 3098  17.358   3.289   9.389  0.1735  0.0513  0.1799
  194loPI   C5A 3099  17.364   3.430   8.967  0.0392 -0.0488  0.0606
  194loPI   C6A 3100  17.619   3.472   8.588 -0.2134  0.3828  0.0893
  194loPI   C1B 3101  17.084   2.978  10.230 -0.0207 -0.1872  0.0923
  194loPI   C2B 3102  17.044   2.969   9.832  0.2186  0.1145 -0.1881
  194loPI   C3B 3103  17.065   2.900   9.352 -0.1718  0.0692 -0.0412
  194loPI   C4B 3104  17.143   2.843   8.886 -0.1094 -0.2064 -0.1141
  195loPI    C1 3105   8.723   1.216  11.316 -0.1646 -0.1876 -0.1205
  195loPI    C2 3106   8.330   1.169  11.373 -0.1161 -0.2324  0.1928
  195loPI    C3 3107   8.583   1.121  11.679  0.1153  0.0123  0.0432
  195loPI   PO4 3108   8.789   1.469  11.164  0.4945 -0.1803 -0.1178
  195loPI   GL1 3109   8.667   1.500  10.720 -0.1842  0.1616 -0.1010
  195loPI   GL2 3110   8.842   1.745  10.584 -0.2309  0.4142 -0.0947
  195loPI   C1A 3111   8.635   1.421  10.241  0.1899 -0.1723  0.1226
  195loPI   C2A 3112   8.439   1.535   9.839 -0.2592  0.0367 -0.1747
  195loPI   C3A 3113   8.446   1.444   9.367 -0.2048  0.1979 -0.2914
  195loPI   C4A 3114   8.434   1.574   9.043 -0.0724  0.1131 -0.0119
  195loPI   C5A 3115   8.458   1.617   8.602  0.1789 -0.1022 -0.0574
  195loPI   C6A 3116   8.620   1.669   8.195 -0.1239  0.1640  0.0319
  195loPI   C1B 3117   8.945   1.800  10.104  0.1430 -0.1690 -0.1065
  195loPI   C2B 3118   8.868   1.835   9.743  0.0807 -0.0107 -0.2092
  195loPI   C3B 3119   8.806   1.782   9.332 -0.0307 -0.1786  0.0349
  195loPI   C4B 3120   8.805   1.867   9.000  0.1781  0.3769 -0.0874
  196loPI    C1 3121   4.001   1.619  11.610 -0.1965 -0.4515  0.1851
  196loPI    C2 3122   4.369   1.494  11.707  0.0597 -0.0065 -0.1717
  196loPI    C3 3123   4.130   1.651  11.987  0.2746  0.0246 -0.0030
  196loPI   PO4 3124   4.036   1.586  11.310  0.2289 -0.1066  0.2911
  196loPI   GL1 3125   3.772   1.455  10.950 -0.0819  0.1054 -0.0795
  196loPI   GL2 3126   3.842   1.114  10.895 -0.0165  0.2515 -0.1496
  196loPI   C1A 3127   3.923   1.551  10.486  0.0746  0.2895  0.0067
  196loPI   C2A 3128   3.824   1.480  10.044 -0.0404  0.3176  0.2154
  196loPI   C3A 3129   3.795   1.436   9.584  0.0012 -0.3967 -0.1545
  196loPI   C4A 3130   3.804   1.396   9.162  0.0204 -0.0762 -0.0042
  196loPI   C5A 3131   3.922   1.657   8.919 -0.1117  0.3259 -0.0888
  196loPI   C6A 3132   4.205   1.944   8.893 -0.0083  0.1268 -0.0131
  196loPI   C1B 3133   3.966   0.995  10.459  0.1316 -0.1433  0.1484
  196loPI   C2B 3134   3.891   0.994   9.977 -0.1868  0.0624  0.1810
  196loPI   C3B 3135   3.896   0.938   9.537 -0.0233 -0.0191 -0.1819
  196loPI   C4B 3136   3.926   0.943   9.066 -0.2067 -0.4101  0.0404
  197loPI    C1 3137   2.117  14.388  11.292 -0.2687  0.0687  0.2879
  197loPI    C2 3138   2.375  14.685  11.222  0.0297 -0.2668 -0.0832
  197loPI    C3 3139   2.486  14.371  11.443 -0.1747 -0.2590  0.0334
  197loPI   PO4 3140   2.034  14.372  10.996 -0.0661 -0.0736 -0.2336
  197loPI   GL1 3141   2.121  14.454  10.649 -0.3217  0.5100  0.0611
  197loPI   GL2 3142   2.527  14.385  10.499 -0.3167  0.0593 -0.1591
  197loPI   C1A 3143   2.170  14.589  10.154 -0.2055 -0.2051  0.0958
  197loPI   C2A 3144   2.122  14.535   9.775  0.1464 -0.1666  0.2449
  197loPI   C3A 3145   2.106  14.554   9.352  0.2181  0.1181  0.4459
  197loPI   C4A 3146   1.863  14.597   8.913 -0.0779  0.0750 -0.1475
  197loPI   C5A 3147   1.468  14.520   8.768  0.0138 -0.0600 -0.1181
  197loPI   C6A 3148   1.092  14.773   8.803  0.0963  0.2391 -0.0291
  197loPI   C1B 3149   2.592  14.301  10.046 -0.2026 -0.0141 -0.1148
  197loPI   C2B 3150   2.584  14.367   9.659 -0.1970  0.3084 -0.1207
  197loPI   C3B 3151   2.555  14.346   9.228 -0.0436 -0.0546  0.0395
  197loPI   C4B 3152   2.417  14.446   8.753  0.0887  0.0271 -0.1822
  198loPI    C1 3153   5.613   8.369  11.383  0.0654  0.0350 -0.2184
  198loPI    C2 3154   5.424   8.200  11.692  0.0109  0.1296 -0.1995
  198loPI    C3 3155   5.766   8.399  11.751  0.2588 -0.2631 -0.2708
  198loPI   PO4 3156   5.574   8.264  11.178 -0.2767  0.1670  0.0178
  198loPI   GL1 3157   5.614   8.133  10.798 -0.0071 -0.1644  0.1908
  198loPI   GL2 3158   5.523   7.820  10.821 -0.1886 -0.1662  0.1424
  198loPI   C1A 3159   5.310   8.249  10.510  0.2139  0.1507 -0.1331
  198loPI   C2A 3160   5.217   8.135  10.055  0.1875 -0.0806  0.4748
  198loPI   C3A 3161   5.262   8.135   9.575 -0.1645 -0.1430 -0.3045
  198loPI   C4A 3162   5.194   8.181   9.149 -0.0224 -0.1301  0.4318
  198loPI   C5A 3163   5.248   8.124   8.686 -0.1074 -0.0747  0.2355
  198loPI   C6A 3164   5.411   7.741   8.480 -0.2873  0.1501 -0.0513
  198loPI   C1B 3165   5.417   7.655  10.432  0.2405  0.3439 -0.0440
  198loPI   C2B 3166   5.335   7.663   9.997  0.0876 -0.0401 -0.0523
  198loPI   C3B 3167   5.389   7.604   9.601  0.1984  0.2286  0.1771
  198loPI   C4B 3168   5.387   7.670   9.130 -0.0769 -0.0726 -0.0857
  199loPI    C1 3169  11.246  11.249  10.784 -0.1659  0.0497  0.2671
  199loPI    C2 3170  11.076  11.035  11.076 -0.0162 -0.3072  0.0999
  199loPI    C3 3171  11.457  10.968  10.975 -0.0024 -0.0384 -0.0365
  199loPI   PO4 3172  11.124  11.265  10.605  0.0474  0.1597 -0.0695
  199loPI   GL1 3173  11.055  11.113  10.265 -0.2960  0.0943 -0.1336
  199loPI   GL2 3174  11.438  11.104  10.186  0.0942 -0.0856 -0.0443
  199loPI   C1A 3175  11.068  11.240   9.848 -0.1414  0.1600 -0.1325
  199loPI   C2A 3176  11.019  11.497   9.419 -0.0614  0.2452 -0.1368
  199loPI   C3A 3177  10.971  11.710   9.030 -0.0280  0.0550  0.1020
  199loPI   C4A 3178  10.997  11.831   8.634  0.0389  0.0087  0.2417
  199loPI   C5A 3179  11.064  12.130   8.325 -0.1589  0.3292 -0.0757
  199loPI   C6A 3180  10.984  12.364   7.922 -0.1928 -0.0366 -0.2120
  199loPI   C1B 3181  11.567  11.055   9.695  0.1270  0.1875 -0.0570
  199loPI   C2B 3182  11.538  10.941   9.287  0.1230  0.0230  0.2361
  199loPI   C3B 3183  11.585  10.928   8.840  0.0487  0.1527 -0.0280
  199loPI   C4B 3184  11.683  10.743   8.458 -0.1377  0.1349 -0.1900
  200loPI    C1 3185   0.764  13.859  11.621  0.1657  0.1256 -0.0293
  200loPI    C2 3186   0.524  14.107  11.824  0.0634 -0.0440  0.0600
  200loPI    C3 3187   0.666  13.778  12.000 -0.0441 -0.2051 -0.1500
  200loPI   PO4 3188   0.648  13.745  11.372 -0.1224  0.1136 -0.1869
  200loPI   GL1 3189   0.831  13.709  10.900  0.1833 -0.0536  0.1504
  200loPI   GL2 3190   0.505  13.907  10.890  0.0707 -0.0256  0.0115
  200loPI   C1A 3191   0.818  13.521  10.486  0.0262 -0.4174  0.0207
  200loPI   C2A 3192   0.935  13.496  10.098  0.0293 -0.1060 -0.1148
  200loPI   C3A 3193   0.914  13.533   9.702 -0.1239 -0.1634 -0.0210
  200loPI   C4A 3194   0.871  13.399   9.328  0.4158  0.0586  0.0330
  200loPI   C5A 3195   0.860  13.307   8.889  0.1060  0.3174 -0.1037
  200loPI   C6A 3196   0.638  12.982   8.524 -0.4061 -0.2614 -0.0638
  200loPI   C1B 3197   0.726  13.995  10.475 -0.3126  0.1793  0.2046
  200loPI   C2B 3198   0.823  13.988  10.003 -0.0856 -0.1166 -0.1127
  200loPI   C3B 3199   0.757  14.002   9.577  0.0481  0.1868 -0.1522
  200loPI   C4B 3200   0.750  13.829   9.108 -0.2232  0.0561 -0.2319
  201loPI    C1 3201   8.236  12.739  11.282  0.0328 -0.0440 -0.1971
  201loPI    C2 3202   7.883  12.788  11.464  0.0694 -0.1193 -0.1052
  201loPI    C3 3203   8.106  12.465  11.543  0.1940 -0.0341 -0.1052
  201loPI   PO4 3204   8.176  12.857  11.082 -0.1422  0.0056  0.0611
  201loPI   GL1 3205   8.151  12.896  10.713 -0.2428 -0.1233  0.0919
  201loPI   GL2 3206   8.087  12.643  10.626 -0.3513 -0.3480 -0.0163
  201loPI   C1A 3207   7.923  13.149  10.342  0.2431  0.3140 -0.2782
  201loPI   C2A 3208   7.785  13.105   9.982  0.1057  0.3177  0.2563
  201loPI   C3A 3209   7.855  13.082   9.546 -0.0261 -0.0990  0.0912
  201loPI   C4A 3210   7.893  13.143   9.117 -0.0834  0.2088 -0.3561
  201loPI   C5A 3211   7.777  13.138   8.728  0.1745 -0.0239 -0.0409
  201loPI   C6A 3212   7.662  12.997   8.355 -0.1279  0.1402 -0.1211
  201loPI   C1B 3213   7.899  12.616  10.242 -0.3067  0.0296 -0.1889
  201loPI   C2B 3214   7.904  12.633   9.788  0.1146  0.0276  0.3338
  201loPI   C3B 3215   7.996  12.583   9.349 -0.4307 -0.2833 -0.0828
  201loPI   C4B 3216   7.858  12.691   8.912 -0.1059 -0.1437  0.0903
  202loPI    C1 3217   8.425   9.018  10.889  0.1390  0.0714 -0.0507
  202loPI    C2 3218   8.721   9.077  11.152  0.2261 -0.0558 -0.1186
  202loPI    C3 3219   8.497   8.746  11.174  0.1472 -0.0030 -0.1232
  202loPI   PO4 3220   8.529   9.165  10.664 -0.0928  0.0018 -0.2393
  202loPI   GL1 3221   8.653   9.412  10.333  0.1724  0.0281  0.2515
  202loPI   GL2 3222   8.948   9.478  10.240  0.0791 -0.3799 -0.1326
  202loPI   C1A 3223   8.544   9.326   9.957 -0.0064 -0.0187  0.1803
  202loPI   C2A 3224   8.528   9.371   9.496  0.1310 -0.3536  0.0663
  202loPI   C3A 3225   8.637   9.351   9.076  0.1080  0.0519  0.2296
  202loPI   C4A 3226   8.691   9.303   8.617  0.3734  0.1850  0.3171
  202loPI   C5A 3227   8.805   9.228   8.173  0.1210  0.1148  0.1742
  202loPI   C6A 3228   8.889   9.247   7.816  0.4760  0.1189  0.1219
  202loPI   C1B 3229   9.051   9.422   9.781 -0.3583 -0.0294  0.1765
  202loPI   C2B 3230   9.041   9.387   9.337 -0.0597  0.1424  0.0071
  202loPI   C3B 3231   9.111   9.315   8.905  0.0437  0.0416 -0.1248
  202loPI   C4B 3232   9.136   9.341   8.491 -0.0409 -0.1333  0.2053
  203loPI    C1 3233   9.450   0.673  11.185  0.1348  0.0884  0.0414
  203loPI    C2 3234   9.428   0.564  11.569 -0.1125  0.1880  0.0571
  203loPI    C3 3235   9.268   0.331  11.286 -0.0576  0.1856  0.0279
  203loPI   PO4 3236   9.694   0.733  11.147  0.0695  0.1498 -0.2736
  203loPI   GL1 3237   9.745   0.781  10.710  0.2238 -0.0104 -0.0197
  203loPI   GL2 3238   9.903   1.110  10.524  0.2843  0.2721  0.1407
  203loPI   C1A 3239   9.672   0.570  10.352  0.1407 -0.0624 -0.0543
  203loPI   C2A 3240   9.622   0.553   9.944  0.1177  0.0907 -0.0620
  203loPI   C3A 3241   9.532   0.585   9.520  0.1541  0.0857 -0.0056
  203loPI   C4A 3242   9.450   0.691   9.107 -0.3330  0.0463 -0.1875
  203loPI   C5A 3243   9.629   0.559   8.754 -0.1032  0.1220  0.1919
  203loPI   C6A 3244   9.670   0.482   8.348 -0.1588 -0.1278 -0.2108
  203loPI   C1B 3245   9.960   0.901  10.160  0.1169 -0.0166 -0.0951
  203loPI   C2B 3246   9.912   0.922   9.708  0.1635  0.1377 -0.2997
  203loPI   C3B 3247   9.905   0.985   9.272 -0.0662  0.1229 -0.0128
  203loPI   C4B 3248   9.713   1.045   8.849 -0.1014  0.2372  0.3926
  204loPI    C1 3249   6.517  16.216  11.333  0.0898  0.1315 -0.1612
  204loPI    C2 3250   6.230  16.347  11.578  0.0111 -0.3031 -0.0136
  204loPI    C3 3251   6.614  16.395  11.677 -0.0185 -0.2899  0.0962
  204loPI   PO4 3252   6.322  16.206  11.126 -0.0712  0.1617 -0.0658
  204loPI   GL1 3253   6.122  16.380  10.780 -0.0618 -0.0817  0.2022
  204loPI   GL2 3254   6.438  16.583  10.757  0.0962  0.1493 -0.0383
  204loPI   C1A 3255   6.116  16.501  10.417  0.0003 -0.0066  0.0929
  204loPI   C2A 3256   6.262  16.466   9.939  0.2528 -0.0113  0.0676
  204loPI   C3A 3257   6.273  16.541   9.488 -0.3153  0.0775  0.0229
  204loPI   C4A 3258   6.362  16.489   9.052 -0.2626  0.1517  0.1841
  204loPI   C5A 3259   6.246  16.623   8.694 -0.3587 -0.2127  0.0905
  204loPI   C6A 3260   6.120  16.602   8.233  0.0126 -0.0469 -0.1752
  204loPI   C1B 3261   6.598  16.785  10.416 -0.0228 -0.0482 -0.3614
  204loPI   C2B 3262   6.645  16.736   9.956  0.2088  0.0972 -0.0075
  204loPI   C3B 3263   6.727  16.857   9.595 -0.0448  0.0383  0.0454
  204loPI   C4B 3264   6.665  16.891   9.101 -0.1101  0.0488 -0.1701
  205loPI    C1 3265   8.603  14.397  11.580 -0.1719  0.0095  0.0676
  205loPI    C2 3266   8.917  14.351  11.337 -0.2500  0.0530 -0.0424
  205loPI    C3 3267   8.884  14.126  11.666 -0.1022  0.0511 -0.0283
  205loPI   PO4 3268   8.412  14.587  11.326  0.0181 -0.2079 -0.3879
  205loPI   GL1 3269   8.427  14.669  10.819 -0.0751  0.2455  0.1794
  205loPI   GL2 3270   8.570  14.937  10.715  0.0830 -0.2241 -0.2208
  205loPI   C1A 3271   8.400  14.728  10.353  0.1745 -0.0483 -0.4161
  205loPI   C2A 3272   8.443  14.752   9.948 -0.0865 -0.2059  0.0685
  205loPI   C3A 3273   8.368  14.868   9.553 -0.2522 -0.0814 -0.1365
  205loPI   C4A 3274   8.450  14.759   9.103  0.1959  0.0832  0.0339
  205loPI   C5A 3275   8.537  14.773   8.704  0.0307 -0.0329  0.0455
  205loPI   C6A 3276   8.778  14.483   8.426 -0.3307 -0.0077 -0.2931
  205loPI   C1B 3277   8.751  15.157  10.317  0.0362  0.4449  0.1109
  205loPI   C2B 3278   8.885  15.192   9.895  0.2361  0.1955 -0.0654
  205loPI   C3B 3279   8.898  15.225   9.432  0.1998 -0.2203  0.3424
  205loPI   C4B 3280   8.778  15.057   9.003  0.0396  0.0123  0.0631
  206loPI    C1 3281   3.336  12.967  11.485 -0.0391  0.0930  0.0181
  206loPI    C2 3282   3.209  13.336  11.572 -0.1642  0.0462  0.0374
  206loPI    C3 3283   3.425  13.130  11.839 -0.1666  0.0731  0.0603
  206loPI   PO4 3284   3.415  13.014  11.180 -0.0552 -0.0252 -0.0378
  206loPI   GL1 3285   3.531  13.067  10.825  0.5539 -0.2423 -0.0285
  206loPI   GL2 3286   3.343  13.256  10.712 -0.2563  0.6258  0.0489
  206loPI   C1A 3287   3.714  13.050  10.412  0.0362 -0.2240 -0.1319
  206loPI   C2A 3288   3.722  13.080  10.014 -0.0329 -0.1207 -0.0726
  206loPI   C3A 3289   3.722  13.037   9.584 -0.2573 -0.0039  0.0510
  206loPI   C4A 3290   3.790  13.034   9.195  0.0517 -0.2332 -0.5086
  206loPI   C5A 3291   3.746  13.101   8.739  0.0952 -0.0001  0.1858
  206loPI   C6A 3292   3.658  13.132   8.297 -0.1543  0.3243 -0.0371
  206loPI   C1B 3293   3.218  13.116  10.316 -0.0622 -0.2475 -0.0240
  206loPI   C2B 3294   3.242  13.105   9.874 -0.0004  0.0132  0.2046
  206loPI   C3B 3295   3.276  13.212   9.442  0.0530 -0.0514  0.0609
  206loPI   C4B 3296   3.237  13.117   9.005 -0.2374 -0.0644  0.0360
  207loPI    C1 3297  12.553  11.776  10.963 -0.3365  0.0906 -0.0644
  207loPI    C2 3298  12.409  12.050  11.216 -0.3203  0.0749 -0.0380
  207loPI    C3 3299  12.173  11.756  11.084 -0.2213 -0.1509  0.2748
  207loPI   PO4 3300  12.715  11.923  10.764  0.3434 -0.0053  0.0396
  207loPI   GL1 3301  12.713  11.932  10.318  0.0807 -0.0520 -0.0196
  207loPI   GL2 3302  12.893  11.642  10.293 -0.0197 -0.5075 -0.0013
  207loPI   C1A 3303  12.730  12.049   9.921 -0.2006 -0.2996  0.3156
  207loPI   C2A 3304  12.813  12.009   9.465  0.2168  0.2988  0.3690
  207loPI   C3A 3305  12.817  12.026   8.958 -0.0769 -0.0987  0.0112
  207loPI   C4A 3306  13.045  12.137   8.598 -0.0932 -0.2477  0.1222
  207loPI   C5A 3307  13.290  12.482   8.455  0.0202  0.2558 -0.0427
  207loPI   C6A 3308  13.104  12.899   8.263 -0.0693 -0.2038 -0.1139
  207loPI   C1B 3309  12.897  11.596   9.880 -0.1357 -0.0031 -0.1865
  207loPI   C2B 3310  12.886  11.439   9.446 -0.2008  0.0974 -0.1014
  207loPI   C3B 3311  12.892  11.537   8.995  0.1926  0.0051 -0.1321
  207loPI   C4B 3312  12.831  11.646   8.643 -0.0780  0.1287  0.2962
  208loPI    C1 3313   8.132   4.364  11.536 -0.1279  0.2839 -0.0577
  208loPI    C2 3314   7.810   4.331  11.771  0.0335  0.0773  0.1390
  208loPI    C3 3315   8.176   4.334  11.932  0.1633 -0.3956 -0.1286
  208loPI   PO4 3316   8.085   4.144  11.393 -0.5302  0.1490  0.3075
  208loPI   GL1 3317   7.980   3.954  10.993 -0.0996  0.0304  0.0213
  208loPI   GL2 3318   7.720   4.018  10.889 -0.4223  0.0583 -0.2832
  208loPI   C1A 3319   8.069   3.987  10.549 -0.1868  0.2196  0.0013
  208loPI   C2A 3320   8.038   4.016  10.166  0.0606  0.0968  0.2452
  208loPI   C3A 3321   8.007   4.077   9.697 -0.2380  0.1090 -0.1080
  208loPI   C4A 3322   7.939   3.988   9.281 -0.0870 -0.1149 -0.0973
  208loPI   C5A 3323   7.713   3.769   8.907 -0.1742  0.1699  0.1360
  208loPI   C6A 3324   7.392   3.549   8.853  0.0136  0.1954  0.3146
  208loPI   C1B 3325   7.574   4.119  10.480 -0.0984 -0.2116 -0.0730
  208loPI   C2B 3326   7.431   4.123  10.126  0.3531 -0.1816  0.1766
  208loPI   C3B 3327   7.423   4.185   9.578  0.0381 -0.4518  0.1818
  208loPI   C4B 3328   7.504   4.151   9.178 -0.1675 -0.2424  0.1536
  209loPI    C1 3329   7.622   3.201  11.660 -0.0164 -0.0091 -0.1709
  209loPI    C2 3330   7.921   3.397  11.839 -0.0522 -0.0653 -0.0480
  209loPI    C3 3331   7.765   3.071  12.010 -0.1715 -0.0472 -0.1207
  209loPI   PO4 3332   7.495   3.444  11.516 -0.2790 -0.1914  0.0999
  209loPI   GL1 3333   7.384   3.453  11.041  0.0792  0.1676 -0.1555
  209loPI   GL2 3334   7.643   3.519  10.971 -0.0207  0.1099  0.3039
  209loPI   C1A 3335   7.313   3.257  10.737 -0.0330 -0.1687 -0.1610
  209loPI   C2A 3336   7.186   3.296  10.362 -0.0066 -0.0509  0.2309
  209loPI   C3A 3337   7.194   3.318   9.988 -0.2160 -0.0205  0.0785
  209loPI   C4A 3338   7.234   3.341   9.598 -0.0435 -0.0144 -0.1026
  209loPI   C5A 3339   7.082   3.372   9.277  0.0533  0.3262  0.0833
  209loPI   C6A 3340   7.201   3.037   8.958  0.1199  0.1564 -0.0241
  209loPI   C1B 3341   7.787   3.581  10.539  0.1045  0.0643  0.2097
  209loPI   C2B 3342   7.545   3.591  10.187 -0.1603 -0.2521  0.0242
  209loPI   C3B 3343   7.586   3.729   9.743 -0.1978  0.1006  0.1299
  209loPI   C4B 3344   7.502   3.670   9.337  0.1470  0.0245 -0.2642
  210loPI    C1 3345  15.894   0.005  11.338  0.1562 -0.0637  0.1138
  210loPI    C2 3346  15.865   0.375  11.487  0.0848  0.1206 -0.3431
  210loPI    C3 3347  15.564   0.116  11.534  0.1320  0.1195 -0.0283
  210loPI   PO4 3348  15.953   0.030  11.100  0.2174 -0.0412  0.4448
  210loPI   GL1 3349  16.158   0.221  10.852  0.0984  0.3223  0.3749
  210loPI   GL2 3350  16.197   0.494  10.732  0.2995  0.1848 -0.0909
  210loPI   C1A 3351  16.279  -0.044  10.499  0.0349  0.2185 -0.2412
  210loPI   C2A 3352  16.331  -0.052  10.039  0.3777 -0.0229  0.1650
  210loPI   C3A 3353  16.333  -0.044   9.540  0.0940 -0.0397  0.1236
  210loPI   C4A 3354  16.193  -0.031   9.114 -0.2003 -0.0764  0.1150
  210loPI   C5A 3355  16.402   0.029   8.718 -0.0103  0.1533 -0.1988
  210loPI   C6A 3356  16.582   0.297   8.362  0.5092 -0.4149 -0.0941
  210loPI   C1B 3357  16.160   0.414  10.327  0.0928  0.1002  0.1917
  210loPI   C2B 3358  16.181   0.430   9.822  0.0132 -0.0158 -0.0040
  210loPI   C3B 3359  16.182   0.431   9.421  0.0999  0.0691  0.3705
  210loPI   C4B 3360  16.217   0.480   9.023  0.0541 -0.0787  0.0137
  211loPI    C1 3361   9.190  15.386  11.172 -0.0197  0.0954  0.0458
  211loPI    C2 3362   9.500  15.508  10.951  0.0727  0.0143  0.1298
  211loPI    C3 3363   9.531  15.496  11.349  0.1123 -0.4076  0.1189
  211loPI   PO4 3364   9.108  15.171  10.967 -0.2310 -0.0410 -0.2066
  211loPI   GL1 3365   9.326  15.025  10.647 -0.3108  0.0089 -0.0340
  211loPI   GL2 3366   9.608  14.982  10.834 -0.1779 -0.0089 -0.0406
  211loPI   C1A 3367   9.278  15.100  10.230  0.0024  0.1896  0.0721
  211loPI   C2A 3368   9.333  15.088   9.790 -0.2372 -0.1873 -0.1080
  211loPI   C3A 3369   9.336  15.010   9.359 -0.1455 -0.1695 -0.0717
  211loPI   C4A 3370   9.332  15.009   8.999  0.1079  0.0530  0.4932
  211loPI   C5A 3371   9.592  15.065   8.571  0.0650 -0.0374  0.1349
  211loPI   C6A 3372   9.875  14.799   8.283  0.0886 -0.2591 -0.1279
  211loPI   C1B 3373   9.726  15.258  10.385  0.1193 -0.5061  0.1863
  211loPI   C2B 3374   9.713  15.442  10.011 -0.0336  0.0588 -0.1343
  211loPI   C3B 3375   9.694  15.374   9.545 -0.1245 -0.0748  0.1863
  211loPI   C4B 3376   9.680  15.384   9.150 -0.0204  0.0882  0.1018
  212loPI    C1 3377  13.619  10.070  11.173 -0.0194  0.1574  0.1007
  212loPI    C2 3378  13.978   9.934  11.286 -0.0411 -0.0562 -0.0812
  212loPI    C3 3379  13.666   9.904  11.534  0.0684  0.1468  0.0847
  212loPI   PO4 3380  13.635  10.308  10.987 -0.0079  0.2330 -0.2424
  212loPI   GL1 3381  13.461  10.559  10.651  0.1387 -0.0567  0.1647
  212loPI   GL2 3382  13.550  10.868  10.549 -0.3453  0.2282  0.1452
  212loPI   C1A 3383  13.462  10.456  10.097  0.2236  0.1349 -0.0297
  212loPI   C2A 3384  13.515  10.365   9.633  0.6354 -0.1116 -0.1910
  212loPI   C3A 3385  13.630  10.277   9.276  0.1620 -0.0374 -0.3919
  212loPI   C4A 3386  13.728  10.373   8.887  0.1095 -0.2026 -0.0636
  212loPI   C5A 3387  13.821  10.685   8.552  0.0144 -0.1612 -0.2031
  212loPI   C6A 3388  14.299  10.770   8.414 -0.0519  0.3170  0.2172
  212loPI   C1B 3389  13.479  10.995  10.159 -0.1306 -0.3809  0.2119
  212loPI   C2B 3390  13.421  10.995   9.672 -0.2139  0.1762  0.0978
  212loPI   C3B 3391  13.533  10.805   9.242 -0.2306  0.1941 -0.2561
  212loPI   C4B 3392  13.427  10.850   8.902  0.2231  0.0203 -0.2557
  213loPI    C1 3393  11.194   2.723  11.042 -0.1007  0.0089  0.0333
  213loPI    C2 3394  11.406   2.615  11.364  0.1261  0.0923 -0.0854
  213loPI    C3 3395  11.059   2.809  11.408 -0.0461 -0.2519  0.1170
  213loPI   PO4 3396  11.271   2.468  10.837 -0.0074 -0.0497 -0.2386
  213loPI   GL1 3397  11.325   2.221  10.471  0.0047 -0.0757  0.1386
  213loPI   GL2 3398  11.592   2.411  10.404 -0.2257  0.0132 -0.1479
  213loPI   C1A 3399  11.148   2.128  10.103 -0.1509  0.3106  0.1421
  213loPI   C2A 3400  11.140   2.075   9.648 -0.0484  0.2298 -0.1292
  213loPI   C3A 3401  11.055   2.028   9.184 -0.2173  0.0552 -0.0730
  213loPI   C4A 3402  11.103   2.090   8.707  0.0998 -0.2180  0.2691
  213loPI   C5A 3403  10.817   1.957   8.406  0.0992  0.4265 -0.2008
  213loPI   C6A 3404  10.563   2.200   8.092 -0.1082 -0.0879 -0.1489
  213loPI   C1B 3405  11.534   2.438  10.009  0.1577  0.1980 -0.0548
  213loPI   C2B 3406  11.566   2.417   9.554  0.1588 -0.2047  0.2878
  213loPI   C3B 3407  11.405   2.392   9.097  0.0696  0.0103 -0.0219
  213loPI   C4B 3408  11.446   2.492   8.596  0.1130  0.2558 -0.2442
  214loPI    C1 3409   9.930  13.453  11.161  0.1260  0.0157 -0.3375
  214loPI    C2 3410  10.323  13.390  11.194  0.0801 -0.0847  0.0690
  214loPI    C3 3411  10.108  13.485  11.518 -0.1968  0.1802 -0.1861
  214loPI   PO4 3412   9.881  13.619  10.952  0.1307 -0.1249 -0.0163
  214loPI   GL1 3413   9.864  13.917  10.579  0.4011  0.0347 -0.0892
  214loPI   GL2 3414  10.180  13.794  10.540  0.1373 -0.1642 -0.0970
  214loPI   C1A 3415   9.735  13.771  10.139  0.0909  0.1701 -0.4287
  214loPI   C2A 3416   9.797  13.683   9.712 -0.0802 -0.3570  0.0840
  214loPI   C3A 3417   9.732  13.533   9.306  0.1185 -0.0445 -0.0587
  214loPI   C4A 3418   9.539  13.501   8.969  0.0815 -0.0596  0.1764
  214loPI   C5A 3419   9.331  13.879   8.733  0.0590 -0.1229  0.0549
  214loPI   C6A 3420   9.638  14.126   8.597  0.2968 -0.2407  0.1055
  214loPI   C1B 3421  10.222  13.819  10.185 -0.0635 -0.0260  0.1554
  214loPI   C2B 3422  10.333  13.727   9.722  0.0001 -0.0399 -0.1962
  214loPI   C3B 3423  10.151  13.877   9.367 -0.2286  0.1950  0.0013
  214loPI   C4B 3424   9.994  13.723   8.916  0.1195  0.0136 -0.5458
  215loPI    C1 3425  12.180   0.546  11.142  0.3378  0.1548  0.1211
  215loPI    C2 3426  12.519   0.509  11.352  0.2004 -0.3120  0.2719
  215loPI    C3 3427  12.167   0.527  11.541  0.1173 -0.1202  0.1036
  215loPI   PO4 3428  12.342   0.473  10.861 -0.0032 -0.2036 -0.0183
  215loPI   GL1 3429  12.242   0.607  10.406  0.3174 -0.1757  0.0082
  215loPI   GL2 3430  12.019   0.475  10.398  0.1412  0.1698 -0.1733
  215loPI   C1A 3431  12.324   0.769  10.006 -0.2311 -0.1126 -0.0134
  215loPI   C2A 3432  12.275   0.725   9.603  0.1759 -0.0822 -0.4715
  215loPI   C3A 3433  12.405   0.774   9.171  0.0639  0.0327 -0.0806
  215loPI   C4A 3434  12.309   0.633   8.634 -0.0389 -0.0601 -0.1473
  215loPI   C5A 3435  12.512   0.443   8.250  0.1896  0.3937 -0.1809
  215loPI   C6A 3436  12.437   0.054   8.071 -0.0767  0.0498  0.3194
  215loPI   C1B 3437  11.986   0.390   9.998  0.2467 -0.1282  0.1691
  215loPI   C2B 3438  11.877   0.417   9.533 -0.0558  0.0456 -0.0620
  215loPI   C3B 3439  11.975   0.371   9.152 -0.1952 -0.0470  0.0247
  215loPI   C4B 3440  11.905   0.321   8.748  0.1513 -0.1090  0.1459
  216loPI    C1 3441  11.456   4.453  10.924  0.0553  0.1937 -0.0527
  216loPI    C2 3442  11.243   4.721  11.131 -0.1092  0.0380 -0.0180
  216loPI    C3 3443  11.101   4.351  11.077  0.0001  0.0328 -0.2835
  216loPI   PO4 3444  11.472   4.510  10.646 -0.1183  0.0038  0.0436
  216loPI   GL1 3445  11.544   4.314  10.217  0.1359 -0.1801 -0.2552
  216loPI   GL2 3446  11.414   4.094  10.273  0.0831  0.0831 -0.1161
  216loPI   C1A 3447  11.569   4.241   9.842 -0.4150  0.0971 -0.1544
  216loPI   C2A 3448  11.567   4.182   9.396 -0.1202  0.0541 -0.1090
  216loPI   C3A 3449  11.676   4.241   8.978 -0.0911  0.0345  0.0062
  216loPI   C4A 3450  11.747   4.228   8.546  0.0718 -0.0505 -0.1515
  216loPI   C5A 3451  12.015   4.171   8.240 -0.1372 -0.0693  0.0763
  216loPI   C6A 3452  12.254   4.138   7.869 -0.1947 -0.1356 -0.1561
  216loPI   C1B 3453  11.214   3.936   9.957 -0.0090  0.1079  0.3426
  216loPI   C2B 3454  11.218   3.872   9.508 -0.0859 -0.0578  0.0306
  216loPI   C3B 3455  11.256   3.934   9.000 -0.1231  0.0403  0.1432
  216loPI   C4B 3456  11.333   3.872   8.502 -0.2266  0.0558 -0.2879
  217loPI    C1 3457   3.129   5.139  12.033  0.0477 -0.2241 -0.0631
  217loPI    C2 3458   3.324   5.004  12.355 -0.1946  0.2029  0.2730
  217loPI    C3 3459   2.961   4.860  12.266 -0.0581 -0.0343  0.0917
  217loPI   PO4 3460   3.312   5.228  11.827 -0.2019  0.1300 -0.1440
  217loPI   GL1 3461   3.433   5.256  11.357  0.1964  0.2198  0.2273
  217loPI   GL2 3462   3.652   5.316  11.037 -0.1142 -0.0718  0.0626
  217loPI   C1A 3463   3.179   5.175  10.990 -0.1651  0.0303 -0.3955
  217loPI   C2A 3464   3.041   5.026  10.622  0.1416 -0.1317  0.1547
  217loPI   C3A 3465   3.095   5.059  10.151  0.1321 -0.2072 -0.2229
  217loPI   C4A 3466   3.107   5.083   9.671  0.1132  0.2414  0.0071
  217loPI   C5A 3467   3.178   5.186   9.183  0.2401 -0.0844  0.1916
  217loPI   C6A 3468   3.349   5.524   8.883 -0.1734 -0.0848 -0.2507
  217loPI   C1B 3469   3.449   5.459  10.684 -0.0775 -0.2696  0.0079
  217loPI   C2B 3470   3.530   5.357  10.254 -0.2079  0.1153  0.3440
  217loPI   C3B 3471   3.528   5.441   9.888 -0.3155  0.1969  0.1772
  217loPI   C4B 3472   3.586   5.407   9.432  0.1524  0.1111  0.2619
  218loPI    C1 3473  10.746  14.467  10.887 -0.3361  0.1761  0.0340
  218loPI    C2 3474  10.752  14.252  11.224 -0.2049  0.1822  0.0359
  218loPI    C3 3475  10.714  14.649  11.241 -0.0202  0.2003  0.0532
  218loPI   PO4 3476  10.934  14.406  10.765  0.1878  0.0210  0.2347
  218loPI   GL1 3477  11.111  14.199  10.397 -0.0695 -0.3105 -0.1212
  218loPI   GL2 3478  10.878  14.474  10.222  0.1003 -0.0045  0.1976
  218loPI   C1A 3479  11.280  14.234   9.972  0.2814 -0.1254 -0.1322
  218loPI   C2A 3480  11.363  14.384   9.518 -0.0673 -0.3610 -0.0443
  218loPI   C3A 3481  11.466  14.371   9.111  0.0365 -0.1054 -0.1127
  218loPI   C4A 3482  11.420  14.512   8.746  0.2102  0.0323  0.1595
  218loPI   C5A 3483  11.364  14.925   8.421  0.2702 -0.0096 -0.0803
  218loPI   C6A 3484  11.564  15.322   8.305 -0.0549 -0.0105 -0.2569
  218loPI   C1B 3485  10.903  14.505   9.833  0.1586  0.1963 -0.0011
  218loPI   C2B 3486  10.885  14.593   9.451 -0.0957 -0.2438  0.1827
  218loPI   C3B 3487  10.929  14.502   9.006  0.0008 -0.5053  0.2254
  218loPI   C4B 3488  11.004  14.558   8.519 -0.4232  0.0284  0.1998
  219loPI    C1 3489   5.624   2.453  11.546  0.0422  0.2320  0.0707
  219loPI    C2 3490   5.426   2.451  11.894  0.0980 -0.0008  0.1030
  219loPI    C3 3491   5.702   2.732  11.822 -0.0370  0.1518  0.1750
  219loPI   PO4 3492   5.479   2.458  11.368  0.0680  0.0289 -0.0220
  219loPI   GL1 3493   5.443   2.319  10.953  0.1770  0.0050  0.0128
  219loPI   GL2 3494   5.167   2.491  10.957 -0.2396  0.0106  0.0172
  219loPI   C1A 3495   5.619   2.424  10.581  0.0649  0.1882 -0.5629
  219loPI   C2A 3496   5.546   2.380  10.141 -0.0803 -0.1274  0.0793
  219loPI   C3A 3497   5.405   2.378   9.837 -0.3242  0.0930 -0.0012
  219loPI   C4A 3498   5.403   2.249   9.422 -0.0067  0.2863 -0.1818
  219loPI   C5A 3499   5.554   2.540   9.151 -0.1711 -0.0276 -0.2202
  219loPI   C6A 3500   5.476   2.931   9.012 -0.2860  0.0014 -0.1527
  219loPI   C1B 3501   5.070   2.519  10.445  0.0021 -0.3269 -0.0666
  219loPI   C2B 3502   4.969   2.504   9.956  0.3440  0.0627  0.2506
  219loPI   C3B 3503   4.994   2.549   9.502 -0.0243 -0.2373 -0.0123
  219loPI   C4B 3504   4.963   2.614   9.022 -0.0019 -0.0644  0.0478
  220loPI    C1 3505   6.281  12.089  10.984 -0.0298 -0.1680 -0.0260
  220loPI    C2 3506   6.049  11.765  11.010 -0.4121  0.0988 -0.0246
  220loPI    C3 3507   6.017  12.056  11.283  0.0331  0.0759  0.0597
  220loPI   PO4 3508   6.425  12.083  10.706 -0.0812  0.0915  0.0952
  220loPI   GL1 3509   6.628  11.990  10.310 -0.2686  0.1127 -0.2766
  220loPI   GL2 3510   6.466  11.661  10.296 -0.0234 -0.2284 -0.0265
  220loPI   C1A 3511   6.757  12.030   9.948 -0.0082 -0.0675  0.0136
  220loPI   C2A 3512   6.761  12.075   9.501  0.1696  0.2053  0.0575
  220loPI   C3A 3513   6.683  12.100   9.141  0.2794 -0.0023  0.0212
  220loPI   C4A 3514   6.621  12.036   8.728 -0.1181  0.2012  0.0589
  220loPI   C5A 3515   6.311  11.846   8.211 -0.1328  0.0456  0.0629
  220loPI   C6A 3516   6.115  11.540   7.894  0.0747  0.1584 -0.5588
  220loPI   C1B 3517   6.396  11.706   9.933  0.1686  0.2507  0.1816
  220loPI   C2B 3518   6.403  11.744   9.585  0.0282 -0.2313 -0.2107
  220loPI   C3B 3519   6.376  11.729   9.207 -0.1531 -0.0265  0.0553
  220loPI   C4B 3520   6.208  11.694   8.839  0.0952 -0.1816 -0.0788
  221loPI    C1 3521   2.514   3.496  11.571 -0.2516 -0.1021 -0.2117
  221loPI    C2 3522   2.408   3.134  11.702  0.2014 -0.1727 -0.0215
  221loPI    C3 3523   2.438   3.439  11.960 -0.0745 -0.0207 -0.1642
  221loPI   PO4 3524   2.373   3.509  11.269 -0.0402 -0.0651 -0.0779
  221loPI   GL1 3525   2.334   3.267  10.876 -0.0034 -0.0333 -0.1529
  221loPI   GL2 3526   2.159   2.946  10.797  0.0566 -0.0785  0.1216
  221loPI   C1A 3527   2.560   3.431  10.479  0.0204 -0.1200 -0.3518
  221loPI   C2A 3528   2.592   3.386  10.006  0.2585 -0.1632  0.0062
  221loPI   C3A 3529   2.428   3.452   9.673  0.0716 -0.1151  0.1638
  221loPI   C4A 3530   2.486   3.348   9.308 -0.2979 -0.1621  0.0360
  221loPI   C5A 3531   2.487   3.336   8.852 -0.0480  0.3182 -0.4284
  221loPI   C6A 3532   2.777   3.362   8.636 -0.0546 -0.0959  0.4273
  221loPI   C1B 3533   2.184   3.030  10.354 -0.0269 -0.1447  0.1314
  221loPI   C2B 3534   2.178   3.036   9.971 -0.1123 -0.1194 -0.0544
  221loPI   C3B 3535   2.091   3.037   9.483 -0.2360  0.0894  0.1654
  221loPI   C4B 3536   2.064   3.133   9.054 -0.0895 -0.0985 -0.2003
  222loPI    C1 3537  12.334  16.249  10.625 -0.0317  0.1930  0.1442
  222loPI    C2 3538  12.441  16.222  11.009 -0.1176 -0.0311  0.1542
  222loPI    C3 3539  12.234  15.926  10.838  0.0932 -0.0243 -0.1192
  222loPI   PO4 3540  12.385  16.466  10.541 -0.1893  0.1891 -0.2115
  222loPI   GL1 3541  12.263  16.599  10.091  0.0361  0.0091 -0.0382
  222loPI   GL2 3542  12.538  16.707  10.083 -0.0390 -0.1691  0.0546
  222loPI   C1A 3543  12.336  16.543   9.644 -0.0318  0.2028  0.0358
  222loPI   C2A 3544  12.277  16.482   9.201  0.1223 -0.2821  0.4013
  222loPI   C3A 3545  12.330  16.468   8.682 -0.2007  0.0868 -0.0423
  222loPI   C4A 3546  12.286  16.408   8.222 -0.1700  0.2705  0.1914
  222loPI   C5A 3547  12.576  16.233   7.925 -0.0986 -0.4036 -0.1959
  222loPI   C6A 3548  12.782  15.902   7.923  0.2073 -0.0087  0.3553
  222loPI   C1B 3549  12.716  16.866   9.631 -0.2674  0.1557 -0.1303
  222loPI   C2B 3550  12.853  16.915   9.214  0.0925 -0.2129 -0.2506
  222loPI   C3B 3551  12.675  16.777   8.867 -0.0779 -0.0998 -0.0419
  222loPI   C4B 3552  12.673  16.730   8.306  0.1072  0.0700 -0.1450
  223loPI    C1 3553   9.082   6.094  11.118 -0.2317 -0.0114  0.0545
  223loPI    C2 3554   9.084   6.421  11.349 -0.0067 -0.0250  0.0747
  223loPI    C3 3555   9.367   6.142  11.396 -0.1370 -0.1735 -0.0132
  223loPI   PO4 3556   9.190   6.182  10.755 -0.1445  0.0857  0.0647
  223loPI   GL1 3557   9.110   6.095  10.307 -0.4859  0.1016  0.4380
  223loPI   GL2 3558   9.406   5.884  10.139  0.0300 -0.0860  0.4265
  223loPI   C1A 3559   8.901   6.059   9.943  0.2726 -0.1902  0.1526
  223loPI   C2A 3560   8.829   5.963   9.497 -0.0821  0.1357 -0.2300
  223loPI   C3A 3561   8.887   5.981   9.006  0.1039  0.1338 -0.0326
  223loPI   C4A 3562   8.800   5.951   8.574 -0.3106 -0.1958  0.1387
  223loPI   C5A 3563   9.050   5.908   8.179 -0.0719 -0.0461  0.4115
  223loPI   C6A 3564   9.046   5.686   7.829 -0.0903 -0.0558 -0.0067
  223loPI   C1B 3565   9.293   5.821   9.670 -0.5127 -0.1398 -0.0849
  223loPI   C2B 3566   9.350   5.919   9.289 -0.1440  0.2627 -0.0516
  223loPI   C3B 3567   9.333   5.878   8.804 -0.1930 -0.0945  0.1261
  223loPI   C4B 3568   9.510   5.828   8.384  0.1649 -0.0341 -0.0448
  224loPI    C1 3569   7.933  14.416  11.413  0.1644  0.0805  0.0904
  224loPI    C2 3570   7.751  14.082  11.537  0.1070  0.0526 -0.0659
  224loPI    C3 3571   7.690  14.428  11.730 -0.0932  0.0387 -0.1024
  224loPI   PO4 3572   8.017  14.264  11.156 -0.1900 -0.1731  0.0668
  224loPI   GL1 3573   7.936  14.429  10.808 -0.1288  0.2729  0.3295
  224loPI   GL2 3574   7.822  14.764  10.619 -0.1424  0.3704 -0.0004
  224loPI   C1A 3575   8.090  14.349  10.453  0.0125  0.4473  0.1703
  224loPI   C2A 3576   8.054  14.431  10.030  0.1084  0.0873 -0.2196
  224loPI   C3A 3577   8.013  14.476   9.590 -0.1559  0.0872 -0.0204
  224loPI   C4A 3578   8.036  14.458   9.176  0.1599 -0.0715  0.1465
  224loPI   C5A 3579   7.903  14.499   8.703 -0.1999  0.0043  0.2486
  224loPI   C6A 3580   7.721  14.858   8.368 -0.2275  0.0541 -0.1333
  224loPI   C1B 3581   7.923  14.858  10.286 -0.2382  0.3323  0.1398
  224loPI   C2B 3582   7.975  14.970   9.862  0.1932 -0.0923  0.1779
  224loPI   C3B 3583   7.893  15.018   9.439 -0.2426  0.4058 -0.2067
  224loPI   C4B 3584   7.917  14.931   8.972 -0.1504 -0.0715  0.2413
  225loPI    C1 3585   9.267   7.636  10.609  0.1571 -0.0695 -0.0999
  225loPI    C2 3586   9.257   7.930  10.881 -0.1551 -0.1272 -0.0459
  225loPI    C3 3587   9.296   7.549  10.999  0.0611 -0.1245 -0.1049
  225loPI   PO4 3588   9.145   7.667  10.377 -0.1536  0.1279  0.3184
  225loPI   GL1 3589   9.257   7.462  10.038  0.2183  0.1864  0.2393
  225loPI   GL2 3590   8.949   7.287  10.173  0.3313 -0.0674  0.2112
  225loPI   C1A 3591   9.172   7.518   9.565 -0.1245  0.0877  0.1997
  225loPI   C2A 3592   9.120   7.407   9.155  0.3155  0.4143 -0.2410
  225loPI   C3A 3593   9.125   7.371   8.732 -0.1645 -0.1489  0.2491
  225loPI   C4A 3594   9.085   7.299   8.326  0.2023 -0.3095 -0.1212
  225loPI   C5A 3595   8.799   7.214   8.073 -0.1878 -0.1504  0.1909
  225loPI   C6A 3596   8.770   7.202   7.637 -0.3449  0.0881  0.0731
  225loPI   C1B 3597   8.630   7.146   9.847 -0.0471  0.0119  0.0177
  225loPI   C2B 3598   8.555   7.054   9.407  0.0723  0.0368  0.1044
  225loPI   C3B 3599   8.665   7.087   8.952  0.2667 -0.0345 -0.0571
  225loPI   C4B 3600   8.676   7.090   8.547  0.0438  0.1361 -0.4609
  226loPI    C1 3601   6.638   1.157  11.664  0.1003 -0.0919 -0.2989
  226loPI    C2 3602   6.647   0.759  11.708  0.0223 -0.0610  0.0182
  226loPI    C3 3603   6.442   0.985  11.968  0.0948  0.1902 -0.1395
  226loPI   PO4 3604   6.512   1.135  11.408 -0.1185 -0.1970  0.1053
  226loPI   GL1 3605   6.712   1.122  10.938  0.2700  0.3876  0.2380
  226loPI   GL2 3606   6.861   1.058  10.702 -0.1606  0.4507 -0.4926
  226loPI   C1A 3607   6.395   1.158  10.547  0.1088  0.3953 -0.2330
  226loPI   C2A 3608   6.290   1.169  10.165 -0.0504 -0.0898  0.4294
  226loPI   C3A 3609   6.193   1.238   9.789  0.1278 -0.2346 -0.1818
  226loPI   C4A 3610   6.190   1.188   9.441  0.3285  0.0452  0.4217
  226loPI   C5A 3611   6.207   1.183   9.008  0.1455  0.0693 -0.0411
  226loPI   C6A 3612   6.213   1.415   8.601 -0.1055  0.3245 -0.1585
  226loPI   C1B 3613   6.810   1.029  10.219  0.0097  0.1656  0.1734
  226loPI   C2B 3614   6.641   1.014   9.796 -0.0649 -0.1534 -0.1229
  226loPI   C3B 3615   6.743   1.019   9.484  0.1439 -0.0008 -0.0387
  226loPI   C4B 3616   6.636   1.003   9.177  0.0974 -0.0606 -0.0553
  227loPI    C1 3617  11.512   3.110  11.265 -0.1612  0.0614 -0.2936
  227loPI    C2 3618  11.719   3.205  11.594 -0.2100 -0.2227 -0.1784
  227loPI    C3 3619  11.544   3.492  11.378  0.1339  0.0019 -0.1653
  227loPI   PO4 3620  11.620   2.990  11.091 -0.2329  0.0963 -0.0069
  227loPI   GL1 3621  11.746   3.090  10.785 -0.1532 -0.1138  0.0499
  227loPI   GL2 3622  11.483   2.873  10.594  0.2185  0.1463  0.1332
  227loPI   C1A 3623  11.797   3.249  10.383 -0.4095 -0.0071 -0.1309
  227loPI   C2A 3624  11.814   3.277   9.895  0.3412 -0.1743 -0.0990
  227loPI   C3A 3625  11.847   3.272   9.474 -0.2542  0.0402  0.0902
  227loPI   C4A 3626  11.757   3.267   8.934 -0.1430 -0.1639 -0.1052
  227loPI   C5A 3627  11.899   3.207   8.527  0.1690  0.2452  0.0301
  227loPI   C6A 3628  12.098   3.357   8.091 -0.0688 -0.0409 -0.0544
  227loPI   C1B 3629  11.485   2.903  10.196 -0.0924 -0.0754  0.2938
  227loPI   C2B 3630  11.508   2.900   9.803  0.1247  0.1788  0.0921
  227loPI   C3B 3631  11.444   2.904   9.370 -0.3737  0.1475  0.0502
  227loPI   C4B 3632  11.392   2.923   8.945  0.0627  0.1621 -0.0269
  228loPI    C1 3633  11.068   8.220  10.454 -0.0515 -0.0717  0.2426
  228loPI    C2 3634  10.876   8.543  10.593  0.1593  0.1339  0.0650
  228loPI    C3 3635  11.274   8.551  10.546  0.1347 -0.0559 -0.2037
  228loPI   PO4 3636  10.884   8.203  10.164  0.2561 -0.4563  0.0281
  228loPI   GL1 3637  10.606   8.310   9.935  0.1198 -0.1501 -0.1644
  228loPI   GL2 3638  10.646   8.053   9.604 -0.1234 -0.3348 -0.1163
  228loPI   C1A 3639  10.820   8.573   9.550 -0.1510 -0.3592 -0.2645
  228loPI   C2A 3640  10.854   8.638   9.076 -0.1904  0.3405  0.0874
  228loPI   C3A 3641  10.812   8.761   8.667  0.0471  0.0786 -0.0023
  228loPI   C4A 3642  10.688   8.751   8.226  0.2196 -0.0019  0.2140
  228loPI   C5A 3643  10.601   9.073   7.832  0.0452  0.2968  0.1449
  228loPI   C6A 3644  10.282   9.138   7.542  0.1320 -0.0462  0.0572
  228loPI   C1B 3645  10.789   8.119   9.216 -0.1518 -0.1286  0.0587
  228loPI   C2B 3646  10.735   8.127   8.794 -0.0871 -0.0625 -0.0849
  228loPI   C3B 3647  10.673   8.232   8.401  0.0740 -0.1003 -0.0894
  228loPI   C4B 3648  10.373   8.387   8.055 -0.3583  0.0174 -0.0022
  229loPI    C1 3649  10.222   4.141  11.107 -0.1641  0.3859 -0.0548
  229loPI    C2 3650   9.917   4.238  11.348 -0.0049  0.0867  0.2775
  229loPI    C3 3651  10.287   4.363  11.434  0.0092  0.2289  0.0194
  229loPI   PO4 3652  10.131   4.191  10.850 -0.1701  0.2477 -0.0747
  229loPI   GL1 3653  10.319   4.198  10.397  0.1324 -0.1015  0.0436
  229loPI   GL2 3654  10.604   4.105  10.296 -0.0489 -0.1181  0.2234
  229loPI   C1A 3655  10.206   4.153   9.904  0.1125  0.0683 -0.0142
  229loPI   C2A 3656  10.198   4.143   9.397  0.0070  0.1486  0.1491
  229loPI   C3A 3657  10.269   4.208   9.053  0.1478 -0.1214 -0.0308
  229loPI   C4A 3658  10.223   4.227   8.592  0.0480 -0.2058  0.2995
  229loPI   C5A 3659  10.586   4.454   8.436 -0.1678  0.0286 -0.0692
  229loPI   C6A 3660  10.703   4.598   8.098 -0.1185 -0.2610 -0.2945
  229loPI   C1B 3661  10.713   4.043   9.877  0.1587  0.0129 -0.1194
  229loPI   C2B 3662  10.727   3.993   9.461  0.0813 -0.1346  0.0871
  229loPI   C3B 3663  10.789   4.002   9.106  0.2564  0.0283  0.5105
  229loPI   C4B 3664  10.836   3.921   8.657  0.2325 -0.2542 -0.0843
  230loPI    C1 3665  12.163   0.061  11.250 -0.0238  0.0268 -0.0354
  230loPI    C2 3666  12.163  -0.292  11.437  0.0469 -0.0218 -0.1265
  230loPI    C3 3667  12.275   0.038  11.633 -0.0634 -0.0424 -0.0279
  230loPI   PO4 3668  12.291   0.029  11.060 -0.0066  0.1240 -0.0613
  230loPI   GL1 3669  12.296   0.045  10.593  0.0194  0.2113  0.2347
  230loPI   GL2 3670  12.039  -0.023  10.419  0.2365 -0.0560 -0.3198
  230loPI   C1A 3671  12.447   0.214  10.206 -0.2668  0.0808 -0.2454
  230loPI   C2A 3672  12.499   0.295   9.823 -0.1372 -0.0081  0.2187
  230loPI   C3A 3673  12.483   0.295   9.431 -0.2414 -0.0688  0.2792
  230loPI   C4A 3674  12.460   0.237   9.008 -0.0548  0.1160 -0.0712
  230loPI   C5A 3675  12.399   0.084   8.604  0.2195  0.1703  0.0514
  230loPI   C6A 3676  12.048   0.048   8.342 -0.1157 -0.0240  0.0155
  230loPI   C1B 3677  12.018  -0.073   9.985 -0.2302  0.0827 -0.1313
  230loPI   C2B 3678  12.077  -0.103   9.562  0.0088 -0.0624  0.0159
  230loPI   C3B 3679  12.116  -0.143   9.095  0.1406 -0.0103  0.1648
  230loPI   C4B 3680  12.145  -0.314   8.680  0.2191 -0.0584 -0.0305
  231loPI    C1 3681   4.884  12.696  11.236 -0.1170  0.0289  0.0921
  231loPI    C2 3682   5.043  12.342  11.332 -0.0854  0.0060 -0.0433
  231loPI    C3 3683   5.058  12.645  11.592  0.0787 -0.0296 -0.0107
  231loPI   PO4 3684   4.917  12.816  10.976  0.1070  0.0492 -0.0408
  231loPI   GL1 3685   4.676  12.831  10.669  0.2051  0.1322  0.1568
  231loPI   GL2 3686   4.621  13.039  10.616 -0.1103  0.4746  0.0572
  231loPI   C1A 3687   4.711  12.650  10.248  0.0455  0.1501  0.1719
  231loPI   C2A 3688   4.700  12.749   9.828  0.1475  0.2032 -0.1173
  231loPI   C3A 3689   4.664  12.756   9.453 -0.1703  0.0879  0.2236
  231loPI   C4A 3690   4.768  12.742   9.122 -0.2173 -0.0300 -0.2320
  231loPI   C5A 3691   4.722  12.700   8.718 -0.0854  0.3449 -0.2790
  231loPI   C6A 3692   4.818  12.997   8.404  0.1678  0.0718  0.1603
  231loPI   C1B 3693   4.558  13.168  10.227  0.1445 -0.2264  0.0502
  231loPI   C2B 3694   4.679  13.229   9.778  0.0791 -0.1363 -0.0843
  231loPI   C3B 3695   4.668  13.214   9.318 -0.1936  0.1525 -0.0491
  231loPI   C4B 3696   4.590  13.254   8.864  0.0205  0.0343 -0.2521
  232loPI    C1 3697  10.036  16.663  11.285  0.1663 -0.0324 -0.2781
  232loPI    C2 3698   9.883  17.000  11.436 -0.1993 -0.2019 -0.2598
  232loPI    C3 3699  10.182  16.814  11.626 -0.0732  0.0479 -0.2091
  232loPI   PO4 3700   9.959  16.716  10.976  0.2595  0.1571  0.1815
  232loPI   GL1 3701   9.838  16.531  10.720 -0.0234 -0.0757  0.1631
  232loPI   GL2 3702   9.908  16.723  10.411 -0.1440  0.0313  0.3715
  232loPI   C1A 3703   9.605  16.369  10.375  0.0962  0.3356 -0.2525
  232loPI   C2A 3704   9.480  16.381  10.038 -0.0626 -0.1718 -0.0453
  232loPI   C3A 3705   9.471  16.413   9.590 -0.3036  0.0348  0.0286
  232loPI   C4A 3706   9.603  16.368   9.200  0.0091 -0.0246  0.0832
  232loPI   C5A 3707   9.642  16.464   8.793  0.0118 -0.0304 -0.1622
  232loPI   C6A 3708   9.741  16.517   8.395 -0.0859 -0.0452 -0.3109
  232loPI   C1B 3709   9.908  16.722   9.936  0.1284  0.1684  0.0530
  232loPI   C2B 3710   9.874  16.747   9.525  0.0838  0.2543 -0.3475
  232loPI   C3B 3711   9.988  16.735   9.153  0.2486  0.2811  0.0254
  232loPI   C4B 3712   9.911  16.894   8.691 -0.1102 -0.2410 -0.0154
  233loPI    C1 3713  17.146   9.900  11.513  0.0002  0.0246 -0.1232
  233loPI    C2 3714  16.845  10.135  11.392 -0.0089  0.1248  0.0892
  233loPI    C3 3715  16.776   9.839  11.653 -0.0120 -0.1671 -0.2357
  233loPI   PO4 3716  17.281   9.960  11.225 -0.1306  0.0611 -0.1929
  233loPI   GL1 3717  17.252   9.916  10.760  0.1284 -0.2763 -0.1560
  233loPI   GL2 3718  17.405   9.650  10.785  0.0204  0.0871 -0.1030
  233loPI   C1A 3719  17.350  10.003  10.359 -0.0382 -0.2474  0.3731
  233loPI   C2A 3720  17.391  10.035   9.900  0.3238 -0.0077 -0.1145
  233loPI   C3A 3721  17.393  10.057   9.494  0.0063 -0.3514  0.1462
  233loPI   C4A 3722  17.472   9.993   9.067 -0.2264  0.2625 -0.3335
  233loPI   C5A 3723  17.321  10.065   8.614  0.4044  0.1715 -0.1063
  233loPI   C6A 3724  17.226  10.024   8.275  0.0373 -0.1707 -0.1693
  233loPI   C1B 3725  17.623   9.531  10.473  0.2385  0.1709 -0.0229
  233loPI   C2B 3726  17.607   9.584  10.053  0.0088  0.3623 -0.1010
  233loPI   C3B 3727  17.631   9.525   9.682 -0.1879  0.1422 -0.0480
  233loPI   C4B 3728  17.502   9.500   9.260 -0.1569 -0.0600  0.0692
  234loPI    C1 3729   4.408  16.337  11.598  0.1053 -0.1211 -0.2898
  234loPI    C2 3730   4.501  16.203  11.964  0.0886  0.3618 -0.1016
  234loPI    C3 3731   4.777  16.389  11.742  0.0391  0.2639 -0.2471
  234loPI   PO4 3732   4.320  16.153  11.421  0.1143 -0.1438  0.2242
  234loPI   GL1 3733   4.433  16.075  10.960 -0.1652  0.1777 -0.3992
  234loPI   GL2 3734   4.435  15.795  11.012  0.1072 -0.1878  0.0525
  234loPI   C1A 3735   4.439  16.151  10.487  0.0435  0.1689 -0.1669
  234loPI   C2A 3736   4.378  16.186  10.120  0.0316 -0.1638 -0.0578
  234loPI   C3A 3737   4.477  16.095   9.719  0.0334 -0.1791  0.1346
  234loPI   C4A 3738   4.499  16.121   9.295  0.4334 -0.1095 -0.2109
  234loPI   C5A 3739   4.552  15.984   8.946  0.0843 -0.0273 -0.1174
  234loPI   C6A 3740   4.832  15.748   8.702  0.0032 -0.0498 -0.0006
  234loPI   C1B 3741   4.500  15.635  10.661 -0.3121  0.2002  0.1132
  234loPI   C2B 3742   4.493  15.676  10.236 -0.0831 -0.1678  0.0012
  234loPI   C3B 3743   4.617  15.629   9.829 -0.3076 -0.0932  0.3444
  234loPI   C4B 3744   4.642  15.606   9.372  0.1022 -0.1247 -0.0658
  235loPI    C1 3745   4.389  17.246  11.501 -0.3859 -0.2216 -0.0527
  235loPI    C2 3746   4.390  17.580  11.721 -0.0383 -0.1951 -0.0893
  235loPI    C3 3747   4.180  17.262  11.842 -0.2277 -0.0244  0.0370
  235loPI   PO4 3748   4.373  17.296  11.263 -0.2581  0.1943  0.2751
  235loPI   GL1 3749   4.199  17.297  10.850  0.1892 -0.0484  0.1490
  235loPI   GL2 3750   4.174  17.646  10.793  0.2581 -0.1428 -0.2315
  235loPI   C1A 3751   4.239  17.127  10.435 -0.0141  0.2821  0.0964
  235loPI   C2A 3752   4.259  17.108  10.025  0.0610 -0.0477  0.1354
  235loPI   C3A 3753   4.264  17.058   9.480 -0.0858 -0.1859  0.1992
  235loPI   C4A 3754   4.197  16.954   8.997  0.2333  0.2201 -0.1411
  235loPI   C5A 3755   3.965  16.673   8.813 -0.2923  0.0222  0.2037
  235loPI   C6A 3756   4.070  16.307   9.059  0.0946 -0.0742  0.1361
  235loPI   C1B 3757   4.200  17.653  10.303  0.1308 -0.1560  0.0962
  235loPI   C2B 3758   4.165  17.651   9.809  0.1561  0.0693 -0.0529
  235loPI   C3B 3759   4.192  17.686   9.338  0.2974 -0.2363  0.0873
  235loPI   C4B 3760   4.466  17.370   9.040  0.4925  0.3108  0.0929
  236loPI    C1 3761   0.756  15.179  11.607 -0.0967  0.1692  0.0612
  236loPI    C2 3762   0.822  14.905  11.890  0.0024  0.0165 -0.1077
  236loPI    C3 3763   0.511  15.154  11.922 -0.1118 -0.1408  0.0278
  236loPI   PO4 3764   0.814  15.157  11.292 -0.2338  0.2537  0.2183
  236loPI   GL1 3765   0.646  15.226  10.963  0.0182 -0.4142  0.0239
  236loPI   GL2 3766   0.743  15.518  10.809  0.1130  0.1613 -0.0160
  236loPI   C1A 3767   0.553  15.134  10.557 -0.2059 -0.2787 -0.0639
  236loPI   C2A 3768   0.512  15.126  10.122 -0.0230 -0.1863 -0.1438
  236loPI   C3A 3769   0.472  15.079   9.690  0.0759 -0.0179  0.1129
  236loPI   C4A 3770   0.522  15.034   9.318  0.0395 -0.0708  0.1068
  236loPI   C5A 3771   0.639  14.874   8.942  0.1247  0.0641  0.1924
  236loPI   C6A 3772   0.713  15.041   8.536 -0.1436  0.1498 -0.2038
  236loPI   C1B 3773   0.896  15.455  10.344 -0.1517  0.1896  0.1353
  236loPI   C2B 3774   0.871  15.362   9.815  0.1844  0.1140 -0.4000
  236loPI   C3B 3775   0.871  15.420   9.431 -0.1609  0.0626 -0.0860
  236loPI   C4B 3776   0.901  15.309   9.001 -0.0872 -0.3304 -0.2657
  237loPI    C1 3777   1.222   4.863  11.877 -0.1484  0.2268 -0.1394
  237loPI    C2 3778   1.059   4.603  12.134  0.1667  0.2724  0.1132
  237loPI    C3 3779   0.951   4.988  12.144 -0.0718  0.2123 -0.0544
  237loPI   PO4 3780   1.138   4.763  11.625 -0.0492  0.1671  0.2925
  237loPI   GL1 3781   0.987   4.777  11.209 -0.0037  0.1286 -0.1915
  237loPI   GL2 3782   1.119   4.449  11.165 -0.1782 -0.2428 -0.0570
  237loPI   C1A 3783   0.755   4.796  10.913  0.0820  0.0181  0.0826
  237loPI   C2A 3784   0.799   4.773  10.513  0.0266  0.0395 -0.0484
  237loPI   C3A 3785   0.881   4.894  10.127 -0.0826 -0.1637 -0.0445
  237loPI   C4A 3786   0.998   4.923   9.712  0.0352  0.0687  0.0163
  237loPI   C5A 3787   0.987   4.878   9.316  0.0038 -0.0095 -0.2454
  237loPI   C6A 3788   1.042   4.725   8.975 -0.0752  0.3239 -0.5519
  237loPI   C1B 3789   1.324   4.634  10.844 -0.0061 -0.1339 -0.1851
  237loPI   C2B 3790   1.371   4.706  10.356 -0.0605  0.1473  0.1360
  237loPI   C3B 3791   1.454   4.759   9.981 -0.1743  0.5157 -0.0748
  237loPI   C4B 3792   1.438   4.708   9.520 -0.1928  0.4209  0.2572
  238loPI    C1 3793  14.240  15.598  11.272  0.0581  0.4586  0.1122
  238loPI    C2 3794  14.488  15.754  11.544  0.0536  0.1816  0.2791
  238loPI    C3 3795  14.132  15.610  11.656  0.0986 -0.0378  0.1460
  238loPI   PO4 3796  14.263  15.768  11.041  0.1074  0.3464  0.1098
  238loPI   GL1 3797  14.289  15.744  10.562  0.1629  0.1377  0.1126
  238loPI   GL2 3798  13.934  15.649  10.540  0.0379  0.0458  0.0901
  238loPI   C1A 3799  14.199  15.768  10.037 -0.2733 -0.3105 -0.0335
  238loPI   C2A 3800  14.281  15.859   9.600  0.3963 -0.0752 -0.0705
  238loPI   C3A 3801  14.395  15.820   9.184  0.0952 -0.0168 -0.3009
  238loPI   C4A 3802  14.382  15.866   8.681  0.0976  0.1451 -0.0025
  238loPI   C5A 3803  14.464  15.842   8.279  0.0103  0.0076 -0.2623
  238loPI   C6A 3804  14.434  16.212   7.995 -0.1539  0.0616  0.1058
  238loPI   C1B 3805  13.786  15.544  10.169  0.2429 -0.0670  0.3000
  238loPI   C2B 3806  13.827  15.558   9.708 -0.3024 -0.0250  0.0725
  238loPI   C3B 3807  13.972  15.544   9.346  0.0553  0.1355  0.1907
  238loPI   C4B 3808  14.043  15.574   8.890 -0.0939  0.2460 -0.1773
  239loPI    C1 3809   6.194  10.506  11.405 -0.1128  0.0423 -0.0391
  239loPI    C2 3810   6.574  10.596  11.493 -0.1124 -0.0220  0.0255
  239loPI    C3 3811   6.427  10.235  11.584 -0.0729 -0.1390 -0.3583
  239loPI   PO4 3812   6.206  10.551  11.074  0.1051  0.3085  0.1501
  239loPI   GL1 3813   6.071  10.430  10.542  0.1730 -0.0867 -0.0576
  239loPI   GL2 3814   6.255  10.199  10.731 -0.2206  0.0654 -0.1006
  239loPI   C1A 3815   6.187  10.306  10.126  0.1225 -0.1052 -0.2901
  239loPI   C2A 3816   6.133  10.270   9.662 -0.0106  0.2120  0.0745
  239loPI   C3A 3817   6.154  10.356   9.260 -0.0127 -0.0682  0.0991
  239loPI   C4A 3818   6.065  10.265   8.820  0.2714 -0.0878  0.2178
  239loPI   C5A 3819   6.224  10.051   8.543 -0.2964  0.0182  0.0141
  239loPI   C6A 3820   6.524  10.046   8.290 -0.1900  0.1549  0.0067
  239loPI   C1B 3821   6.616  10.093  10.359 -0.3860  0.2065  0.1114
  239loPI   C2B 3822   6.623  10.092   9.876 -0.2002  0.1272 -0.1564
  239loPI   C3B 3823   6.601  10.187   9.478 -0.3373 -0.1313 -0.2584
  239loPI   C4B 3824   6.581  10.091   8.991 -0.0918 -0.0719  0.3450
  240loPI    C1 3825   0.676   5.670  11.783 -0.1787 -0.2433 -0.2068
  240loPI    C2 3826   0.668   5.424  12.098 -0.0337  0.0115  0.0002
  240loPI    C3 3827   0.470   5.771  12.111  0.0419  0.0616 -0.1578
  240loPI   PO4 3828   0.607   5.510  11.582  0.1137  0.0472  0.0438
  240loPI   GL1 3829   0.806   5.841  11.310  0.0794  0.0376 -0.0309
  240loPI   GL2 3830   0.632   6.042  11.228 -0.0594  0.1255 -0.0007
  240loPI   C1A 3831   0.724   5.894  10.766 -0.2894  0.3136 -0.1461
  240loPI   C2A 3832   0.558   5.789  10.304  0.1047 -0.2501 -0.0930
  240loPI   C3A 3833   0.723   5.847   9.907 -0.2968 -0.2946 -0.0839
  240loPI   C4A 3834   0.656   5.911   9.544 -0.0843  0.2341 -0.0275
  240loPI   C5A 3835   0.537   5.722   9.203  0.1903  0.2813  0.0382
  240loPI   C6A 3836   0.244   5.565   8.867 -0.0060  0.1934 -0.1196
  240loPI   C1B 3837   0.582   6.419  11.041  0.0214  0.1357 -0.2110
  240loPI   C2B 3838   0.619   6.376  10.661  0.1050  0.1350  0.2967
  240loPI   C3B 3839   0.595   6.338  10.256  0.0581  0.0499  0.0965
  240loPI   C4B 3840   0.633   6.376   9.709  0.0554  0.0232  0.1516
  241loPI    C1 3841   0.484   3.734  11.506  0.1622  0.0336 -0.0725
  241loPI    C2 3842   0.483   4.099  11.669 -0.0996 -0.0545  0.1319
  241loPI    C3 3843   0.741   3.822  11.799  0.0165  0.0191  0.0609
  241loPI   PO4 3844   0.505   3.750  11.220 -0.1877  0.1404 -0.1304
  241loPI   GL1 3845   0.401   4.054  10.966 -0.0460 -0.1665 -0.0353
  241loPI   GL2 3846   0.666   4.300  11.008  0.3603 -0.1341 -0.2454
  241loPI   C1A 3847   0.538   3.983  10.602  0.0836  0.0429  0.2668
  241loPI   C2A 3848   0.573   3.993  10.105 -0.0068 -0.1389 -0.2457
  241loPI   C3A 3849   0.559   4.029   9.611 -0.0913  0.2373  0.1602
  241loPI   C4A 3850   0.557   4.069   9.121 -0.2787 -0.0478  0.1216
  241loPI   C5A 3851   0.794   4.264   8.797  0.0654 -0.1207 -0.0533
  241loPI   C6A 3852   1.111   4.537   8.531 -0.2458  0.0450 -0.2207
  241loPI   C1B 3853   0.910   4.288  10.570 -0.2110  0.4580  0.1387
  241loPI   C2B 3854   0.993   4.397  10.182 -0.0674  0.0408 -0.0294
  241loPI   C3B 3855   1.022   4.368   9.686  0.1688 -0.1534 -0.3094
  241loPI   C4B 3856   0.896   4.353   9.298 -0.0748 -0.0569  0.2257
  242loPI    C1 3857   0.202  16.156  11.491 -0.0758 -0.2374  0.1124
  242loPI    C2 3858   0.460  16.290  11.766  0.1094  0.1386 -0.2326
  242loPI    C3 3859   0.088  16.435  11.754  0.0437 -0.0123 -0.0704
  242loPI   PO4 3860   0.321  16.021  11.320 -0.1444  0.3759  0.1141
  242loPI   GL1 3861   0.433  15.954  10.999 -0.0837 -0.2512  0.0312
  242loPI   GL2 3862   0.667  16.017  10.895  0.0662  0.1928  0.1793
  242loPI   C1A 3863   0.310  16.018  10.539 -0.0837  0.3285 -0.1067
  242loPI   C2A 3864   0.394  16.064  10.113  0.1557  0.0497  0.2036
  242loPI   C3A 3865   0.289  16.000   9.707  0.1233  0.1050  0.0970
  242loPI   C4A 3866   0.319  16.046   9.311  0.5137 -0.1245  0.0826
  242loPI   C5A 3867   0.149  16.080   8.845 -0.1050  0.0537  0.0739
  242loPI   C6A 3868  -0.139  16.233   8.705  0.2088  0.3571  0.1198
  242loPI   C1B 3869   0.776  15.944  10.524  0.1180  0.2549 -0.1473
  242loPI   C2B 3870   0.852  15.963  10.133 -0.3495  0.2908  0.0227
  242loPI   C3B 3871   0.801  15.957   9.782  0.1167  0.2769 -0.0342
  242loPI   C4B 3872   0.856  15.870   9.419 -0.0999 -0.1441 -0.1750
  243loPI    C1 3873   5.009   6.354  11.392  0.0806 -0.2012  0.0337
  243loPI    C2 3874   4.617   6.333  11.465  0.0318  0.1154 -0.1202
  243loPI    C3 3875   4.877   6.174  11.724 -0.1949 -0.0724 -0.0034
  243loPI   PO4 3876   5.009   6.408  11.170  0.1917  0.0362  0.2524
  243loPI   GL1 3877   5.073   6.161  10.873 -0.0770  0.1637 -0.0413
  243loPI   GL2 3878   4.772   5.973  10.710 -0.0845  0.1157 -0.0517
  243loPI   C1A 3879   5.102   6.242  10.422 -0.0704 -0.1238 -0.0489
  243loPI   C2A 3880   5.173   6.318  10.009 -0.0350  0.2668  0.1351
  243loPI   C3A 3881   5.235   6.324   9.594 -0.1860 -0.0767 -0.0005
  243loPI   C4A 3882   5.237   6.367   9.110 -0.0987 -0.1213  0.0096
  243loPI   C5A 3883   5.083   6.536   8.740  0.0149  0.0561 -0.2113
  243loPI   C6A 3884   5.014   6.360   8.261  0.5858 -0.1043 -0.1913
  243loPI   C1B 3885   4.815   5.936  10.256  0.0203  0.1813 -0.0343
  243loPI   C2B 3886   4.864   5.917   9.752  0.3148 -0.2296 -0.1937
  243loPI   C3B 3887   4.827   5.865   9.274 -0.1549  0.0021 -0.4926
  243loPI   C4B 3888   4.815   6.107   8.916  0.0085 -0.3189 -0.0081
  244loPI    C1 3889   8.986   3.971  11.489 -0.0645  0.2721 -0.1052
  244loPI    C2 3890   9.301   3.958  11.734 -0.0463 -0.1861 -0.1427
  244loPI    C3 3891   8.931   3.916  11.881 -0.0735  0.0608 -0.1350
  244loPI   PO4 3892   9.051   3.886  11.301  0.0965 -0.1489  0.2409
  244loPI   GL1 3893   8.900   3.911  10.829  0.2015  0.0125 -0.1823
  244loPI   GL2 3894   8.585   3.866  10.697  0.1218  0.0282  0.1217
  244loPI   C1A 3895   8.981   3.727  10.397  0.0489 -0.1159 -0.1415
  244loPI   C2A 3896   8.980   3.732   9.965 -0.0357 -0.3039 -0.3086
  244loPI   C3A 3897   8.897   3.690   9.554  0.1290  0.2076  0.1870
  244loPI   C4A 3898   8.960   3.702   9.251  0.4802  0.3135 -0.0109
  244loPI   C5A 3899   8.831   3.618   8.903  0.2319 -0.2728  0.2202
  244loPI   C6A 3900   8.583   3.303   8.760 -0.1252  0.1151 -0.1590
  244loPI   C1B 3901   8.554   3.870  10.205  0.5078 -0.2860  0.0068
  244loPI   C2B 3902   8.449   3.891   9.797  0.1573  0.3042 -0.1972
  244loPI   C3B 3903   8.481   3.850   9.326  0.2116  0.0879 -0.0486
  244loPI   C4B 3904   8.318   3.721   8.894 -0.0080  0.0104 -0.1766
  245loPI    C1 3905   6.161   0.813  11.623  0.0348  0.1976 -0.0637
  245loPI    C2 3906   5.885   0.621  11.840  0.1725 -0.0223 -0.0807
  245loPI    C3 3907   5.889   1.021  11.830 -0.0685 -0.0161  0.0179
  245loPI   PO4 3908   6.274   0.683  11.343 -0.1766  0.1465  0.2374
  245loPI   GL1 3909   6.265   0.493  11.031 -0.3191 -0.2428  0.1763
  245loPI   GL2 3910   6.100   0.288  10.923  0.1964  0.0398 -0.1140
  245loPI   C1A 3911   6.314   0.660  10.580 -0.0766 -0.1041 -0.0280
  245loPI   C2A 3912   6.307   0.684  10.211 -0.2347 -0.0019 -0.0884
  245loPI   C3A 3913   6.275   0.701   9.774 -0.0210  0.2069  0.1467
  245loPI   C4A 3914   6.450   0.628   9.442 -0.0327 -0.4003 -0.1036
  245loPI   C5A 3915   6.396   0.576   9.027  0.1858  0.2855 -0.0063
  245loPI   C6A 3916   6.479   0.937   8.618  0.0342 -0.0963  0.0335
  245loPI   C1B 3917   5.905   0.314  10.505 -0.0906 -0.1501  0.1024
  245loPI   C2B 3918   5.899   0.391  10.038 -0.2039  0.3177 -0.2126
  245loPI   C3B 3919   6.009   0.303   9.597  0.0291 -0.0184 -0.0546
  245loPI   C4B 3920   5.956   0.306   9.158 -0.0105  0.0244 -0.1894
  246loPI    C1 3921  14.642   7.842  11.219  0.0664 -0.1563  0.1634
  246loPI    C2 3922  14.912   8.052  11.427 -0.0716 -0.1126  0.2992
  246loPI    C3 3923  14.779   7.701  11.567  0.0149 -0.1991  0.1664
  246loPI   PO4 3924  14.567   8.079  11.018 -0.1504 -0.1405 -0.0220
  246loPI   GL1 3925  14.537   7.996  10.497  0.0571  0.1175  0.1381
  246loPI   GL2 3926  14.537   7.703  10.400 -0.2961 -0.0792  0.0537
  246loPI   C1A 3927  14.623   8.114  10.091 -0.1834 -0.2724  0.4330
  246loPI   C2A 3928  14.620   8.107   9.556 -0.0043  0.0567 -0.1535
  246loPI   C3A 3929  14.632   8.076   9.136 -0.0326  0.2011 -0.1907
  246loPI   C4A 3930  14.691   8.112   8.708 -0.0410 -0.0687  0.0229
  246loPI   C5A 3931  14.815   7.802   8.427  0.1598 -0.0096  0.0608
  246loPI   C6A 3932  15.135   7.579   8.184  0.2715  0.1658 -0.1299
  246loPI   C1B 3933  14.663   7.621  10.020  0.1315 -0.0578  0.0221
  246loPI   C2B 3934  14.764   7.505   9.632 -0.0253  0.2341  0.2669
  246loPI   C3B 3935  14.871   7.540   9.297  0.1584  0.0661 -0.1082
  246loPI   C4B 3936  14.766   7.597   8.893  0.0724  0.0003 -0.1269
  247loPI    C1 3937  15.637   4.977  11.295  0.0567  0.0928 -0.1241
  247loPI    C2 3938  15.500   4.772  11.610  0.1547 -0.0148 -0.1504
  247loPI    C3 3939  15.304   5.097  11.481  0.1063  0.0215  0.0121
  247loPI   PO4 3940  15.629   4.850  11.091 -0.2280  0.0602 -0.1022
  247loPI   GL1 3941  15.618   5.082  10.760 -0.2967  0.0686  0.0785
  247loPI   GL2 3942  15.523   5.390  10.627  0.2218 -0.1529  0.0376
  247loPI   C1A 3943  15.676   4.922  10.358  0.1906 -0.3310  0.1146
  247loPI   C2A 3944  15.659   4.814   9.910  0.1211  0.1072 -0.2983
  247loPI   C3A 3945  15.665   4.794   9.421 -0.3415  0.0419  0.1078
  247loPI   C4A 3946  15.711   4.715   9.113  0.2184 -0.1563  0.0740
  247loPI   C5A 3947  15.562   4.872   8.788 -0.2188  0.2498 -0.0831
  247loPI   C6A 3948  15.164   4.908   8.687 -0.1846 -0.1232 -0.5925
  247loPI   C1B 3949  15.518   5.389  10.199 -0.2352 -0.0892 -0.0938
  247loPI   C2B 3950  15.610   5.314   9.820 -0.3071  0.2523  0.0190
  247loPI   C3B 3951  15.664   5.255   9.365  0.2189  0.1148  0.0413
  247loPI   C4B 3952  15.683   5.390   8.991 -0.0404  0.1809  0.0110
  248loPI    C1 3953   2.038  17.212  11.537 -0.2268  0.2270 -0.1717
  248loPI    C2 3954   1.672  17.071  11.613 -0.0454 -0.0528  0.2140
  248loPI    C3 3955   1.793  17.413  11.781 -0.1180  0.0265  0.1067
  248loPI   PO4 3956   2.002  17.161  11.242 -0.0628  0.2075 -0.1874
  248loPI   GL1 3957   1.886  16.856  10.850  0.0241 -0.0955 -0.1271
  248loPI   GL2 3958   2.164  16.714  10.947  0.0939  0.2103 -0.1628
  248loPI   C1A 3959   1.954  16.953  10.510  0.4244  0.3761 -0.0510
  248loPI   C2A 3960   2.084  16.977  10.116 -0.2139  0.0002 -0.0707
  248loPI   C3A 3961   2.032  17.030   9.674  0.4783  0.1959  0.1596
  248loPI   C4A 3962   1.965  17.004   9.219 -0.2886 -0.0406 -0.0037
  248loPI   C5A 3963   1.991  16.799   8.863 -0.1044 -0.0671  0.0397
  248loPI   C6A 3964   2.033  16.507   8.555 -0.0776  0.2574  0.3273
  248loPI   C1B 3965   2.000  16.459  10.598 -0.0466 -0.2060 -0.0156
  248loPI   C2B 3966   2.198  16.497  10.188 -0.2188  0.3226  0.1943
  248loPI   C3B 3967   2.190  16.481   9.842  0.0880  0.2174  0.3272
  248loPI   C4B 3968   2.177  16.436   9.364 -0.0307  0.1850  0.0829
  249loPI    C1 3969   2.903   6.018  11.860  0.0510  0.0127 -0.0750
  249loPI    C2 3970   2.917   5.768  12.172  0.1123  0.2093  0.0821
  249loPI    C3 3971   2.667   6.080  12.177 -0.0592  0.0791 -0.1695
  249loPI   PO4 3972   2.913   5.883  11.578  0.0951  0.2229 -0.2892
  249loPI   GL1 3973   2.931   6.003  11.165 -0.1495  0.2310 -0.2932
  249loPI   GL2 3974   2.888   5.704  11.127  0.0247  0.3992 -0.1020
  249loPI   C1A 3975   2.930   6.091  10.755 -0.0163 -0.0113  0.2287
  249loPI   C2A 3976   2.870   6.054  10.280 -0.1649  0.1529  0.2585
  249loPI   C3A 3977   2.997   6.047   9.872 -0.1585 -0.2033  0.1721
  249loPI   C4A 3978   2.987   6.126   9.369 -0.0427  0.0470  0.4259
  249loPI   C5A 3979   3.013   6.385   8.990  0.1520  0.0822  0.0660
  249loPI   C6A 3980   2.685   6.685   8.777  0.2675  0.3258 -0.2321
  249loPI   C1B 3981   2.962   5.548  10.727  0.0468 -0.0848  0.0358
  249loPI   C2B 3982   3.077   5.518  10.313 -0.0954  0.2638 -0.1071
  249loPI   C3B 3983   3.055   5.556   9.897 -0.0074  0.1617 -0.3552
  249loPI   C4B 3984   3.144   5.591   9.445  0.0555 -0.1045  0.2801
  250loPI    C1 3985  14.624   4.478  11.388  0.1849  0.2061 -0.0308
  250loPI    C2 3986  14.333   4.720  11.520  0.0378  0.0052  0.0186
  250loPI    C3 3987  14.603   4.574  11.776  0.0557  0.0222  0.0094
  250loPI   PO4 3988  14.606   4.560  11.147  0.2584 -0.1197 -0.3634
  250loPI   GL1 3989  14.766   4.523  10.767 -0.0060  0.2302  0.1801
  250loPI   GL2 3990  14.786   4.834  10.778 -0.0564 -0.1561 -0.0464
  250loPI   C1A 3991  14.784   4.560  10.355 -0.1181 -0.0745  0.1196
  250loPI   C2A 3992  14.841   4.604   9.932  0.2251 -0.2477 -0.1152
  250loPI   C3A 3993  14.891   4.668   9.515  0.1289  0.1201 -0.1880
  250loPI   C4A 3994  14.765   4.620   9.096  0.2755 -0.0619  0.0315
  250loPI   C5A 3995  14.762   4.510   8.693  0.0255  0.1936 -0.0234
  250loPI   C6A 3996  14.847   4.125   8.462 -0.0234 -0.1294 -0.1068
  250loPI   C1B 3997  15.101   4.968  10.522 -0.0468 -0.0480 -0.0646
  250loPI   C2B 3998  15.266   4.987  10.097  0.0695  0.0712  0.1306
  250loPI   C3B 3999  15.227   4.997   9.636 -0.4076 -0.1276 -0.0088
  250loPI   C4B 4000  15.250   4.883   9.177 -0.2821 -0.0690  0.0398
  251loPI    C1 4001   4.484  14.262  11.200 -0.0659  0.0278 -0.0318
  251loPI    C2 4002   4.201  14.157  11.462 -0.0946 -0.1021 -0.1135
  251loPI    C3 4003   4.578  14.211  11.585 -0.1390 -0.0048 -0.0180
  251loPI   PO4 4004   4.503  14.102  11.041  0.2502  0.0641  0.1202
  251loPI   GL1 4005   4.562  14.125  10.638 -0.1392  0.0254  0.0211
  251loPI   GL2 4006   4.482  14.061  10.372  0.0449 -0.1311 -0.1674
  251loPI   C1A 4007   4.615  14.507  10.264  0.0578  0.1930  0.0282
  251loPI   C2A 4008   4.776  14.528   9.863 -0.0944  0.1254 -0.0690
  251loPI   C3A 4009   4.807  14.550   9.419  0.1489  0.2536  0.0112
  251loPI   C4A 4010   4.894  14.735   9.019  0.0493  0.1453  0.1361
  251loPI   C5A 4011   4.973  14.590   8.643 -0.0796  0.0940  0.3783
  251loPI   C6A 4012   5.171  14.819   8.205 -0.2762  0.1639  0.0155
  251loPI   C1B 4013   4.357  14.199   9.945  0.1841  0.0354 -0.0935
  251loPI   C2B 4014   4.431  14.149   9.462  0.2001  0.0471  0.0259
  251loPI   C3B 4015   4.459  14.284   9.032 -0.0992 -0.1046  0.0145
  251loPI   C4B 4016   4.560  14.273   8.639  0.1773  0.1985  0.0598
  252loPI    C1 4017   5.182  13.484  11.214 -0.0020 -0.1082  0.0005
  252loPI    C2 4018   5.407  13.338  11.511  0.2194 -0.0936 -0.1579
  252loPI    C3 4019   5.152  13.098  11.317  0.1205 -0.1180  0.0002
  252loPI   PO4 4020   5.282  13.570  11.076  0.2291 -0.1222 -0.1351
  252loPI   GL1 4021   5.353  13.644  10.605 -0.1328  0.0268 -0.1343
  252loPI   GL2 4022   5.629  13.600  10.737  0.2435  0.1295  0.1392
  252loPI   C1A 4023   5.444  13.908  10.235  0.0146 -0.1202  0.1538
  252loPI   C2A 4024   5.416  13.979   9.842 -0.0289  0.0258 -0.1434
  252loPI   C3A 4025   5.488  13.906   9.408  0.0493 -0.2271  0.1062
  252loPI   C4A 4026   5.461  13.862   8.987  0.1819 -0.0344  0.1547
  252loPI   C5A 4027   5.697  13.894   8.550 -0.0546 -0.2280  0.0215
  252loPI   C6A 4028   6.132  14.064   8.448 -0.2418  0.3899  0.1075
  252loPI   C1B 4029   5.474  13.384  10.234 -0.1217  0.0831 -0.3186
  252loPI   C2B 4030   5.479  13.356   9.715  0.2511  0.3372 -0.1114
  252loPI   C3B 4031   5.543  13.431   9.208 -0.1623  0.3329 -0.1210
  252loPI   C4B 4032   5.489  13.353   8.708 -0.0477 -0.0994  0.1805
  253loPI    C1 4033   6.384   3.757  11.333 -0.0877  0.0115  0.1693
  253loPI    C2 4034   6.084   3.926  11.535 -0.0608  0.3592 -0.0728
  253loPI    C3 4035   6.046   3.857  11.143  0.1225  0.2747 -0.0764
  253loPI   PO4 4036   6.642   3.894  11.367 -0.1077 -0.1675  0.0059
  253loPI   GL1 4037   6.755   4.113  10.966 -0.1046  0.3049  0.1646
  253loPI   GL2 4038   6.963   4.252  10.718 -0.0117 -0.1652  0.1699
  253loPI   C1A 4039   6.635   3.939  10.509 -0.1672 -0.0180  0.3137
  253loPI   C2A 4040   6.594   3.896  10.112  0.2545 -0.4943 -0.0988
  253loPI   C3A 4041   6.559   3.997   9.681 -0.0947 -0.0499  0.2404
  253loPI   C4A 4042   6.536   4.051   9.195 -0.0129 -0.0456 -0.2426
  253loPI   C5A 4043   6.361   3.906   8.896  0.2539  0.0574  0.0234
  253loPI   C6A 4044   5.886   3.872   8.785 -0.3550  0.0242 -0.0789
  253loPI   C1B 4045   6.995   4.287  10.278 -0.0645 -0.3957  0.0728
  253loPI   C2B 4046   6.966   4.338   9.840 -0.3375  0.0109 -0.1521
  253loPI   C3B 4047   6.985   4.324   9.376  0.0374 -0.0129  0.2025
  253loPI   C4B 4048   6.995   4.397   8.980 -0.0341 -0.2392 -0.1040
  254loPI    C1 4049  15.032  14.663  11.105  0.1578  0.0180  0.2079
  254loPI    C2 4050  14.893  14.991  11.286 -0.0230  0.0257  0.0575
  254loPI    C3 4051  14.752  14.631  11.389  0.1441 -0.0025  0.1921
  254loPI   PO4 4052  15.071  14.744  10.899 -0.1486  0.0395  0.0286
  254loPI   GL1 4053  15.014  15.017  10.586 -0.1464  0.1402  0.0246
  254loPI   GL2 4054  14.694  15.152  10.745 -0.2898 -0.0434 -0.1601
  254loPI   C1A 4055  15.297  15.040  10.170 -0.3092 -0.1293  0.1558
  254loPI   C2A 4056  15.315  14.978   9.651  0.2690 -0.1418 -0.1700
  254loPI   C3A 4057  15.415  14.971   9.218  0.0716 -0.1911 -0.2031
  254loPI   C4A 4058  15.386  15.023   8.815  0.3046  0.0643 -0.0372
  254loPI   C5A 4059  15.231  14.969   8.317  0.0063 -0.1626  0.0251
  254loPI   C6A 4060  14.895  14.886   7.959  0.1419  0.1960 -0.1909
  254loPI   C1B 4061  14.690  15.182  10.298  0.1673  0.1300  0.0821
  254loPI   C2B 4062  14.834  15.195   9.962  0.2042 -0.3269  0.0202
  254loPI   C3B 4063  14.847  15.168   9.492 -0.0270  0.2756  0.0215
  254loPI   C4B 4064  14.979  15.126   9.033  0.2717  0.0211 -0.3974
  255loPI    C1 4065  16.732   7.524  11.388  0.0071 -0.1076  0.0663
  255loPI    C2 4066  17.064   7.400  11.573  0.2256  0.0069 -0.2405
  255loPI    C3 4067  16.811   7.646  11.761  0.2451 -0.1844  0.0428
  255loPI   PO4 4068  16.601   7.266  11.222 -0.1199 -0.0107  0.2235
  255loPI   GL1 4069  16.661   7.150  10.914  0.1271 -0.3192  0.1311
  255loPI   GL2 4070  16.935   7.107  10.859 -0.2837 -0.0391 -0.1766
  255loPI   C1A 4071  16.643   6.894  10.457 -0.1494 -0.1241 -0.2028
  255loPI   C2A 4072  16.675   6.784  10.031  0.0473 -0.0884 -0.1061
  255loPI   C3A 4073  16.710   6.839   9.625  0.1018  0.0763  0.2961
  255loPI   C4A 4074  16.738   6.927   9.212 -0.3762  0.5192 -0.1742
  255loPI   C5A 4075  16.798   7.208   8.893  0.0319 -0.0268  0.3089
  255loPI   C6A 4076  16.783   7.637   8.792  0.0744 -0.0898 -0.0824
  255loPI   C1B 4077  17.072   7.209  10.448 -0.2177 -0.0284  0.1167
  255loPI   C2B 4078  17.192   7.191   9.976 -0.3882 -0.1342  0.0181
  255loPI   C3B 4079  17.151   7.272   9.509  0.2318  0.1681  0.0755
  255loPI   C4B 4080  17.186   7.327   9.110 -0.2208  0.0186  0.0215
  256loPI    C1 4081   7.403  15.975  11.234 -0.0324  0.0158 -0.1754
  256loPI    C2 4082   7.794  16.058  11.218 -0.0024 -0.1106 -0.1101
  256loPI    C3 4083   7.656  15.796  11.488 -0.1489  0.0260 -0.0511
  256loPI   PO4 4084   7.281  16.041  11.024  0.2162 -0.1024  0.0309
  256loPI   GL1 4085   7.482  16.042  10.608  0.1159 -0.0702 -0.2148
  256loPI   GL2 4086   7.796  16.130  10.659 -0.1688 -0.0152  0.0491
  256loPI   C1A 4087   7.537  16.442  10.389 -0.0471  0.0407 -0.2987
  256loPI   C2A 4088   7.608  16.558   9.946 -0.0953  0.1434 -0.1446
  256loPI   C3A 4089   7.661  16.533   9.482 -0.0757 -0.2001  0.1852
  256loPI   C4A 4090   7.726  16.500   8.954  0.1220  0.1050 -0.2428
  256loPI   C5A 4091   7.761  16.547   8.555 -0.1314  0.0784 -0.0273
  256loPI   C6A 4092   7.786  16.763   8.100  0.0231  0.0917  0.3059
  256loPI   C1B 4093   8.048  16.351  10.372  0.1504  0.0690 -0.0557
  256loPI   C2B 4094   8.142  16.332   9.979 -0.0316  0.0466 -0.2085
  256loPI   C3B 4095   8.165  16.360   9.569 -0.2705  0.0752  0.1618
  256loPI   C4B 4096   8.218  16.382   9.091  0.0934  0.2173  0.1052
  257loPI    C1 4097   0.779  12.710  11.213  0.1191 -0.1852 -0.0121
  257loPI    C2 4098   0.730  12.635  11.603  0.0226  0.0465  0.0226
  257loPI    C3 4099   0.411  12.697  11.370  0.0887  0.0958 -0.0552
  257loPI   PO4 4100   0.896  12.555  11.124  0.0144 -0.0793 -0.0279
  257loPI   GL1 4101   1.003  12.574  10.767 -0.0637 -0.1989 -0.1605
  257loPI   GL2 4102   1.292  12.328  10.793  0.1483 -0.2632 -0.2627
  257loPI   C1A 4103   1.146  12.534  10.352  0.2482 -0.0697 -0.1253
  257loPI   C2A 4104   1.153  12.430   9.983  0.3063  0.2402  0.1054
  257loPI   C3A 4105   1.128  12.462   9.548 -0.0739 -0.1070  0.0949
  257loPI   C4A 4106   1.064  12.274   9.160 -0.0767 -0.1500 -0.0382
  257loPI   C5A 4107   1.149  12.237   8.752  0.1925  0.0327  0.3158
  257loPI   C6A 4108   0.841  12.167   8.444  0.0995  0.3114 -0.2702
  257loPI   C1B 4109   1.248  12.036  10.323 -0.0175 -0.0790  0.2284
  257loPI   C2B 4110   1.318  11.935   9.953 -0.0671 -0.3537  0.1405
  257loPI   C3B 4111   1.319  11.989   9.568  0.1823  0.1896  0.2209
  257loPI   C4B 4112   1.200  11.741   9.182  0.1777 -0.2390  0.3939
  258loPI    C1 4113  13.556   7.809  10.886  0.0640  0.1938  0.1944
  258loPI    C2 4114  13.211   7.865  11.081 -0.0674  0.0155  0.0177
  258loPI    C3 4115  13.327   7.496  10.982  0.1510  0.0789  0.0307
  258loPI   PO4 4116  13.536   7.883  10.729 -0.2957  0.1543 -0.0924
  258loPI   GL1 4117  13.308   8.023  10.358  0.2132 -0.3886 -0.0703
  258loPI   GL2 4118  13.047   7.983  10.181 -0.2150  0.2644  0.0051
  258loPI   C1A 4119  13.380   8.228   9.970 -0.1424 -0.2785  0.1397
  258loPI   C2A 4120  13.534   8.165   9.569  0.2036  0.2326  0.2054
  258loPI   C3A 4121  13.487   8.263   9.247 -0.3509 -0.1272  0.0960
  258loPI   C4A 4122  13.668   8.445   8.902 -0.0158  0.0693  0.1664
  258loPI   C5A 4123  13.665   8.563   8.552 -0.1030  0.0030 -0.2596
  258loPI   C6A 4124  13.648   9.059   8.385  0.1507 -0.1709  0.2926
  258loPI   C1B 4125  12.984   8.021   9.767  0.0132  0.1120  0.1813
  258loPI   C2B 4126  13.060   7.979   9.324 -0.0670  0.2426 -0.0987
  258loPI   C3B 4127  13.171   7.904   8.973  0.1393 -0.1005 -0.0883
  258loPI   C4B 4128  13.328   8.187   8.702  0.2751 -0.3228 -0.0041
  259loPI    C1 4129   8.876   4.411  11.219  0.3579  0.1179 -0.0276
  259loPI    C2 4130   8.801   4.713  11.469  0.0734 -0.1636  0.2356
  259loPI    C3 4131   9.084   4.445  11.559  0.4042  0.0793 -0.0518
  259loPI   PO4 4132   8.657   4.393  11.118 -0.2188 -0.0591 -0.0532
  259loPI   GL1 4133   8.491   4.329  10.785 -0.1248 -0.0711 -0.3882
  259loPI   GL2 4134   8.198   4.361  10.900  0.0837  0.0034  0.0189
  259loPI   C1A 4135   8.337   4.405  10.341 -0.0046  0.0158 -0.1188
  259loPI   C2A 4136   8.401   4.374   9.926 -0.1468 -0.1216 -0.0702
  259loPI   C3A 4137   8.350   4.339   9.454 -0.0263 -0.3131  0.1255
  259loPI   C4A 4138   8.331   4.286   9.007 -0.1861 -0.2041 -0.1580
  259loPI   C5A 4139   8.205   4.145   8.664 -0.2699  0.0476 -0.2188
  259loPI   C6A 4140   8.203   4.395   8.206 -0.3996 -0.0508  0.1904
  259loPI   C1B 4141   7.900   4.545  10.513  0.1335 -0.0112 -0.1869
  259loPI   C2B 4142   7.842   4.528  10.041 -0.1138  0.0810  0.1645
  259loPI   C3B 4143   7.818   4.537   9.583  0.0433 -0.1029  0.0346
  259loPI   C4B 4144   7.885   4.539   9.188 -0.0994 -0.0125 -0.0374
  260loPI    C1 4145  15.936  14.712  11.470 -0.2196 -0.1961  0.1389
  260loPI    C2 4146  16.288  14.581  11.609 -0.0821 -0.0527 -0.0688
  260loPI    C3 4147  16.011  14.720  11.863 -0.0302 -0.2619  0.1049
  260loPI   PO4 4148  15.954  14.587  11.228 -0.0534 -0.1443 -0.0599
  260loPI   GL1 4149  16.047  14.650  10.938  0.1384  0.2098  0.1941
  260loPI   GL2 4150  16.004  14.316  10.770  0.1973 -0.0639 -0.2413
  260loPI   C1A 4151  15.976  14.797  10.507 -0.5154  0.1163  0.1224
  260loPI   C2A 4152  15.753  14.781  10.054  0.1124  0.0449  0.0101
  260loPI   C3A 4153  15.927  14.894   9.650 -0.1720 -0.0388  0.2597
  260loPI   C4A 4154  16.000  14.854   9.201  0.0533  0.0069  0.0158
  260loPI   C5A 4155  15.843  14.897   8.762  0.0531  0.0376 -0.1092
  260loPI   C6A 4156  15.581  14.585   8.528 -0.1325  0.3512  0.0362
  260loPI   C1B 4157  15.923  14.356  10.236 -0.1322 -0.0574  0.0334
  260loPI   C2B 4158  15.948  14.349   9.820  0.0025  0.0723  0.0690
  260loPI   C3B 4159  15.972  14.400   9.386  0.0649 -0.0801  0.0153
  260loPI   C4B 4160  16.099  14.323   8.950 -0.0364 -0.1945  0.0009
  261loPI    C1 4161   3.774   9.719  11.366  0.2300 -0.0424  0.0325
  261loPI    C2 4162   3.613   9.916  11.674  0.0954  0.0557 -0.0988
  261loPI    C3 4163   3.715   9.531  11.714 -0.0114  0.0406  0.0386
  261loPI   PO4 4164   3.704   9.807  11.096  0.0159  0.0687 -0.1454
  261loPI   GL1 4165   3.672  10.095  10.753 -0.0787 -0.1160 -0.0877
  261loPI   GL2 4166   3.819   9.901  10.599  0.4103  0.1090  0.0477
  261loPI   C1A 4167   3.520  10.133  10.282 -0.1626  0.2219  0.0115
  261loPI   C2A 4168   3.571  10.199   9.881 -0.0551 -0.1033  0.1427
  261loPI   C3A 4169   3.502  10.200   9.402 -0.0342 -0.1617  0.1190
  261loPI   C4A 4170   3.268  10.223   8.998  0.2005  0.2392  0.0477
  261loPI   C5A 4171   2.926  10.371   8.693 -0.2955  0.0032  0.0631
  261loPI   C6A 4172   2.516  10.282   8.626 -0.1853  0.0176  0.1846
  261loPI   C1B 4173   4.022  10.032  10.198  0.0897 -0.0679  0.0862
  261loPI   C2B 4174   4.035  10.014   9.863 -0.2281 -0.1445 -0.1669
  261loPI   C3B 4175   4.026  10.071   9.454  0.0647 -0.2210  0.1787
  261loPI   C4B 4176   3.766  10.082   8.992 -0.1063  0.3723  0.0784
  262loPI    C1 4177  11.050   7.664  10.377 -0.1284 -0.0504  0.1130
  262loPI    C2 4178  11.292   7.884  10.147 -0.1830 -0.1177 -0.0100
  262loPI    C3 4179  11.380   7.827  10.533  0.0266 -0.1882 -0.0672
  262loPI   PO4 4180  11.058   7.396  10.245  0.1030  0.0197  0.2804
  262loPI   GL1 4181  10.891   7.254   9.840 -0.2215 -0.0006  0.0233
  262loPI   GL2 4182  10.627   7.226   9.964  0.0351 -0.0917 -0.1287
  262loPI   C1A 4183  10.934   7.253   9.379  0.0686  0.3219 -0.1162
  262loPI   C2A 4184  10.979   7.242   8.939 -0.0070 -0.1359 -0.0545
  262loPI   C3A 4185  11.300   7.237   8.614  0.0585 -0.0090 -0.0095
  262loPI   C4A 4186  11.354   7.465   8.231 -0.1227 -0.2441 -0.1222
  262loPI   C5A 4187  11.040   7.602   7.944  0.0727 -0.1130 -0.0187
  262loPI   C6A 4188  10.932   7.980   7.882  0.2401  0.2465  0.3097
  262loPI   C1B 4189  10.627   6.925   9.589 -0.1667 -0.1764 -0.1550
  262loPI   C2B 4190  10.653   6.888   9.148  0.0188  0.0995  0.0058
  262loPI   C3B 4191  10.526   6.921   8.849  0.0239 -0.2009  0.1126
  262loPI   C4B 4192  10.472   7.117   8.434  0.1201 -0.0340  0.1790
  263loPI    C1 4193  12.866  14.595  11.128  0.0792  0.0014 -0.0494
  263loPI    C2 4194  12.591  14.352  11.287 -0.0082  0.0672 -0.0989
  263loPI    C3 4195  12.927  14.434  11.489  0.0345 -0.1160 -0.0938
  263loPI   PO4 4196  12.838  14.414  10.867  0.1051 -0.5009 -0.0839
  263loPI   GL1 4197  12.792  14.406  10.457  0.0883 -0.1553  0.1003
  263loPI   GL2 4198  12.661  14.169  10.318 -0.0309 -0.1467  0.4345
  263loPI   C1A 4199  13.118  14.403  10.023 -0.0330  0.0146 -0.0568
  263loPI   C2A 4200  13.108  14.407   9.556  0.2402 -0.3986  0.1869
  263loPI   C3A 4201  13.226  14.350   9.230 -0.0786  0.2840 -0.0872
  263loPI   C4A 4202  13.320  14.327   8.846 -0.0846  0.1773  0.1615
  263loPI   C5A 4203  13.236  14.591   8.489 -0.1667  0.0810  0.1854
  263loPI   C6A 4204  13.289  14.992   8.524 -0.0230 -0.0405 -0.2212
  263loPI   C1B 4205  12.831  14.025   9.838  0.0489  0.0954  0.1729
  263loPI   C2B 4206  12.804  13.986   9.380  0.4204  0.1119  0.0869
  263loPI   C3B 4207  12.923  13.998   8.918 -0.1615 -0.1445  0.2064
  263loPI   C4B 4208  13.031  14.070   8.499 -0.0384  0.0715  0.0168
  264loPI    C1 4209   0.932   3.422  11.529 -0.2647 -0.2466 -0.1641
  264loPI    C2 4210   0.614   3.249  11.699 -0.0628 -0.3555  0.1103
  264loPI    C3 4211   0.948   3.306  11.912  0.0324 -0.0522 -0.1143
  264loPI   PO4 4212   0.904   3.358  11.224 -0.2709 -0.0218 -0.1783
  264loPI   GL1 4213   0.723   3.483  10.789 -0.0587 -0.0880 -0.1153
  264loPI   GL2 4214   0.901   3.704  10.892 -0.0470  0.2130 -0.1062
  264loPI   C1A 4215   0.658   3.501  10.248 -0.1975  0.1279  0.1854
  264loPI   C2A 4216   0.634   3.544   9.768 -0.0443 -0.0341 -0.2987
  264loPI   C3A 4217   0.602   3.556   9.236 -0.0473 -0.2367  0.1770
  264loPI   C4A 4218   0.628   3.639   8.818  0.2998  0.0743 -0.0463
  264loPI   C5A 4219   0.756   3.555   8.396 -0.4377 -0.1934 -0.0226
  264loPI   C6A 4220   0.729   3.773   8.011 -0.1299  0.0076  0.4080
  264loPI   C1B 4221   1.008   3.785  10.522 -0.2205 -0.0687  0.1870
  264loPI   C2B 4222   1.070   3.872  10.108  0.3363 -0.1596  0.2932
  264loPI   C3B 4223   1.095   3.840   9.666 -0.1542 -0.1144 -0.2315
  264loPI   C4B 4224   1.098   3.877   9.184  0.2473  0.1570 -0.1799
  265loPI    C1 4225   2.306  13.860  11.290  0.2076  0.1570  0.0821
  265loPI    C2 4226   2.060  13.683  11.551  0.0527  0.1602 -0.0608
  265loPI    C3 4227   2.245  14.024  11.650  0.1057  0.0861  0.0974
  265loPI   PO4 4228   2.158  13.849  11.069 -0.0975 -0.0014 -0.3242
  265loPI   GL1 4229   2.148  13.924  10.705  0.2762 -0.0981  0.2479
  265loPI   GL2 4230   1.828  13.709  10.667 -0.2399  0.4178 -0.1657
  265loPI   C1A 4231   2.154  14.063  10.281  0.0568  0.2047 -0.4317
  265loPI   C2A 4232   2.200  14.052   9.795 -0.0719  0.0209  0.0185
  265loPI   C3A 4233   2.142  13.994   9.409 -0.1578 -0.0830  0.0257
  265loPI   C4A 4234   2.116  14.149   8.982  0.2599  0.0062  0.0943
  265loPI   C5A 4235   1.895  14.113   8.623 -0.1211 -0.0455 -0.0007
  265loPI   C6A 4236   1.852  13.664   8.544 -0.2674 -0.2363 -0.0869
  265loPI   C1B 4237   1.775  13.725  10.262 -0.0032 -0.0531 -0.2155
  265loPI   C2B 4238   1.830  13.578   9.873  0.1512  0.0402  0.1399
  265loPI   C3B 4239   1.741  13.687   9.454  0.0352  0.0809  0.3000
  265loPI   C4B 4240   1.741  13.715   8.999 -0.1628  0.2515 -0.0626
  266loPI    C1 4241  11.335   9.453  10.578  0.0456  0.0351  0.1496
  266loPI    C2 4242  11.269   9.558  10.959 -0.0280 -0.1532  0.1900
  266loPI    C3 4243  10.999   9.338  10.762 -0.0945  0.1304 -0.0433
  266loPI   PO4 4244  11.486   9.714  10.421 -0.1799 -0.2568  0.0823
  266loPI   GL1 4245  11.348   9.983  10.249 -0.2220 -0.2882  0.0121
  266loPI   GL2 4246  11.144  10.258  10.354 -0.1546 -0.2984  0.0461
  266loPI   C1A 4247  11.549  10.085   9.854 -0.0263 -0.1331 -0.0006
  266loPI   C2A 4248  11.675  10.038   9.376 -0.1468 -0.4255  0.0308
  266loPI   C3A 4249  11.778   9.945   9.001 -0.1404  0.2702  0.1665
  266loPI   C4A 4250  11.759   9.871   8.510  0.0514  0.0305 -0.2480
  266loPI   C5A 4251  11.933   9.853   8.038  0.1934 -0.0425  0.2305
  266loPI   C6A 4252  12.061  10.060   7.713 -0.1322 -0.0388 -0.2646
  266loPI   C1B 4253  11.016  10.171   9.915 -0.1719  0.0562 -0.2243
  266loPI   C2B 4254  11.144  10.157   9.533  0.2697 -0.1930 -0.3590
  266loPI   C3B 4255  11.243  10.149   9.130 -0.4036 -0.0214  0.1218
  266loPI   C4B 4256  11.339  10.181   8.696  0.0885  0.0020  0.0796
  267loPI    C1 4257  14.344  13.799  11.284  0.0146  0.0811 -0.0443
  267loPI    C2 4258  13.991  13.976  11.348 -0.0260 -0.0500  0.1021
  267loPI    C3 4259  14.180  13.791  11.648  0.0763 -0.1459 -0.0198
  267loPI   PO4 4260  14.431  13.910  11.093 -0.1101 -0.0097  0.1642
  267loPI   GL1 4261  14.495  14.096  10.733  0.0998 -0.3380  0.3504
  267loPI   GL2 4262  14.779  13.837  10.737  0.0112  0.2131 -0.0076
  267loPI   C1A 4263  14.502  14.250  10.322 -0.1736 -0.2176 -0.3738
  267loPI   C2A 4264  14.503  14.280   9.872 -0.3840  0.0302 -0.2242
  267loPI   C3A 4265  14.573  14.388   9.561 -0.0511 -0.0256  0.5387
  267loPI   C4A 4266  14.515  14.323   9.152 -0.1661 -0.0889 -0.0180
  267loPI   C5A 4267  14.618  14.230   8.696 -0.1624  0.3775  0.3346
  267loPI   C6A 4268  14.838  14.478   8.418  0.1748 -0.0255 -0.0839
  267loPI   C1B 4269  14.616  13.777  10.345  0.0163  0.0529 -0.1238
  267loPI   C2B 4270  14.645  13.808   9.974 -0.1972 -0.0160  0.3739
  267loPI   C3B 4271  14.693  13.835   9.504 -0.0016  0.4272  0.0212
  267loPI   C4B 4272  14.840  13.922   9.021 -0.2411  0.0250  0.1551
  268loPI    C1 4273   0.044  11.197  11.265 -0.0283  0.1406 -0.0953
  268loPI    C2 4274   0.037  11.591  11.333 -0.2332  0.0965  0.1549
  268loPI    C3 4275   0.130  11.339  11.629 -0.0620 -0.0421 -0.0148
  268loPI   PO4 4276   0.192  11.192  11.081  0.3842 -0.3932  0.0191
  268loPI   GL1 4277   0.312  11.246  10.663  0.1802  0.1219  0.0166
  268loPI   GL2 4278   0.447  11.506  10.676  0.1699 -0.0189  0.0042
  268loPI   C1A 4279   0.462  11.258  10.252  0.1752 -0.1506  0.1998
  268loPI   C2A 4280   0.481  11.100   9.809 -0.1679  0.3276 -0.0909
  268loPI   C3A 4281   0.398  11.132   9.375  0.1748  0.1696 -0.3159
  268loPI   C4A 4282   0.359  11.252   8.962  0.3611 -0.2940  0.1044
  268loPI   C5A 4283   0.752  11.456   8.828  0.2365 -0.1691 -0.1843
  268loPI   C6A 4284   1.143  11.284   8.819 -0.0321  0.2097 -0.2907
  268loPI   C1B 4285   0.480  11.837  10.358  0.0480 -0.1192 -0.2232
  268loPI   C2B 4286   0.475  11.819   9.916 -0.1201 -0.0300 -0.0983
  268loPI   C3B 4287   0.379  11.636   9.456 -0.0726 -0.0934 -0.1379
  268loPI   C4B 4288   0.333  11.751   9.048  0.0853 -0.1305 -0.3162
  269loPI    C1 4289   0.076   3.522  11.512 -0.0451 -0.1309 -0.0189
  269loPI    C2 4290  -0.278   3.389  11.644 -0.0773  0.0145  0.0427
  269loPI    C3 4291   0.060   3.269  11.822 -0.1029 -0.0285  0.0623
  269loPI   PO4 4292   0.015   3.580  11.231 -0.1093 -0.0364  0.3339
  269loPI   GL1 4293   0.138   3.576  10.887  0.1935  0.0186 -0.1296
  269loPI   GL2 4294   0.278   3.265  10.661 -0.2032  0.2006 -0.4549
  269loPI   C1A 4295   0.192   3.671  10.458  0.4360  0.0459  0.0965
  269loPI   C2A 4296   0.167   3.627  10.005  0.0696 -0.0370 -0.2732
  269loPI   C3A 4297   0.155   3.707   9.530  0.1564 -0.3010 -0.0449
  269loPI   C4A 4298   0.175   3.800   9.183  0.0063  0.0248 -0.0131
  269loPI   C5A 4299   0.200   3.848   8.807 -0.0011 -0.3295  0.0691
  269loPI   C6A 4300   0.463   4.016   8.544  0.2085 -0.1637 -0.0966
  269loPI   C1B 4301   0.313   3.188  10.232 -0.0773  0.2120 -0.1641
  269loPI   C2B 4302   0.324   3.166   9.836  0.2250  0.0633  0.1399
  269loPI   C3B 4303   0.162   3.201   9.396 -0.1822 -0.1054 -0.2215
  269loPI   C4B 4304   0.259   3.226   8.928 -0.2641 -0.1537 -0.1607
  270loPI    C1 4305  13.030   3.679  11.061  0.2271 -0.0465  0.1274
  270loPI    C2 4306  13.242   3.783  11.383  0.0512  0.2149  0.1617
  270loPI    C3 4307  12.867   3.914  11.340  0.0298  0.0772 -0.0886
  270loPI   PO4 4308  13.133   3.645  10.915 -0.1138  0.0931  0.0499
  270loPI   GL1 4309  13.250   3.293  10.716 -0.0983  0.0608 -0.4094
  270loPI   GL2 4310  13.564   3.155  10.722  0.2725  0.0157  0.2737
  270loPI   C1A 4311  13.250   3.275  10.296 -0.2159 -0.1360  0.0357
  270loPI   C2A 4312  13.263   3.276   9.899 -0.3317  0.0378  0.2366
  270loPI   C3A 4313  13.297   3.183   9.466 -0.0859 -0.2590  0.0899
  270loPI   C4A 4314  13.151   3.212   9.062  0.0449 -0.0394 -0.1127
  270loPI   C5A 4315  13.234   3.206   8.623 -0.2557 -0.0037  0.0715
  270loPI   C6A 4316  13.021   2.870   8.375 -0.0477  0.2079 -0.1134
  270loPI   C1B 4317  13.696   3.071  10.255 -0.1397 -0.1728 -0.0773
  270loPI   C2B 4318  13.683   3.059   9.772  0.0474 -0.0186  0.2146
  270loPI   C3B 4319  13.830   3.093   9.387 -0.0293  0.0200  0.0243
  270loPI   C4B 4320  13.635   3.076   8.936  0.3259 -0.0048 -0.4476
  271loPI    C1 4321   4.331   5.876  11.294  0.0135 -0.0846 -0.0887
  271loPI    C2 4322   4.190   6.055  11.623  0.2318 -0.0283 -0.0243
  271loPI    C3 4323   4.502   5.806  11.649  0.0051 -0.3299 -0.1310
  271loPI   PO4 4324   4.302   6.006  11.110 -0.1847 -0.0593  0.2621
  271loPI   GL1 4325   4.306   6.146  10.742 -0.1752  0.0518  0.0984
  271loPI   GL2 4326   4.537   6.397  10.887  0.1306  0.1746  0.1450
  271loPI   C1A 4327   4.295   6.024  10.256 -0.0484 -0.1064 -0.2392
  271loPI   C2A 4328   4.388   6.098   9.773 -0.2656  0.1231 -0.1314
  271loPI   C3A 4329   4.368   6.010   9.293  0.1548 -0.1717  0.0204
  271loPI   C4A 4330   4.182   5.873   8.861  0.4127 -0.0600 -0.0794
  271loPI   C5A 4331   3.752   5.864   8.683 -0.2348  0.1403 -0.2009
  271loPI   C6A 4332   3.444   6.096   8.766 -0.2452 -0.2539  0.0139
  271loPI   C1B 4333   4.629   6.375  10.432 -0.0417 -0.0724  0.0439
  271loPI   C2B 4334   4.719   6.440   9.932 -0.2044  0.1288 -0.1117
  271loPI   C3B 4335   4.692   6.446   9.577 -0.1629 -0.0236 -0.1026
  271loPI   C4B 4336   4.798   6.549   9.165  0.2645 -0.1542  0.0257
  272loPI    C1 4337   9.390  12.128  11.338  0.2053 -0.0941  0.0127
  272loPI    C2 4338   9.360  11.921  11.679 -0.1914 -0.2055 -0.0850
  272loPI    C3 4339   9.405  12.318  11.690  0.1303 -0.2435  0.0978
  272loPI   PO4 4340   9.224  12.135  11.224  0.0622 -0.0375 -0.0141
  272loPI   GL1 4341   9.183  12.022  10.740 -0.1335  0.0804  0.2967
  272loPI   GL2 4342   9.139  12.302  10.729  0.1514  0.0413 -0.3065
  272loPI   C1A 4343   9.254  11.868  10.337  0.0982 -0.2641 -0.0980
  272loPI   C2A 4344   9.158  11.713   9.989 -0.2321  0.0466 -0.1326
  272loPI   C3A 4345   9.112  11.850   9.558  0.0093 -0.0789  0.0159
  272loPI   C4A 4346   9.061  11.876   9.127  0.0978 -0.1722  0.2761
  272loPI   C5A 4347   8.961  12.077   8.697 -0.1115  0.3573  0.0834
  272loPI   C6A 4348   8.688  12.375   8.551  0.2053  0.1659  0.2327
  272loPI   C1B 4349   8.898  12.263  10.396  0.1080  0.2908  0.0658
  272loPI   C2B 4350   8.965  12.219   9.909  0.2165 -0.1211 -0.0748
  272loPI   C3B 4351   9.016  12.358   9.508 -0.4935  0.0093 -0.1800
  272loPI   C4B 4352   8.978  12.372   9.191 -0.2639  0.3094 -0.0832
  273loPI    C1 4353  15.784  16.810  11.468 -0.0579  0.0982  0.2678
  273loPI    C2 4354  15.684  16.434  11.376  0.1563  0.0721  0.1356
  273loPI    C3 4355  15.740  16.538  11.758 -0.0292  0.0020  0.1826
  273loPI   PO4 4356  15.735  16.910  11.219 -0.0912 -0.1000  0.0971
  273loPI   GL1 4357  16.046  17.044  10.875  0.3118  0.1283 -0.1366
  273loPI   GL2 4358  15.989  17.270  10.843  0.0585 -0.1092 -0.0882
  273loPI   C1A 4359  16.355  17.053  10.505  0.1735 -0.1886  0.2843
  273loPI   C2A 4360  16.302  17.006  10.038 -0.0650  0.1529  0.2522
  273loPI   C3A 4361  16.296  17.046   9.571 -0.2449 -0.0066  0.1078
  273loPI   C4A 4362  16.331  17.112   9.080 -0.0661  0.0820  0.3539
  273loPI   C5A 4363  16.330  17.156   8.597 -0.0400  0.0801 -0.0324
  273loPI   C6A 4364  16.296  16.904   8.262 -0.0100  0.4690  0.0118
  273loPI   C1B 4365  15.865  17.154  10.378 -0.1453  0.0764 -0.2563
  273loPI   C2B 4366  15.784  17.129   9.895  0.0407  0.3547 -0.2596
  273loPI   C3B 4367  15.881  17.229   9.502 -0.3391  0.0223 -0.0643
  273loPI   C4B 4368  15.866  17.232   9.007 -0.0062 -0.0120  0.0720
  274loPI    C1 4369   2.010   5.243  11.779 -0.2984  0.0876  0.0965
  274loPI    C2 4370   2.000   5.620  11.913  0.0674  0.1097  0.0698
  274loPI    C3 4371   2.035   5.317  12.172  0.0364  0.1094  0.0736
  274loPI   PO4 4372   1.916   5.293  11.564  0.1238 -0.1416  0.3985
  274loPI   GL1 4373   1.855   5.217  11.118  0.1283 -0.0791 -0.2199
  274loPI   GL2 4374   2.097   5.267  10.913 -0.1279 -0.1695 -0.2506
  274loPI   C1A 4375   1.713   5.536  10.823  0.0946 -0.0028 -0.5100
  274loPI   C2A 4376   1.631   5.538  10.505  0.1973  0.4561 -0.5184
  274loPI   C3A 4377   1.733   5.489  10.129  0.1423 -0.2286 -0.2293
  274loPI   C4A 4378   1.759   5.595   9.691 -0.0037 -0.0804 -0.0010
  274loPI   C5A 4379   1.694   5.603   9.256  0.2192  0.0660 -0.0488
  274loPI   C6A 4380   1.658   5.273   8.904  0.2881  0.3313 -0.1576
  274loPI   C1B 4381   2.129   5.358  10.509  0.2145  0.2414 -0.4434
  274loPI   C2B 4382   2.207   5.344  10.033 -0.0474 -0.1505 -0.2300
  274loPI   C3B 4383   2.229   5.433   9.663  0.1226  0.0290 -0.2509
  274loPI   C4B 4384   2.156   5.489   9.283  0.2104 -0.0383 -0.1870
  275loPI    C1 4385  16.653   5.643  11.216 -0.1780  0.0126  0.1720
  275loPI    C2 4386  16.537   5.754  11.582 -0.0794 -0.1595  0.2571
  275loPI    C3 4387  16.921   5.669  11.512 -0.0328  0.2162  0.0256
  275loPI   PO4 4388  16.507   5.531  11.099 -0.4784 -0.1490 -0.4939
  275loPI   GL1 4389  16.451   5.492  10.626  0.2292 -0.0392  0.1887
  275loPI   GL2 4390  16.482   5.200  10.669  0.1429  0.0286  0.3204
  275loPI   C1A 4391  16.410   5.494  10.161  0.1724  0.0313 -0.1274
  275loPI   C2A 4392  16.530   5.489   9.685  0.1708  0.2981 -0.0909
  275loPI   C3A 4393  16.587   5.491   9.301 -0.2176  0.2536 -0.2608
  275loPI   C4A 4394  16.466   5.432   8.637  0.0037  0.4459 -0.0261
  275loPI   C5A 4395  16.679   5.558   8.227  0.1112 -0.1413  0.2892
  275loPI   C6A 4396  16.951   5.640   7.958 -0.2077 -0.3687  0.1392
  275loPI   C1B 4397  16.614   5.033  10.292 -0.0604 -0.1331 -0.2289
  275loPI   C2B 4398  16.648   4.915   9.909  0.1330 -0.0346  0.3309
  275loPI   C3B 4399  16.614   5.018   9.477 -0.1743  0.0975  0.1892
  275loPI   C4B 4400  16.574   5.069   8.981 -0.1493  0.1989 -0.1775
  276loPI    C1 4401   2.522   5.365  11.564 -0.1363  0.1946  0.1435
  276loPI    C2 4402   2.911   5.316  11.488 -0.2060 -0.1196 -0.0303
  276loPI    C3 4403   2.791   5.427  11.853  0.0365 -0.1678  0.0662
  276loPI   PO4 4404   2.400   5.550  11.295  0.2964 -0.0486 -0.0156
  276loPI   GL1 4405   2.453   5.720  10.911 -0.2408  0.0705  0.1357
  276loPI   GL2 4406   2.046   5.826  10.994  0.2545 -0.0501 -0.5982
  276loPI   C1A 4407   2.519   5.682  10.471 -0.2574 -0.4114  0.1644
  276loPI   C2A 4408   2.595   5.723  10.036  0.3454  0.1900  0.0850
  276loPI   C3A 4409   2.684   5.762   9.577  0.1345 -0.2103 -0.5740
  276loPI   C4A 4410   2.593   5.743   9.222  0.2252 -0.2098  0.1235
  276loPI   C5A 4411   2.394   5.732   8.800  0.2908 -0.0853 -0.1190
  276loPI   C6A 4412   1.940   5.629   8.705 -0.0637 -0.4176  0.5713
  276loPI   C1B 4413   2.010   5.866  10.612 -0.0084 -0.0183  0.1371
  276loPI   C2B 4414   2.104   5.873  10.134 -0.2001  0.3378 -0.2022
  276loPI   C3B 4415   2.153   5.984   9.624 -0.0049  0.0206 -0.1068
  276loPI   C4B 4416   2.174   5.991   9.173  0.0430 -0.1076  0.2573
  277loPI    C1 4417   8.627   9.611  10.788 -0.1926  0.0780 -0.1904
  277loPI    C2 4418   8.744   9.564  11.168 -0.3411  0.2037 -0.1280
  277loPI    C3 4419   8.981   9.442  10.870 -0.2364  0.0781  0.0048
  277loPI   PO4 4420   8.548   9.840  10.659  0.2640  0.2377 -0.1673
  277loPI   GL1 4421   8.373  10.092  10.449  0.2290  0.1991  0.0078
  277loPI   GL2 4422   8.084  10.050  10.452  0.1027 -0.0160  0.3453
  277loPI   C1A 4423   8.434  10.251  10.019 -0.2978 -0.0425  0.0614
  277loPI   C2A 4424   8.343  10.477   9.758  0.1869  0.1496  0.1815
  277loPI   C3A 4425   8.331  10.557   9.334 -0.0573  0.3011 -0.2264
  277loPI   C4A 4426   8.304  10.620   8.852 -0.0596 -0.1383 -0.1509
  277loPI   C5A 4427   8.616  10.744   8.660  0.0274 -0.2256 -0.1568
  277loPI   C6A 4428   8.821  10.755   8.246 -0.0238  0.0320 -0.1116
  277loPI   C1B 4429   7.948  10.085  10.063  0.1380 -0.1989  0.0494
  277loPI   C2B 4430   8.005  10.127   9.588  0.1741  0.0881 -0.2164
  277loPI   C3B 4431   8.067  10.074   9.152  0.2788  0.2706  0.0952
  277loPI   C4B 4432   8.393   9.872   8.892  0.1996 -0.0302  0.2703
  278loPI    C1 4433  14.162   0.314  11.176 -0.0691  0.1089  0.0676
  278loPI    C2 4434  14.517   0.373  11.351 -0.0886  0.1433  0.0957
  278loPI    C3 4435  14.182   0.388  11.568 -0.0772 -0.3281  0.1562
  278loPI   PO4 4436  14.131   0.492  11.044  0.1446 -0.1057 -0.1094
  278loPI   GL1 4437  14.061   0.437  10.542  0.0764 -0.1015 -0.1386
  278loPI   GL2 4438  13.811   0.578  10.336  0.1468  0.1448 -0.1262
  278loPI   C1A 4439  14.272   0.526  10.176 -0.0076  0.2061  0.0747
  278loPI   C2A 4440  14.276   0.570   9.719  0.1572  0.2301 -0.4578
  278loPI   C3A 4441  14.280   0.583   9.310  0.1253 -0.1787 -0.2715
  278loPI   C4A 4442  14.187   0.588   8.830 -0.3866  0.1485 -0.4858
  278loPI   C5A 4443  14.246   0.613   8.355  0.0826  0.2607 -0.3351
  278loPI   C6A 4444  14.334   0.941   8.272  0.1083  0.0880 -0.0131
  278loPI   C1B 4445  13.684   0.699   9.895 -0.0856  0.3399 -0.1482
  278loPI   C2B 4446  13.807   0.750   9.519  0.0442  0.0271  0.3179
  278loPI   C3B 4447  13.820   0.743   9.071 -0.1834  0.0599  0.1473
  278loPI   C4B 4448  13.731   0.706   8.635 -0.0966  0.0699 -0.1191
  279loPI    C1 4449   4.085  14.606  11.455  0.1418 -0.0236  0.0853
  279loPI    C2 4450   4.416  14.756  11.289  0.0971  0.1084  0.1145
  279loPI    C3 4451   4.409  14.670  11.680  0.1581 -0.0741  0.0762
  279loPI   PO4 4452   3.877  14.462  11.207 -0.0236 -0.0294  0.0824
  279loPI   GL1 4453   3.782  14.464  10.780 -0.1158  0.1460 -0.4636
  279loPI   GL2 4454   4.135  14.397  10.739 -0.2310 -0.4029  0.0143
  279loPI   C1A 4455   3.864  14.341  10.348 -0.1438 -0.1213  0.0561
  279loPI   C2A 4456   3.896  14.418   9.942 -0.0453 -0.0883  0.0090
  279loPI   C3A 4457   3.971  14.352   9.478 -0.3097  0.0200  0.4421
  279loPI   C4A 4458   3.961  14.414   9.058 -0.2273 -0.2520 -0.0084
  279loPI   C5A 4459   4.066  14.466   8.656 -0.0309 -0.0371  0.1290
  279loPI   C6A 4460   4.301  14.794   8.602  0.0544 -0.3198  0.0077
  279loPI   C1B 4461   4.188  14.738  10.404  0.0329 -0.3580 -0.1498
  279loPI   C2B 4462   4.278  14.740  10.023  0.0577  0.0719 -0.0479
  279loPI   C3B 4463   4.325  14.703   9.566 -0.1809  0.3716  0.2088
  279loPI   C4B 4464   4.373  14.849   9.097  0.0599 -0.3764  0.0918
  280loPI    C1 4465  15.128   4.139  11.362  0.1117 -0.1593 -0.0434
  280loPI    C2 4466  15.099   4.444  11.619  0.0583 -0.1381 -0.0742
  280loPI    C3 4467  15.406   4.188  11.645  0.1257 -0.0576 -0.0744
  280loPI   PO4 4468  14.991   4.158  11.096 -0.0406  0.1016 -0.0035
  280loPI   GL1 4469  14.974   3.995  10.717 -0.2609  0.2384  0.0431
  280loPI   GL2 4470  15.305   3.916  10.557 -0.2802  0.1106 -0.2057
  280loPI   C1A 4471  14.923   4.040  10.296  0.0440 -0.1072  0.0372
  280loPI   C2A 4472  14.954   4.093   9.859  0.0262  0.0890  0.0482
  280loPI   C3A 4473  14.948   4.200   9.509 -0.3074 -0.0006 -0.0092
  280loPI   C4A 4474  14.861   4.121   8.978 -0.0327 -0.2451  0.0042
  280loPI   C5A 4475  14.982   3.723   8.682  0.1281  0.1369 -0.0204
  280loPI   C6A 4476  14.858   3.317   8.326  0.1253 -0.3611 -0.0442
  280loPI   C1B 4477  15.425   3.989  10.207  0.0224  0.1073 -0.0682
  280loPI   C2B 4478  15.430   3.960   9.787  0.0238 -0.2567  0.1141
  280loPI   C3B 4479  15.487   3.890   9.394 -0.0521 -0.0152  0.1754
  280loPI   C4B 4480  15.417   3.990   8.956 -0.0438  0.0019  0.1413
  281loPI    C1 4481  13.013   4.694  10.899  0.0741 -0.1393  0.0332
  281loPI    C2 4482  12.790   4.848  11.193  0.1927  0.3130 -0.1062
  281loPI    C3 4483  13.141   4.676  11.277 -0.0563 -0.1216  0.0787
  281loPI   PO4 4484  12.855   4.546  10.776  0.0214 -0.2858  0.0099
  281loPI   GL1 4485  12.812   4.658  10.379  0.0936 -0.0066  0.2575
  281loPI   GL2 4486  13.160   4.781  10.342  0.2888 -0.0867 -0.2641
  281loPI   C1A 4487  12.844   4.705   9.983 -0.1110  0.2061 -0.2190
  281loPI   C2A 4488  12.926   4.796   9.603  0.0319  0.2567  0.2583
  281loPI   C3A 4489  12.881   4.696   9.237 -0.0100  0.1051 -0.0551
  281loPI   C4A 4490  12.972   4.788   8.804  0.1683 -0.2416 -0.0487
  281loPI   C5A 4491  13.152   4.636   8.463  0.1892 -0.0401  0.0139
  281loPI   C6A 4492  13.631   4.728   8.419 -0.0329  0.2225 -0.3247
  281loPI   C1B 4493  13.352   4.570  10.142 -0.1199 -0.1867  0.1727
  281loPI   C2B 4494  13.418   4.550   9.736  0.1070 -0.3056  0.0149
  281loPI   C3B 4495  13.363   4.602   9.328  0.1103  0.0293  0.3262
  281loPI   C4B 4496  13.419   4.652   8.923  0.0460 -0.2508  0.3420
  282loPI    C1 4497   9.257  17.514  11.151 -0.0777  0.0713  0.1213
  282loPI    C2 4498   9.114  17.146  11.089  0.0700 -0.0334  0.3822
  282loPI    C3 4499   9.330  17.224  11.416  0.3360  0.2004  0.1564
  282loPI   PO4 4500   9.313  17.628  10.910 -0.0330  0.0448 -0.2021
  282loPI   GL1 4501   9.393  17.722  10.547 -0.1521  0.0677 -0.1915
  282loPI   GL2 4502   9.456  17.387  10.506  0.1052  0.3131 -0.2010
  282loPI   C1A 4503   9.314  17.832  10.126 -0.0276 -0.1190 -0.1557
  282loPI   C2A 4504   9.289  17.856   9.756 -0.0187 -0.3768  0.2533
  282loPI   C3A 4505   9.121  18.020   9.309 -0.0270  0.0152 -0.1299
  282loPI   C4A 4506   9.091  17.952   8.937 -0.1240  0.3871 -0.0102
  282loPI   C5A 4507   9.195  18.029   8.552  0.0353  0.0608  0.0030
  282loPI   C6A 4508   9.189  18.458   8.387  0.1784 -0.0450 -0.3708
  282loPI   C1B 4509   9.430  17.361  10.114  0.5154  0.1548  0.1705
  282loPI   C2B 4510   9.322  17.315   9.655  0.2308 -0.0014 -0.0750
  282loPI   C3B 4511   9.299  17.363   9.234 -0.1967 -0.1166  0.1582
  282loPI   C4B 4512   9.349  17.390   8.732  0.1971  0.0951 -0.0796
  283loPI    C1 4513   7.313  12.257  11.294  0.0364  0.2645 -0.0282
  283loPI    C2 4514   7.432  12.605  11.451  0.1673  0.1258  0.1845
  283loPI    C3 4515   7.230  12.343  11.676  0.0818  0.0572  0.0291
  283loPI   PO4 4516   7.465  12.156  11.107 -0.0352  0.0973  0.2393
  283loPI   GL1 4517   7.698  12.023  10.765 -0.0375  0.0794 -0.0208
  283loPI   GL2 4518   7.586  11.798  10.615 -0.0085 -0.0899 -0.0131
  283loPI   C1A 4519   7.984  12.161  10.493  0.1346 -0.1913  0.0065
  283loPI   C2A 4520   8.074  12.172  10.049  0.0172  0.0506  0.1732
  283loPI   C3A 4521   8.105  12.104   9.558  0.0678  0.0609  0.0790
  283loPI   C4A 4522   8.115  12.050   9.217 -0.3071  0.0688 -0.0536
  283loPI   C5A 4523   8.039  12.267   8.797  0.0322  0.0963  0.0674
  283loPI   C6A 4524   8.222  12.578   8.556  0.0729 -0.3682  0.0479
  283loPI   C1B 4525   7.653  11.739  10.169  0.1500  0.1015  0.1187
  283loPI   C2B 4526   7.757  11.776   9.758 -0.2213 -0.3653 -0.1298
  283loPI   C3B 4527   7.697  11.776   9.275  0.1783  0.1421 -0.1082
  283loPI   C4B 4528   7.575  11.817   8.887  0.0578 -0.1114  0.0794
  284loPI    C1 4529  12.044   2.282  11.266  0.0132  0.1022 -0.3401
  284loPI    C2 4530  11.696   2.166  11.426  0.0546  0.2383 -0.1472
  284loPI    C3 4531  12.037   2.109  11.627  0.1510  0.0608 -0.3568
  284loPI   PO4 4532  12.097   2.145  11.001  0.0285 -0.2188 -0.1604
  284loPI   GL1 4533  12.172   2.280  10.574 -0.1630 -0.1129  0.2524
  284loPI   GL2 4534  11.943   2.108  10.557  0.2140  0.0945  0.0326
  284loPI   C1A 4535  12.550   2.116  10.278 -0.0445 -0.0313 -0.2156
  284loPI   C2A 4536  12.559   2.002   9.876 -0.0330  0.3427 -0.0899
  284loPI   C3A 4537  12.585   2.127   9.484  0.1524 -0.0333  0.1350
  284loPI   C4A 4538  12.547   2.039   9.114 -0.0239 -0.0194  0.0597
  284loPI   C5A 4539  12.546   2.093   8.765 -0.1574  0.1289 -0.0480
  284loPI   C6A 4540  12.581   1.902   8.390 -0.2596 -0.1952 -0.1745
  284loPI   C1B 4541  12.017   2.235  10.070  0.2711  0.1668  0.2125
  284loPI   C2B 4542  12.112   2.228   9.679  0.0825  0.3015 -0.1777
  284loPI   C3B 4543  12.089   2.302   9.215 -0.2987  0.0803  0.1558
  284loPI   C4B 4544  11.854   2.257   8.912 -0.1068 -0.1630 -0.0926
  285loPI    C1 4545   7.885  12.380  11.137  0.0961  0.0096  0.1816
  285loPI    C2 4546   8.253  12.285  11.014  0.0095  0.1900 -0.2342
  285loPI    C3 4547   8.016  12.003  11.170  0.2846  0.0515 -0.0581
  285loPI   PO4 4548   7.768  12.560  10.985  0.0231  0.1551 -0.0830
  285loPI   GL1 4549   7.579  12.549  10.625  0.0142 -0.2985 -0.2872
  285loPI   GL2 4550   7.575  12.843  10.575  0.0817 -0.0578  0.0340
  285loPI   C1A 4551   7.511  12.299  10.233  0.2657 -0.0476 -0.0395
  285loPI   C2A 4552   7.608  12.286   9.883 -0.2336  0.1307  0.0118
  285loPI   C3A 4553   7.578  12.337   9.447  0.0422 -0.0279  0.2048
  285loPI   C4A 4554   7.540  12.347   9.027 -0.4042 -0.0223  0.2654
  285loPI   C5A 4555   7.457  12.331   8.572 -0.1600  0.1490  0.0807
  285loPI   C6A 4556   7.823  12.418   8.244 -0.1562  0.1420  0.1361
  285loPI   C1B 4557   7.393  12.788  10.188 -0.0560 -0.1353 -0.2863
  285loPI   C2B 4558   7.381  12.801   9.750 -0.2745  0.2382  0.1821
  285loPI   C3B 4559   7.522  12.828   9.244 -0.0237  0.0273  0.1118
  285loPI   C4B 4560   7.350  12.848   8.759 -0.0299  0.0504 -0.0553
  286loPI    C1 4561   9.359   5.237  10.888  0.0211  0.0316  0.0634
  286loPI    C2 4562   9.363   5.595  11.066  0.4540  0.1130 -0.0968
  286loPI    C3 4563   9.568   5.290  11.225 -0.0646 -0.1252  0.1427
  286loPI   PO4 4564   9.343   5.236  10.560  0.1054  0.1482 -0.1925
  286loPI   GL1 4565   9.008   5.154  10.318  0.0678  0.1599  0.3288
  286loPI   GL2 4566   9.005   5.539  10.169 -0.1648  0.1899  0.1064
  286loPI   C1A 4567   9.115   5.054   9.872 -0.0221 -0.2183 -0.2327
  286loPI   C2A 4568   9.074   5.029   9.522 -0.1061 -0.1720  0.1360
  286loPI   C3A 4569   9.124   4.988   9.042  0.3248  0.0977  0.2019
  286loPI   C4A 4570   9.153   4.984   8.569 -0.0159 -0.0755  0.0573
  286loPI   C5A 4571   9.076   5.155   8.145 -0.0749 -0.0304 -0.1372
  286loPI   C6A 4572   8.740   5.449   8.104  0.2293 -0.1140 -0.0505
  286loPI   C1B 4573   8.890   5.510   9.713  0.0348 -0.2818 -0.1339
  286loPI   C2B 4574   9.006   5.512   9.278  0.2634 -0.0209 -0.3400
  286loPI   C3B 4575   8.983   5.514   8.850 -0.0160  0.0447 -0.0648
  286loPI   C4B 4576   9.147   5.507   8.477  0.0171  0.1859  0.1026
  287loPI    C1 4577  13.955   1.697  10.992 -0.1567  0.0353  0.0420
  287loPI    C2 4578  14.149   2.030  11.098 -0.2769  0.1149  0.0133
  287loPI    C3 4579  14.141   1.716  11.346 -0.0077  0.0656 -0.0372
  287loPI   PO4 4580  14.091   1.578  10.841 -0.1013  0.0139  0.2765
  287loPI   GL1 4581  14.068   1.476  10.430 -0.0967  0.2895 -0.0781
  287loPI   GL2 4582  13.857   1.684  10.445 -0.2572 -0.0202 -0.2410
  287loPI   C1A 4583  14.165   1.594  10.023  0.0574 -0.0470  0.0994
  287loPI   C2A 4584  14.197   1.651   9.507  0.0418 -0.2933 -0.3460
  287loPI   C3A 4585  14.075   1.503   9.166 -0.0509  0.0833  0.1299
  287loPI   C4A 4586  13.914   1.599   8.810 -0.0915  0.1002  0.2047
  287loPI   C5A 4587  13.842   1.421   8.424 -0.0440  0.3378 -0.0718
  287loPI   C6A 4588  13.786   1.069   8.241 -0.0724  0.0715  0.3121
  287loPI   C1B 4589  13.910   1.994  10.139 -0.3939  0.3645  0.0935
  287loPI   C2B 4590  13.864   1.903   9.738  0.1518  0.2458 -0.0734
  287loPI   C3B 4591  13.960   2.050   9.383  0.0207  0.1934 -0.1201
  287loPI   C4B 4592  13.960   2.092   8.892  0.3648 -0.2594  0.1258
  288loPI    C1 4593  17.575   1.038  11.286  0.1019 -0.2165 -0.0048
  288loPI    C2 4594  17.788   1.209  11.578 -0.3859  0.1589  0.1444
  288loPI    C3 4595  17.656   0.834  11.620 -0.1362  0.0796  0.2393
  288loPI   PO4 4596  17.626   1.050  11.069 -0.0520  0.2271  0.1175
  288loPI   GL1 4597  17.738   1.258  10.751  0.0048 -0.1666  0.3384
  288loPI   GL2 4598  17.662   1.554  10.688  0.0080  0.0651  0.0642
  288loPI   C1A 4599  17.844   1.284  10.226 -0.0399 -0.1210 -0.1147
  288loPI   C2A 4600  17.882   1.379   9.837  0.2354 -0.1926  0.1690
  288loPI   C3A 4601  17.977   1.341   9.480  0.0838  0.2048  0.0013
  288loPI   C4A 4602  17.927   1.290   9.120 -0.0632  0.1525  0.0693
  288loPI   C5A 4603  17.921   1.131   8.795  0.3521 -0.1463 -0.0617
  288loPI   C6A 4604  17.801   0.758   8.570 -0.1753  0.1572  0.0047
  288loPI   C1B 4605  17.767   1.766  10.348  0.0293 -0.0977  0.0337
  288loPI   C2B 4606  17.799   1.866   9.972 -0.2546  0.1456 -0.0267
  288loPI   C3B 4607  17.881   1.830   9.508 -0.1461  0.0323  0.4307
  288loPI   C4B 4608  17.818   1.774   9.106  0.1656  0.3178 -0.0287
  289loPI    C1 4609   6.314  15.562  11.235  0.0581 -0.1574  0.0133
  289loPI    C2 4610   6.126  15.262  11.049 -0.1381  0.0851 -0.1880
  289loPI    C3 4611   5.981  15.407  11.392 -0.1167  0.0374 -0.1586
  289loPI   PO4 4612   6.349  15.682  11.035 -0.0730 -0.0126 -0.0404
  289loPI   GL1 4613   6.468  15.930  10.756 -0.0266  0.0044 -0.0370
  289loPI   GL2 4614   6.258  15.912  10.529 -0.0316 -0.1751 -0.2244
  289loPI   C1A 4615   6.631  16.242  10.437  0.1119 -0.0205  0.0943
  289loPI   C2A 4616   6.734  16.244   9.951  0.2898 -0.1523  0.0621
  289loPI   C3A 4617   6.835  16.359   9.506  0.1879  0.4061 -0.2325
  289loPI   C4A 4618   6.897  16.337   9.080 -0.0297  0.0107 -0.0630
  289loPI   C5A 4619   6.807  16.432   8.710  0.1577  0.0731  0.0888
  289loPI   C6A 4620   6.563  16.386   8.246  0.0926 -0.1236 -0.2442
  289loPI   C1B 4621   6.314  15.971  10.062 -0.2191  0.3084  0.0733
  289loPI   C2B 4622   6.370  16.060   9.660 -0.1821  0.0213 -0.4623
  289loPI   C3B 4623   6.533  16.043   9.291 -0.1570 -0.0121 -0.0345
  289loPI   C4B 4624   6.481  16.078   8.788 -0.0802  0.0341  0.0301
  290loPI    C1 4625   0.607   7.602  11.362  0.0961  0.0441 -0.0489
  290loPI    C2 4626   0.697   7.878  11.638  0.0627  0.1958 -0.1887
  290loPI    C3 4627   0.976   7.756  11.379  0.1550 -0.1045  0.0461
  290loPI   PO4 4628   0.358   7.779  11.259  0.3134 -0.0844  0.3153
  290loPI   GL1 4629   0.237   8.054  10.922  0.0164  0.0133  0.0383
  290loPI   GL2 4630   0.194   7.892  10.759 -0.1339 -0.0094  0.2201
  290loPI   C1A 4631   0.604   8.153  10.581 -0.2166 -0.1655  0.3126
  290loPI   C2A 4632   0.703   8.200  10.159  0.0268 -0.0057 -0.0048
  290loPI   C3A 4633   0.708   8.141   9.802  0.0030 -0.1962 -0.0301
  290loPI   C4A 4634   0.566   8.235   9.429  0.1892  0.1287 -0.5060
  290loPI   C5A 4635   0.416   8.281   9.086 -0.3024 -0.0982  0.2626
  290loPI   C6A 4636   0.386   8.422   8.660 -0.2692  0.0549 -0.0203
  290loPI   C1B 4637   0.269   7.871  10.262 -0.0132 -0.3182 -0.1601
  290loPI   C2B 4638   0.288   8.000   9.844  0.1117  0.0628 -0.1144
  290loPI   C3B 4639   0.210   7.863   9.503 -0.0151  0.1307  0.1102
  290loPI   C4B 4640   0.056   7.924   9.124  0.1592 -0.3515  0.1561
  291loPI    C1 4641   3.590   7.834  11.631  0.1448 -0.1210  0.1493
  291loPI    C2 4642   3.387   7.928  11.962  0.1732  0.0887  0.1085
  291loPI    C3 4643   3.688   8.161  11.839  0.0870  0.0774 -0.1292
  291loPI   PO4 4644   3.441   7.780  11.440 -0.0014 -0.0034  0.0167
  291loPI   GL1 4645   3.186   7.802  11.072  0.1735  0.2924  0.0384
  291loPI   GL2 4646   3.306   7.505  11.042  0.2340 -0.0100  0.0467
  291loPI   C1A 4647   2.934   7.981  10.712  0.0678  0.0149 -0.0217
  291loPI   C2A 4648   3.002   7.925  10.221  0.0515 -0.0476 -0.1611
  291loPI   C3A 4649   3.090   7.988   9.846 -0.0663  0.1119 -0.1090
  291loPI   C4A 4650   3.076   8.103   9.501  0.1444  0.4235  0.0468
  291loPI   C5A 4651   2.995   7.885   9.212 -0.3403  0.0723  0.0382
  291loPI   C6A 4652   2.816   7.652   8.894 -0.1256  0.0619  0.0593
  291loPI   C1B 4653   3.040   7.454  10.656 -0.1466 -0.2021  0.1214
  291loPI   C2B 4654   2.985   7.449  10.272 -0.1262 -0.0358 -0.2455
  291loPI   C3B 4655   3.103   7.487   9.871 -0.1762 -0.2583 -0.1522
  291loPI   C4B 4656   3.159   7.460   9.425 -0.1440 -0.0608 -0.3051
  292loPI    C1 4657  13.952   5.581  11.214  0.0964 -0.1576 -0.1453
  292loPI    C2 4658  13.758   5.747  10.906  0.0821  0.0801 -0.0104
  292loPI    C3 4659  13.768   5.932  11.260  0.3071 -0.0721  0.0657
  292loPI   PO4 4660  14.177   5.517  11.121 -0.1682 -0.1569 -0.0519
  292loPI   GL1 4661  14.263   5.636  10.804 -0.1155 -0.1340 -0.4310
  292loPI   GL2 4662  14.132   5.405  10.607 -0.1279 -0.4627 -0.2955
  292loPI   C1A 4663  14.405   5.761  10.395 -0.3800  0.2263  0.1607
  292loPI   C2A 4664  14.586   5.534   9.995  0.2485 -0.0404 -0.1774
  292loPI   C3A 4665  14.624   5.645   9.550 -0.0610  0.2375 -0.1303
  292loPI   C4A 4666  14.745   5.618   9.147 -0.0898 -0.0260 -0.0768
  292loPI   C5A 4667  14.718   5.654   8.781  0.0381  0.1952 -0.1127
  292loPI   C6A 4668  14.667   5.736   8.306 -0.0502  0.0301  0.3169
  292loPI   C1B 4669  14.130   5.247  10.106 -0.1230  0.0374 -0.1766
  292loPI   C2B 4670  14.232   5.232   9.776  0.0167  0.2155 -0.2549
  292loPI   C3B 4671  14.179   5.239   9.393 -0.1365 -0.1780 -0.0200
  292loPI   C4B 4672  14.276   5.269   8.977 -0.2849  0.2844  0.0047
  293loPI    C1 4673  15.289   6.909  11.502  0.0609  0.2989 -0.1384
  293loPI    C2 4674  15.074   7.243  11.543  0.0176  0.2414  0.1166
  293loPI    C3 4675  15.402   7.188  11.765 -0.0588  0.0497  0.1838
  293loPI   PO4 4676  15.360   6.954  11.173  0.0837 -0.0589  0.1305
  293loPI   GL1 4677  15.428   6.843  10.752 -0.3206  0.0909  0.2621
  293loPI   GL2 4678  15.802   6.760  10.577 -0.3361  0.0166  0.0684
  293loPI   C1A 4679  15.355   6.454  10.541 -0.1318 -0.0100  0.0837
  293loPI   C2A 4680  15.384   6.476  10.082 -0.0843  0.1871  0.0562
  293loPI   C3A 4681  15.398   6.306   9.741  0.3202 -0.0092  0.0833
  293loPI   C4A 4682  15.480   6.366   9.327 -0.2191  0.1013  0.0502
  293loPI   C5A 4683  15.604   6.373   8.781  0.1351 -0.0833  0.0838
  293loPI   C6A 4684  15.392   6.443   8.404  0.0403 -0.1708 -0.2450
  293loPI   C1B 4685  15.804   6.707  10.078  0.1771  0.1892 -0.2546
  293loPI   C2B 4686  15.854   6.636   9.666 -0.3693  0.0281  0.1079
  293loPI   C3B 4687  15.807   6.764   9.241  0.1151  0.0867  0.1500
  293loPI   C4B 4688  15.928   6.813   8.795  0.1334  0.0350 -0.0658
  294loPI    C1 4689  14.961   3.363  11.479 -0.1434  0.0274  0.1306
  294loPI    C2 4690  15.155   3.699  11.578 -0.1557  0.0626  0.0358
  294loPI    C3 4691  15.096   3.414  11.853  0.2811 -0.0735 -0.0030
  294loPI   PO4 4692  15.028   3.245  11.120  0.0389 -0.1709 -0.1776
  294loPI   GL1 4693  15.325   3.296  10.791  0.1331  0.0381  0.1239
  294loPI   GL2 4694  15.442   3.037  10.638 -0.4746  0.1821  0.1581
  294loPI   C1A 4695  15.436   3.478  10.432 -0.0215  0.3465  0.1083
  294loPI   C2A 4696  15.648   3.484  10.089 -0.2974  0.2402 -0.1276
  294loPI   C3A 4697  15.584   3.456   9.677 -0.3299  0.5021  0.1142
  294loPI   C4A 4698  15.593   3.456   9.195 -0.1440 -0.2508  0.0899
  294loPI   C5A 4699  15.399   3.466   8.828 -0.2769  0.0667  0.1387
  294loPI   C6A 4700  15.516   3.345   8.491  0.1584 -0.0289 -0.0820
  294loPI   C1B 4701  15.554   2.949  10.239 -0.1279 -0.0566 -0.0345
  294loPI   C2B 4702  15.662   2.968   9.784  0.0646 -0.1639 -0.0393
  294loPI   C3B 4703  15.722   2.953   9.376  0.1410 -0.0293  0.0623
  294loPI   C4B 4704  15.621   2.993   8.859 -0.1802  0.1985  0.2493
  295loPI    C1 4705   0.198   2.794  11.146 -0.3041 -0.2421  0.1031
  295loPI    C2 4706  -0.057   3.073  11.277  0.1662  0.2386  0.0307
  295loPI    C3 4707   0.160   2.862  11.539 -0.3004 -0.1826  0.0932
  295loPI   PO4 4708   0.208   2.871  10.911  0.0566  0.1539  0.0843
  295loPI   GL1 4709   0.157   2.777  10.576  0.3196  0.2160 -0.0955
  295loPI   GL2 4710  -0.112   2.744  10.377  0.1925  0.1562  0.0426
  295loPI   C1A 4711   0.410   2.654  10.248  0.1684 -0.3149  0.0168
  295loPI   C2A 4712   0.493   2.711   9.813  0.0654 -0.0869 -0.0786
  295loPI   C3A 4713   0.410   2.709   9.429 -0.3854 -0.1872  0.1295
  295loPI   C4A 4714   0.409   2.746   8.925  0.0554  0.2166 -0.0568
  295loPI   C5A 4715   0.491   2.614   8.580 -0.1270 -0.2899 -0.0138
  295loPI   C6A 4716   0.881   2.312   8.476  0.1518 -0.1316 -0.3275
  295loPI   C1B 4717  -0.049   2.772   9.994 -0.2660  0.0154 -0.3574
  295loPI   C2B 4718  -0.068   2.854   9.649  0.0639 -0.0641  0.1215
  295loPI   C3B 4719  -0.089   2.891   9.161  0.1678  0.1951  0.0845
  295loPI   C4B 4720   0.001   2.853   8.633  0.2000 -0.0503 -0.0601
  296loPI    C1 4721  12.369  13.566  10.937 -0.1518 -0.2707 -0.1436
  296loPI    C2 4722  12.438  13.278  11.206 -0.2794  0.0126  0.2003
  296loPI    C3 4723  12.350  13.649  11.327  0.0431  0.2417 -0.2354
  296loPI   PO4 4724  12.181  13.453  10.694 -0.0205 -0.2037 -0.0663
  296loPI   GL1 4725  12.179  13.332  10.204  0.0561 -0.2393 -0.1731
  296loPI   GL2 4726  12.481  13.247  10.226  0.2953 -0.0538  0.0132
  296loPI   C1A 4727  12.122  13.340   9.782  0.0722  0.1457  0.0520
  296loPI   C2A 4728  12.115  13.186   9.324 -0.0856 -0.0886  0.3466
  296loPI   C3A 4729  12.181  13.269   8.895 -0.1260  0.1719  0.0186
  296loPI   C4A 4730  12.135  13.263   8.448 -0.0817  0.1209  0.0177
  296loPI   C5A 4731  12.106  12.828   8.198  0.1844 -0.0080  0.2657
  296loPI   C6A 4732  11.835  12.526   8.181  0.0940  0.2519  0.0200
  296loPI   C1B 4733  12.537  13.147   9.752  0.3139 -0.0430  0.0889
  296loPI   C2B 4734  12.582  13.135   9.381  0.0241 -0.0712  0.0003
  296loPI   C3B 4735  12.618  13.098   8.960  0.0070 -0.1421  0.1918
  296loPI   C4B 4736  12.655  13.100   8.509  0.1267 -0.2321  0.0643
  297loPI    C1 4737   6.943   5.492  11.206 -0.2222 -0.1759 -0.1163
  297loPI    C2 4738   6.875   5.261  11.526 -0.0150  0.0274  0.0777
  297loPI    C3 4739   6.696   5.617  11.495 -0.0309  0.0102 -0.0310
  297loPI   PO4 4740   6.958   5.345  11.028  0.1842 -0.1966  0.2128
  297loPI   GL1 4741   6.933   5.327  10.629 -0.1790 -0.1769  0.2078
  297loPI   GL2 4742   6.950   5.662  10.607  0.1905  0.1927 -0.3412
  297loPI   C1A 4743   6.682   5.348  10.327 -0.3709  0.2362 -0.2887
  297loPI   C2A 4744   6.747   5.300   9.953  0.0344 -0.0057 -0.0123
  297loPI   C3A 4745   6.751   5.255   9.485  0.0406 -0.1537  0.0805
  297loPI   C4A 4746   6.658   5.333   9.038  0.1222 -0.0117 -0.0126
  297loPI   C5A 4747   6.348   5.391   8.694 -0.1920  0.0738  0.1662
  297loPI   C6A 4748   6.406   5.347   8.297  0.0918 -0.0874  0.3865
  297loPI   C1B 4749   7.041   5.656  10.152 -0.2450  0.0102 -0.2991
  297loPI   C2B 4750   7.113   5.631   9.672  0.1323 -0.1245 -0.2625
  297loPI   C3B 4751   7.123   5.613   9.273 -0.4434 -0.1482  0.0724
  297loPI   C4B 4752   7.085   5.716   8.784 -0.0685  0.2540 -0.0691
  298loPI    C1 4753   4.820   7.301  11.240 -0.0088  0.1467  0.1252
  298loPI    C2 4754   4.433   7.399  11.250 -0.1091 -0.2288  0.0684
  298loPI    C3 4755   4.610   7.253  11.577 -0.0278 -0.1074  0.0791
  298loPI   PO4 4756   4.863   7.272  11.041  0.4100  0.1509 -0.1640
  298loPI   GL1 4757   5.054   7.005  10.722 -0.2732 -0.4460 -0.0994
  298loPI   GL2 4758   4.897   6.695  10.697 -0.3036  0.0851  0.4233
  298loPI   C1A 4759   5.033   7.306  10.280  0.3275 -0.1137 -0.0353
  298loPI   C2A 4760   4.889   7.305   9.792 -0.0932  0.0671  0.2212
  298loPI   C3A 4761   5.007   7.349   9.409 -0.1577 -0.2554  0.2855
  298loPI   C4A 4762   4.914   7.411   9.089 -0.0603  0.0224  0.2181
  298loPI   C5A 4763   5.036   7.646   8.785 -0.2044 -0.1271 -0.1462
  298loPI   C6A 4764   4.890   7.772   8.347 -0.0571  0.0388 -0.0301
  298loPI   C1B 4765   5.071   6.767  10.279 -0.4116  0.0510  0.3774
  298loPI   C2B 4766   5.076   6.840   9.873  0.1012  0.1101  0.1505
  298loPI   C3B 4767   5.045   6.791   9.488  0.2271  0.0326  0.0706
  298loPI   C4B 4768   5.052   6.968   8.989  0.0804  0.0624  0.0414
  299loPI    C1 4769   1.714  13.205  11.517 -0.0395  0.0713  0.0696
  299loPI    C2 4770   1.433  13.226  11.802  0.1468  0.3708  0.2366
  299loPI    C3 4771   1.755  12.994  11.855 -0.0700  0.0155  0.0387
  299loPI   PO4 4772   1.525  13.161  11.263 -0.4239  0.0337  0.0267
  299loPI   GL1 4773   1.673  13.016  10.838 -0.0360 -0.0798 -0.0851
  299loPI   GL2 4774   1.567  12.805  10.531 -0.1534  0.1693 -0.1520
  299loPI   C1A 4775   1.866  13.187  10.425  0.1368 -0.1190  0.1976
  299loPI   C2A 4776   1.961  13.166  10.105  0.1741  0.1203  0.0658
  299loPI   C3A 4777   1.949  13.149   9.707  0.1897  0.0867  0.2039
  299loPI   C4A 4778   1.905  13.230   9.229 -0.1280  0.1760 -0.0392
  299loPI   C5A 4779   1.747  13.036   8.852  0.3593 -0.1359 -0.0162
  299loPI   C6A 4780   1.420  12.911   8.638 -0.0377 -0.0855  0.0804
  299loPI   C1B 4781   1.518  12.859  10.165  0.1471 -0.0566 -0.1635
  299loPI   C2B 4782   1.466  12.922   9.819 -0.2765  0.1910 -0.2142
  299loPI   C3B 4783   1.607  12.903   9.431  0.1250  0.0217 -0.0268
  299loPI   C4B 4784   1.428  12.669   9.125 -0.2921 -0.0414  0.0562
  300loPI    C1 4785   7.314  13.928  11.471  0.2462 -0.0312  0.2272
  300loPI    C2 4786   7.088  13.738  11.741  0.1119 -0.1120  0.0599
  300loPI    C3 4787   7.308  14.053  11.851 -0.1115 -0.0086  0.2175
  300loPI   PO4 4788   7.148  13.792  11.213  0.0871  0.2443  0.3921
  300loPI   GL1 4789   7.267  13.672  10.783 -0.1792 -0.1210 -0.1143
  300loPI   GL2 4790   7.530  13.474  10.796  0.1010  0.0573 -0.1369
  300loPI   C1A 4791   7.302  13.760  10.358 -0.3615  0.0399  0.0137
  300loPI   C2A 4792   7.227  13.768   9.901 -0.0767 -0.0207  0.0513
  300loPI   C3A 4793   7.247  13.837   9.403 -0.1443  0.1938  0.1277
  300loPI   C4A 4794   7.236  13.790   8.953  0.2512 -0.2860 -0.0300
  300loPI   C5A 4795   6.989  13.845   8.550  0.1027 -0.0987  0.2621
  300loPI   C6A 4796   6.958  13.534   8.204 -0.1938 -0.0560  0.3221
  300loPI   C1B 4797   7.520  13.338  10.401  0.3699 -0.1440  0.2903
  300loPI   C2B 4798   7.318  13.295   9.986  0.1516  0.1047  0.0197
  300loPI   C3B 4799   7.403  13.248   9.472 -0.0868 -0.0149  0.0017
  300loPI   C4B 4800   7.354  13.293   9.000 -0.0552 -0.1244  0.1000
  301loPI    C1 4801  13.157   9.228  11.009  0.0999 -0.0938  0.0521
  301loPI    C2 4802  13.165   8.887  11.217 -0.1269 -0.0211  0.1833
  301loPI    C3 4803  12.815   9.064  11.137 -0.0412 -0.0333 -0.2395
  301loPI   PO4 4804  13.339   9.277  10.782 -0.1400  0.1091  0.2219
  301loPI   GL1 4805  13.274   9.209  10.420 -0.1238 -0.0511 -0.1643
  301loPI   GL2 4806  13.043   9.143  10.213 -0.4398 -0.1337  0.2560
  301loPI   C1A 4807  13.622   9.262  10.054  0.1155 -0.0740 -0.0700
  301loPI   C2A 4808  13.676   9.424   9.689  0.2500 -0.1664 -0.0239
  301loPI   C3A 4809  13.663   9.790   9.353 -0.0014  0.1200  0.0797
  301loPI   C4A 4810  13.766   9.814   9.059  0.3203  0.1166 -0.0831
  301loPI   C5A 4811  13.592   9.959   8.680 -0.1362  0.1116  0.1116
  301loPI   C6A 4812  13.505   9.862   8.239 -0.3276  0.0787 -0.1781
  301loPI   C1B 4813  13.186   9.384   9.835  0.0825 -0.0708 -0.0203
  301loPI   C2B 4814  13.253   9.376   9.350  0.2910  0.1644 -0.3792
  301loPI   C3B 4815  13.411   9.367   8.959  0.2522 -0.1501  0.0188
  301loPI   C4B 4816  13.587   9.502   8.658  0.1139  0.0772  0.2905
  302loPI    C1 4817  10.105   8.820  10.563  0.0660  0.0613  0.0137
  302loPI    C2 4818  10.333   8.616  10.819 -0.0961 -0.2321 -0.0715
  302loPI    C3 4819  10.143   8.946  10.940  0.0383 -0.2203  0.1122
  302loPI   PO4 4820  10.240   8.889  10.345 -0.3168 -0.0019 -0.1851
  302loPI   GL1 4821  10.292   8.851   9.996 -0.2818 -0.0174  0.0739
  302loPI   GL2 4822  10.067   8.546  10.004  0.0289 -0.0661 -0.0011
  302loPI   C1A 4823  10.457   8.938   9.604  0.0355  0.2001 -0.1018
  302loPI   C2A 4824  10.516   8.989   9.194 -0.4846  0.0686  0.1598
  302loPI   C3A 4825  10.533   9.142   8.806  0.2106 -0.0727  0.0383
  302loPI   C4A 4826  10.292   9.153   8.434 -0.0820  0.0777  0.1790
  302loPI   C5A 4827  10.203   8.885   8.071 -0.1549  0.0638 -0.2012
  302loPI   C6A 4828   9.847   8.777   7.772 -0.0610  0.0991 -0.1518
  302loPI   C1B 4829  10.212   8.504   9.628  0.0512  0.0899 -0.0876
  302loPI   C2B 4830  10.398   8.490   9.243  0.3007 -0.0285  0.3018
  302loPI   C3B 4831  10.403   8.477   8.819  0.0181 -0.3409  0.1199
  302loPI   C4B 4832  10.282   8.645   8.533  0.2601 -0.0994  0.1949
  303loPI    C1 4833  11.824  15.408  10.915  0.1907 -0.0432 -0.1685
  303loPI    C2 4834  11.865  15.661  11.223  0.1250  0.1298 -0.3000
  303loPI    C3 4835  11.541  15.428  11.197  0.1647  0.0630 -0.2014
  303loPI   PO4 4836  11.857  15.533  10.617 -0.2176 -0.2160  0.0097
  303loPI   GL1 4837  11.952  15.304  10.244 -0.0987  0.1515  0.0902
  303loPI   GL2 4838  11.669  15.169  10.361  0.2223 -0.0082  0.1302
  303loPI   C1A 4839  12.028  15.220   9.813 -0.1592  0.3351  0.0849
  303loPI   C2A 4840  12.080  15.116   9.413  0.3273  0.2194 -0.1366
  303loPI   C3A 4841  12.163  15.128   8.993 -0.0470 -0.0905 -0.0719
  303loPI   C4A 4842  12.337  15.225   8.537 -0.3049 -0.0931  0.1474
  303loPI   C5A 4843  12.635  15.535   8.374 -0.3338 -0.0352  0.0694
  303loPI   C6A 4844  12.434  15.886   8.306  0.0014  0.0410 -0.1852
  303loPI   C1B 4845  11.537  15.175   9.948 -0.3482 -0.1806 -0.0544
  303loPI   C2B 4846  11.572  15.194   9.625  0.3815 -0.0500 -0.0947
  303loPI   C3B 4847  11.608  15.257   9.226 -0.0318 -0.0881 -0.0058
  303loPI   C4B 4848  11.686  15.259   8.828 -0.2463 -0.1814  0.0412
  304loPI    C1 4849   0.722   2.678  11.577 -0.1747  0.2276  0.0153
  304loPI    C2 4850   0.491   2.719  11.901  0.0044  0.1504  0.1545
  304loPI    C3 4851   0.882   2.802  11.923  0.0898 -0.2054  0.0568
  304loPI   PO4 4852   0.702   2.802  11.394  0.3020 -0.1184 -0.1143
  304loPI   GL1 4853   0.727   2.833  11.035 -0.0408  0.2286 -0.2129
  304loPI   GL2 4854   1.060   2.823  10.979  0.3389 -0.2018  0.1011
  304loPI   C1A 4855   0.768   3.037  10.566  0.0964  0.0921 -0.1070
  304loPI   C2A 4856   0.848   3.043  10.079 -0.1004  0.1191  0.1545
  304loPI   C3A 4857   0.737   3.052   9.570  0.0101 -0.2056 -0.1901
  304loPI   C4A 4858   0.757   3.104   9.117  0.1429 -0.0522 -0.0905
  304loPI   C5A 4859   0.739   3.085   8.754  0.2551  0.0034 -0.1178
  304loPI   C6A 4860   0.457   3.144   8.459  0.2289  0.0438 -0.3452
  304loPI   C1B 4861   1.189   2.832  10.555  0.1375  0.0703 -0.0640
  304loPI   C2B 4862   1.367   2.863  10.143  0.2034  0.2547 -0.0715
  304loPI   C3B 4863   1.219   2.869   9.749 -0.2458  0.1061 -0.1152
  304loPI   C4B 4864   1.248   2.916   9.308 -0.2894  0.1518 -0.2390
  305loPI    C1 4865   0.190   5.301  11.915  0.2128 -0.0279 -0.0217
  305loPI    C2 4866  -0.033   5.082  12.163  0.1109 -0.1294 -0.2005
  305loPI    C3 4867  -0.093   5.477  12.136  0.0826 -0.1270 -0.1078
  305loPI   PO4 4868   0.191   5.139  11.694  0.0716  0.1654 -0.0996
  305loPI   GL1 4869   0.342   4.942  11.217 -0.4101 -0.2912 -0.1568
  305loPI   GL2 4870   0.568   5.213  11.240 -0.4116  0.1021  0.2836
  305loPI   C1A 4871   0.275   5.024  10.832 -0.0140  0.0377 -0.1994
  305loPI   C2A 4872   0.309   4.968  10.381 -0.2340 -0.1041 -0.0444
  305loPI   C3A 4873   0.389   4.992   9.807 -0.0274  0.1701  0.0083
  305loPI   C4A 4874   0.531   5.162   9.323  0.1860 -0.1492  0.3276
  305loPI   C5A 4875   0.797   5.303   9.146 -0.0307 -0.0118  0.1484
  305loPI   C6A 4876   1.130   5.337   8.851  0.0972 -0.0498 -0.1191
  305loPI   C1B 4877   0.801   5.308  10.790 -0.1574  0.1431  0.1901
  305loPI   C2B 4878   0.625   5.322  10.491  0.2367 -0.1054  0.1543
  305loPI   C3B 4879   0.739   5.369  10.022 -0.0487 -0.0718  0.1682
  305loPI   C4B 4880   0.827   5.373   9.722  0.1503 -0.0814  0.1419
  306loPI    C1 4881   4.595   8.265  11.525  0.0298  0.1064 -0.0082
  306loPI    C2 4882   4.928   8.155  11.717  0.1402  0.2258 -0.1292
  306loPI    C3 4883   4.769   8.517  11.782 -0.0760  0.0975  0.0729
  306loPI   PO4 4884   4.637   8.212  11.197 -0.0473 -0.1965 -0.1645
  306loPI   GL1 4885   4.606   8.405  10.828 -0.1156  0.2448  0.2796
  306loPI   GL2 4886   4.887   8.361  10.807  0.0219  0.2060  0.4176
  306loPI   C1A 4887   4.331   8.491  10.491 -0.2382  0.2108  0.3011
  306loPI   C2A 4888   4.334   8.490  10.033  0.2620  0.2039  0.0245
  306loPI   C3A 4889   4.289   8.604   9.665 -0.2884 -0.0234  0.0894
  306loPI   C4A 4890   4.250   8.570   9.248 -0.1535 -0.3634 -0.0371
  306loPI   C5A 4891   4.163   8.517   8.898  0.3506 -0.1836  0.0589
  306loPI   C6A 4892   3.976   8.578   8.582 -0.0240  0.1444 -0.1676
  306loPI   C1B 4893   4.801   8.378  10.367  0.5258  0.1092  0.0820
  306loPI   C2B 4894   4.826   8.350   9.917  0.3872 -0.3344 -0.0711
  306loPI   C3B 4895   4.820   8.349   9.417  0.0363 -0.1913 -0.0795
  306loPI   C4B 4896   4.664   8.452   9.006  0.0110 -0.3249 -0.4711
  307loPI    C1 4897  17.000  16.011  11.457 -0.0521 -0.0188 -0.0076
  307loPI    C2 4898  17.369  16.129  11.557  0.0188 -0.0917 -0.1783
  307loPI    C3 4899  17.170  15.874  11.793  0.1387 -0.1735 -0.1648
  307loPI   PO4 4900  17.131  15.957  11.118  0.1354  0.1158 -0.1921
  307loPI   GL1 4901  16.959  16.108  10.819 -0.2093 -0.4268 -0.2940
  307loPI   GL2 4902  16.798  16.319  10.622  0.0372 -0.0846  0.2276
  307loPI   C1A 4903  16.928  15.891  10.437 -0.1639  0.0969 -0.2373
  307loPI   C2A 4904  17.053  15.843  10.040  0.0900  0.1820  0.1519
  307loPI   C3A 4905  17.025  15.796   9.635 -0.1873 -0.0115  0.0615
  307loPI   C4A 4906  17.039  15.873   9.202 -0.0281 -0.0582 -0.2808
  307loPI   C5A 4907  17.226  15.809   8.772  0.2615  0.1231  0.3580
  307loPI   C6A 4908  17.691  15.670   8.623  0.1519  0.0035 -0.0747
  307loPI   C1B 4909  16.899  16.377  10.131  0.0603 -0.2064 -0.2558
  307loPI   C2B 4910  16.976  16.354   9.647 -0.3639  0.2799  0.2014
  307loPI   C3B 4911  16.957  16.402   9.277 -0.0918  0.0246  0.1189
  307loPI   C4B 4912  17.057  16.254   8.923 -0.3026  0.0200  0.4022
  308loPI    C1 4913  12.408   4.548  11.033  0.1375  0.0961 -0.1839
  308loPI    C2 4914  12.667   4.376  11.285  0.0597  0.0161 -0.1584
  308loPI    C3 4915  12.341   4.559  11.427  0.0803  0.0800 -0.1932
  308loPI   PO4 4916  12.284   4.419  10.843 -0.0343 -0.2255  0.1338
  308loPI   GL1 4917  12.474   4.323  10.553  0.0902 -0.4927  0.4247
  308loPI   GL2 4918  12.329   4.030  10.516  0.0675  0.0824 -0.1163
  308loPI   C1A 4919  12.545   4.313  10.125 -0.0057  0.0424 -0.0524
  308loPI   C2A 4920  12.579   4.349   9.750 -0.0554 -0.0167  0.1429
  308loPI   C3A 4921  12.510   4.332   9.313  0.2908  0.0380 -0.2537
  308loPI   C4A 4922  12.585   4.435   8.892 -0.0066 -0.0716  0.0497
  308loPI   C5A 4923  12.673   4.446   8.555 -0.2387  0.3449 -0.2830
  308loPI   C6A 4924  12.449   4.490   8.135 -0.0941  0.0347  0.0097
  308loPI   C1B 4925  12.469   3.860  10.232 -0.2220  0.1168 -0.1452
  308loPI   C2B 4926  12.676   3.838   9.888 -0.0931  0.0538 -0.2443
  308loPI   C3B 4927  12.624   3.850   9.447 -0.1995  0.1809  0.1191
  308loPI   C4B 4928  12.633   3.901   8.974  0.2003 -0.2200 -0.1036
  309loPI    C1 4929  11.890  10.396  10.707 -0.4888  0.4475 -0.0595
  309loPI    C2 4930  11.629  10.386  10.404 -0.3069 -0.0970 -0.2104
  309loPI    C3 4931  11.618  10.104  10.688 -0.0450  0.0208 -0.0786
  309loPI   PO4 4932  12.174  10.423  10.626 -0.0127 -0.3825 -0.0622
  309loPI   GL1 4933  12.521  10.433  10.303  0.1543 -0.0085 -0.2007
  309loPI   GL2 4934  12.530  10.053  10.330  0.2388 -0.0171  0.1562
  309loPI   C1A 4935  12.469  10.654   9.922 -0.1527  0.0869  0.1698
  309loPI   C2A 4936  12.424  10.671   9.507 -0.0036  0.2373 -0.1396
  309loPI   C3A 4937  12.601  10.650   9.096  0.0478  0.3052  0.0173
  309loPI   C4A 4938  12.793  10.646   8.751  0.0463  0.1636  0.0660
  309loPI   C5A 4939  13.045  10.762   8.291  0.3756  0.0699 -0.1550
  309loPI   C6A 4940  13.254  10.854   8.004  0.1225  0.1151 -0.1481
  309loPI   C1B 4941  12.669  10.093   9.864 -0.2148 -0.0475  0.0932
  309loPI   C2B 4942  12.662  10.052   9.375 -0.1578 -0.0420 -0.0277
  309loPI   C3B 4943  12.720  10.106   8.968 -0.1752  0.1737  0.1619
  309loPI   C4B 4944  12.617  10.172   8.643 -0.0126  0.0237 -0.1141
  310loPI    C1 4945  13.938  11.878  11.289  0.0486  0.0267  0.0576
  310loPI    C2 4946  13.998  12.061  11.639  0.0921 -0.1234  0.1297
  310loPI    C3 4947  13.691  11.809  11.595  0.0729 -0.0869  0.0519
  310loPI   PO4 4948  13.966  12.080  11.147  0.0885  0.1542  0.0460
  310loPI   GL1 4949  14.005  12.063  10.680 -0.2931 -0.2768  0.0177
  310loPI   GL2 4950  13.687  12.180  10.694 -0.0351  0.0675  0.1223
  310loPI   C1A 4951  14.155  12.062  10.242  0.1396  0.0758  0.1840
  310loPI   C2A 4952  14.159  12.156   9.769 -0.0572 -0.0909  0.2262
  310loPI   C3A 4953  14.207  12.129   9.421  0.0591 -0.1645 -0.1912
  310loPI   C4A 4954  14.126  12.109   9.021 -0.4146  0.0152  0.1947
  310loPI   C5A 4955  13.967  12.051   8.584 -0.0359  0.1547 -0.1421
  310loPI   C6A 4956  13.602  12.045   8.431 -0.0815  0.4987  0.2130
  310loPI   C1B 4957  13.628  12.221  10.236  0.2386 -0.0995  0.0350
  310loPI   C2B 4958  13.578  12.292   9.755 -0.2294  0.3239  0.0835
  310loPI   C3B 4959  13.712  12.236   9.257 -0.0178 -0.0525  0.0057
  310loPI   C4B 4960  13.661  12.275   8.872 -0.1138 -0.1730  0.0354
  311loPI    C1 4961  15.258  13.894  11.383  0.1320  0.0806  0.0300
  311loPI    C2 4962  15.094  14.230  11.525  0.0727  0.0884 -0.0559
  311loPI    C3 4963  15.438  14.096  11.677  0.0518  0.1409  0.0383
  311loPI   PO4 4964  15.213  13.907  11.075 -0.2322 -0.0414  0.4082
  311loPI   GL1 4965  15.166  14.245  10.808 -0.0709  0.3183  0.2122
  311loPI   GL2 4966  15.487  14.133  10.688 -0.1447 -0.0526 -0.1255
  311loPI   C1A 4967  15.005  14.105  10.388 -0.1292  0.4268  0.2492
  311loPI   C2A 4968  14.987  14.174   9.912  0.2074 -0.1114 -0.1442
  311loPI   C3A 4969  15.111  14.198   9.529 -0.1316  0.2028 -0.2201
  311loPI   C4A 4970  15.182  14.260   9.095  0.2049  0.0547 -0.1842
  311loPI   C5A 4971  15.223  14.200   8.706  0.2007 -0.3445 -0.2088
  311loPI   C6A 4972  15.089  13.964   8.299 -0.0282  0.0249 -0.3476
  311loPI   C1B 4973  15.513  14.094  10.313 -0.2680  0.0018  0.1118
  311loPI   C2B 4974  15.518  14.070   9.851  0.0331  0.1076  0.1484
  311loPI   C3B 4975  15.572  14.083   9.355  0.2616 -0.2634 -0.3457
  311loPI   C4B 4976  15.677  14.071   8.934  0.1709  0.0990 -0.0970
  312loPI    C1 4977  10.982   1.081  11.329  0.1625 -0.1407  0.0387
  312loPI    C2 4978  11.324   0.963  11.500  0.0987  0.0801  0.3261
  312loPI    C3 4979  10.977   0.917  11.694 -0.0407 -0.1643  0.0265
  312loPI   PO4 4980  10.996   0.965  11.087  0.0348  0.0477 -0.2918
  312loPI   GL1 4981  11.109   0.838  10.739  0.1917  0.1861  0.0073
  312loPI   GL2 4982  11.212   1.099  10.549 -0.0392 -0.3851 -0.2705
  312loPI   C1A 4983  11.031   0.645  10.336  0.1093 -0.4633 -0.3270
  312loPI   C2A 4984  10.997   0.697   9.915  0.0840  0.2032 -0.1256
  312loPI   C3A 4985  10.935   0.753   9.404 -0.2382  0.0800  0.0944
  312loPI   C4A 4986  11.048   0.717   8.916  0.1626 -0.0571  0.1911
  312loPI   C5A 4987  10.866   0.481   8.477 -0.0339 -0.1884  0.1587
  312loPI   C6A 4988  10.689   0.126   8.364  0.1329  0.0026  0.3540
  312loPI   C1B 4989  11.354   0.989  10.183  0.1009 -0.3051 -0.0720
  312loPI   C2B 4990  11.294   1.125   9.743 -0.0217  0.4591 -0.1613
  312loPI   C3B 4991  11.311   1.073   9.321  0.1383 -0.0273  0.4309
  312loPI   C4B 4992  11.336   1.127   8.933  0.1161 -0.1183 -0.0746
  313loPI    C1 4993  11.854   4.732  10.816  0.2045 -0.1538 -0.0684
  313loPI    C2 4994  12.071   4.890  11.112 -0.2734  0.0558  0.1827
  313loPI    C3 4995  11.904   4.530  11.158  0.0754 -0.1415 -0.0417
  313loPI   PO4 4996  11.963   4.773  10.607  0.2415 -0.0683  0.0998
  313loPI   GL1 4997  12.188   4.621  10.218  0.0250  0.0706  0.0222
  313loPI   GL2 4998  12.023   4.410  10.299 -0.3714 -0.1730  0.0904
  313loPI   C1A 4999  12.067   4.509   9.783  0.0933  0.1191  0.2135
  313loPI   C2A 5000  11.954   4.570   9.330 -0.2226 -0.0400  0.1956
  313loPI   C3A 5001  12.106   4.525   8.956  0.2190  0.0168 -0.1147
  313loPI   C4A 5002  12.234   4.622   8.502 -0.0278 -0.0928  0.0547
  313loPI   C5A 5003  11.993   4.666   8.116 -0.3320 -0.1457  0.3432
  313loPI   C6A 5004  11.885   5.096   7.830  0.0822  0.0446  0.3155
  313loPI   C1B 5005  12.044   4.113   9.969 -0.2570  0.1912  0.2371
  313loPI   C2B 5006  12.187   4.038   9.558  0.0769  0.0270  0.0533
  313loPI   C3B 5007  12.106   4.080   9.207  0.2952 -0.1716 -0.3091
  313loPI   C4B 5008  12.145   4.103   8.796 -0.2267  0.0279  0.0420
  314loPI    C1 5009   4.274  13.515  11.077 -0.1056  0.1075  0.0716
  314loPI    C2 5010   4.542  13.642  11.345  0.0399 -0.0044 -0.0192
  314loPI    C3 5011   4.312  13.326  11.428  0.0314  0.0079  0.0044
  314loPI   PO4 5012   4.394  13.649  10.859 -0.0676  0.1372  0.3110
  314loPI   GL1 5013   4.616  13.592  10.517  0.1577  0.0341 -0.0023
  314loPI   GL2 5014   4.913  13.408  10.572 -0.1102  0.1392  0.0126
  314loPI   C1A 5015   4.521  13.668  10.050  0.1243  0.1315 -0.0621
  314loPI   C2A 5016   4.574  13.700   9.603 -0.0317  0.2866 -0.0618
  314loPI   C3A 5017   4.562  13.760   9.191 -0.1268  0.2009  0.0544
  314loPI   C4A 5018   4.640  13.743   8.778 -0.1300 -0.1635  0.1316
  314loPI   C5A 5019   4.868  13.563   8.554 -0.1909  0.0313  0.1278
  314loPI   C6A 5020   5.211  13.797   8.341 -0.0962 -0.2013 -0.1731
  314loPI   C1B 5021   5.004  13.550  10.167  0.0812  0.0698 -0.1629
  314loPI   C2B 5022   5.063  13.553   9.745  0.0896 -0.0405  0.0466
  314loPI   C3B 5023   5.053  13.531   9.403 -0.3086  0.4101  0.2294
  314loPI   C4B 5024   5.066  13.559   9.002 -0.0308 -0.2705 -0.3015
  315loPI    C1 5025  10.794  17.094  11.232  0.1080 -0.0077  0.0938
  315loPI    C2 5026  11.021  16.853  11.456 -0.1187 -0.1437  0.1802
  315loPI    C3 5027  11.031  17.249  11.515  0.3060 -0.1205 -0.0078
  315loPI   PO4 5028  10.796  17.087  10.959  0.1710 -0.0101 -0.3936
  315loPI   GL1 5029  10.529  17.365  10.759  0.3245  0.1117  0.0606
  315loPI   GL2 5030  10.401  17.563  10.593 -0.1002 -0.1933  0.0262
  315loPI   C1A 5031  10.797  17.395  10.348  0.1062  0.0073 -0.3002
  315loPI   C2A 5032  10.676  17.398   9.950 -0.0748 -0.0073 -0.0846
  315loPI   C3A 5033  10.672  17.540   9.504  0.1505 -0.2557  0.2511
  315loPI   C4A 5034  10.707  17.499   9.051  0.1705  0.0096  0.0379
  315loPI   C5A 5035  10.903  17.410   8.640 -0.4115  0.1895  0.0318
  315loPI   C6A 5036  11.115  17.149   8.384 -0.0208  0.2768  0.1184
  315loPI   C1B 5037  10.301  17.480  10.256 -0.0601 -0.1276  0.2705
  315loPI   C2B 5038  10.263  17.625   9.773 -0.0636  0.2546  0.0302
  315loPI   C3B 5039  10.154  17.585   9.422 -0.1189 -0.0559 -0.0491
  315loPI   C4B 5040  10.206  17.695   9.010 -0.3961  0.0816 -0.2768
  316loPI    C1 5041  10.578   0.199  11.125 -0.0218 -0.1527  0.0145
  316loPI    C2 5042  10.523  -0.159  11.295 -0.1678 -0.0873  0.1068
  316loPI    C3 5043  10.763   0.110  11.468 -0.1164 -0.1135  0.0763
  316loPI   PO4 5044  10.596   0.255  10.942  0.1346 -0.1684 -0.0430
  316loPI   GL1 5045  10.688   0.364  10.618 -0.0358 -0.0377  0.1093
  316loPI   GL2 5046  11.060   0.161  10.541  0.1227  0.0756  0.0042
  316loPI   C1A 5047  10.578   0.258  10.208  0.1996  0.0328 -0.0835
  316loPI   C2A 5048  10.604   0.333   9.786 -0.0154 -0.0016 -0.2271
  316loPI   C3A 5049  10.474   0.343   9.353  0.0346 -0.0310  0.1675
  316loPI   C4A 5050  10.612   0.356   8.974  0.0703  0.0472  0.0007
  316loPI   C5A 5051  10.401   0.362   8.664 -0.0097  0.2730  0.2108
  316loPI   C6A 5052  10.355   0.716   8.371 -0.0904  0.0403 -0.1399
  316loPI   C1B 5053  11.032   0.151  10.152 -0.2696  0.1223  0.1948
  316loPI   C2B 5054  11.088   0.267   9.677 -0.3162 -0.2542 -0.1741
  316loPI   C3B 5055  11.022   0.239   9.335 -0.1780  0.2587 -0.0568
  316loPI   C4B 5056  11.057   0.232   8.905 -0.0788  0.1648 -0.2007
  317loPI    C1 5057  16.455   6.326  11.418 -0.1967 -0.2732  0.0371
  317loPI    C2 5058  16.235   6.122  11.682 -0.2303  0.1490  0.3473
  317loPI    C3 5059  16.238   6.521  11.692  0.0709  0.1627 -0.0520
  317loPI   PO4 5060  16.502   6.238  11.202 -0.3485  0.0468 -0.0817
  317loPI   GL1 5061  16.548   5.986  10.842  0.2029 -0.0748  0.0313
  317loPI   GL2 5062  16.377   6.006  10.562  0.0977 -0.1159 -0.0621
  317loPI   C1A 5063  16.873   5.896  10.627 -0.0353  0.2493  0.0339
  317loPI   C2A 5064  16.844   5.849  10.191  0.1083 -0.2074 -0.6390
  317loPI   C3A 5065  16.960   5.753   9.715 -0.2510  0.1135  0.1464
  317loPI   C4A 5066  17.021   5.945   9.294  0.0646  0.0132  0.2961
  317loPI   C5A 5067  16.897   5.696   8.968 -0.0264 -0.0657 -0.0095
  317loPI   C6A 5068  17.025   5.435   8.562  0.1621  0.3006  0.2092
  317loPI   C1B 5069  16.341   5.986  10.151  0.3054  0.0696  0.0516
  317loPI   C2B 5070  16.423   5.963   9.740 -0.3020 -0.3748  0.0718
  317loPI   C3B 5071  16.496   5.994   9.240 -0.1570  0.1326 -0.2496
  317loPI   C4B 5072  16.495   5.924   8.801  0.0435 -0.4387 -0.0091
  318loPI    C1 5073   0.931  16.147  11.413  0.1208  0.1204 -0.0103
  318loPI    C2 5074   1.113  16.307  11.732  0.0504  0.0850  0.0478
  318loPI    C3 5075   0.964  15.936  11.751 -0.0630  0.1284  0.0135
  318loPI   PO4 5076   0.746  16.340  11.288  0.1034  0.2244  0.0753
  318loPI   GL1 5077   0.447  16.466  10.984 -0.1889  0.0094  0.0543
  318loPI   GL2 5078   0.197  16.477  10.750  0.1103 -0.1639 -0.0723
  318loPI   C1A 5079   0.715  16.476  10.598  0.1750  0.0970 -0.0965
  318loPI   C2A 5080   1.047  16.773  10.365 -0.2146  0.3079  0.0361
  318loPI   C3A 5081   1.255  16.703  10.008 -0.1318  0.4018  0.1912
  318loPI   C4A 5082   1.212  16.722   9.501 -0.0838 -0.1917  0.1195
  318loPI   C5A 5083   1.125  16.702   9.017  0.0067  0.2542  0.0565
  318loPI   C6A 5084   1.043  16.506   8.587  0.0639  0.1414 -0.2760
  318loPI   C1B 5085   0.299  16.606  10.309  0.1252 -0.0986 -0.0898
  318loPI   C2B 5086   0.344  16.619   9.909  0.2625 -0.0234  0.0412
  318loPI   C3B 5087   0.227  16.517   9.549  0.0601  0.1950 -0.0260
  318loPI   C4B 5088   0.168  16.536   9.045  0.0476 -0.4262 -0.0494
  319loPI    C1 5089  16.856   3.331  11.616  0.0711  0.0386 -0.0133
  319loPI    C2 5090  16.628   3.416  11.934  0.0134  0.1852 -0.0932
  319loPI    C3 5091  17.002   3.555  11.914  0.0958 -0.0159  0.0159
  319loPI   PO4 5092  16.743   3.434  11.443  0.0095  0.2612 -0.3916
  319loPI   GL1 5093  16.762   3.667  11.072 -0.1332 -0.0580  0.1123
  319loPI   GL2 5094  16.714   3.484  10.739  0.1640  0.0294  0.1490
  319loPI   C1A 5095  16.833   3.992  10.768  0.0755  0.0836  0.0434
  319loPI   C2A 5096  16.848   3.971  10.328 -0.0275 -0.0709 -0.0825
  319loPI   C3A 5097  16.858   3.965   9.846 -0.1616  0.0924 -0.3196
  319loPI   C4A 5098  16.807   3.950   9.392 -0.4146  0.2993 -0.0372
  319loPI   C5A 5099  16.809   4.012   8.987 -0.1224  0.0179  0.2584
  319loPI   C6A 5100  16.795   3.788   8.571  0.1258  0.1639 -0.1475
  319loPI   C1B 5101  16.983   3.444  10.391  0.1041 -0.0047  0.0758
  319loPI   C2B 5102  16.960   3.425   9.955 -0.2594  0.2401  0.0656
  319loPI   C3B 5103  16.940   3.469   9.527  0.0846 -0.2561 -0.1496
  319loPI   C4B 5104  16.924   3.486   9.101 -0.2921  0.1386  0.0403
  320loPI    C1 5105  14.101   1.176  11.136  0.1245 -0.1026 -0.0703
  320loPI    C2 5106  14.221   0.886  11.384  0.1810  0.1594  0.2154
  320loPI    C3 5107  14.432   1.225  11.355  0.0783  0.2028 -0.0636
  320loPI   PO4 5108  14.110   1.074  10.941 -0.0557 -0.0459  0.0628
  320loPI   GL1 5109  14.123   0.954  10.484 -0.2504 -0.2430 -0.3611
  320loPI   GL2 5110  14.459   1.212  10.662 -0.2190  0.1800  0.2040
  320loPI   C1A 5111  14.069   0.999  10.044  0.1113 -0.1988 -0.2911
  320loPI   C2A 5112  14.196   1.085   9.670 -0.3602  0.0269 -0.0217
  320loPI   C3A 5113  14.219   1.069   9.339 -0.1196 -0.0008  0.1288
  320loPI   C4A 5114  14.202   1.123   8.888  0.1082 -0.3447 -0.1197
  320loPI   C5A 5115  14.316   1.336   8.539  0.0392 -0.1042 -0.1993
  320loPI   C6A 5116  14.342   1.665   8.283 -0.2543  0.2460  0.0911
  320loPI   C1B 5117  14.511   1.230  10.227 -0.1086  0.3326 -0.2078
  320loPI   C2B 5118  14.587   1.273   9.843 -0.0991  0.0613  0.0571
  320loPI   C3B 5119  14.563   1.427   9.401  0.3122 -0.0165  0.2449
  320loPI   C4B 5120  14.602   1.497   8.978 -0.1691 -0.0392 -0.1127
  321loPI    C1 5121   1.182   5.423  11.883 -0.0588  0.0275  0.0687
  321loPI    C2 5122   1.540   5.561  11.768 -0.0832  0.1175  0.1002
  321loPI    C3 5123   1.515   5.231  11.993 -0.0235  0.0722  0.0402
  321loPI   PO4 5124   1.085   5.362  11.647 -0.5258  0.0393 -0.1473
  321loPI   GL1 5125   1.054   5.353  11.237 -0.3571  0.0169  0.1452
  321loPI   GL2 5126   1.225   5.165  11.009  0.3965  0.0373 -0.2106
  321loPI   C1A 5127   1.230   5.650  10.912  0.1220 -0.0270  0.1773
  321loPI   C2A 5128   1.118   5.651  10.468  0.1462  0.0724 -0.0528
  321loPI   C3A 5129   1.213   5.725   9.998 -0.1229 -0.0655  0.2106
  321loPI   C4A 5130   1.189   5.697   9.565 -0.1009 -0.1420 -0.0251
  321loPI   C5A 5131   1.099   5.749   9.190 -0.1571 -0.4542  0.2363
  321loPI   C6A 5132   0.956   5.823   8.827 -0.2414  0.1873 -0.0678
  321loPI   C1B 5133   1.196   5.096  10.587 -0.2862  0.1565  0.1275
  321loPI   C2B 5134   1.293   5.225  10.120 -0.1511  0.3233 -0.2267
  321loPI   C3B 5135   1.351   5.243   9.828  0.3351  0.0159 -0.0827
  321loPI   C4B 5136   1.321   5.247   9.344  0.1097  0.1268  0.0440
  322loPI    C1 5137   3.575   0.711  11.410  0.2659  0.0655  0.0407
  322loPI    C2 5138   3.705   1.086  11.451 -0.2650  0.2637 -0.0098
  322loPI    C3 5139   3.435   0.940  11.706  0.0355 -0.1347  0.0898
  322loPI   PO4 5140   3.518   0.721  11.165  0.2286 -0.0172  0.3338
  322loPI   GL1 5141   3.536   0.689  10.804  0.3433  0.1939 -0.1160
  322loPI   GL2 5142   3.285   0.458  10.830 -0.1856  0.1523 -0.1844
  322loPI   C1A 5143   3.549   0.623  10.327 -0.1350 -0.0315  0.0191
  322loPI   C2A 5144   3.569   0.648   9.867  0.1087  0.1823 -0.0888
  322loPI   C3A 5145   3.546   0.656   9.340  0.0964 -0.3084 -0.2515
  322loPI   C4A 5146   3.535   0.649   8.957  0.0132  0.0805  0.2496
  322loPI   C5A 5147   3.828   0.523   8.642  0.0514  0.2265 -0.1873
  322loPI   C6A 5148   3.766   0.195   8.357 -0.0053 -0.0421  0.0300
  322loPI   C1B 5149   3.250   0.258  10.554 -0.0169 -0.1444 -0.0646
  322loPI   C2B 5150   3.217   0.327  10.057  0.2311  0.2371 -0.1997
  322loPI   C3B 5151   3.206   0.258   9.619 -0.1531  0.0093  0.1121
  322loPI   C4B 5152   3.173   0.262   9.197  0.1565  0.0519  0.0837
  323loPI    C1 5153   1.045   1.013  11.560 -0.2468  0.0607  0.0939
  323loPI    C2 5154   1.221   0.811  11.857  0.0111  0.1010 -0.0287
  323loPI    C3 5155   1.043   0.613  11.558 -0.0676  0.0594  0.0451
  323loPI   PO4 5156   1.314   1.145  11.415 -0.1545 -0.0228 -0.0732
  323loPI   GL1 5157   1.643   1.075  10.947  0.1949  0.1066 -0.0261
  323loPI   GL2 5158   1.747   0.735  10.866 -0.3540 -0.4245  0.2034
  323loPI   C1A 5159   1.575   1.318  10.560  0.0611  0.2689 -0.0448
  323loPI   C2A 5160   1.613   1.313  10.100  0.1255  0.1142  0.0472
  323loPI   C3A 5161   1.653   1.338   9.639 -0.1262 -0.1850  0.2422
  323loPI   C4A 5162   1.628   1.392   9.236 -0.2370 -0.0655 -0.1172
  323loPI   C5A 5163   1.435   1.269   8.975  0.2271  0.2788 -0.0171
  323loPI   C6A 5164   0.985   1.208   8.702  0.1336  0.1739  0.2848
  323loPI   C1B 5165   1.771   0.804  10.489  0.1317 -0.0364 -0.1905
  323loPI   C2B 5166   1.721   0.811  10.005 -0.0922 -0.2121  0.1403
  323loPI   C3B 5167   1.695   0.802   9.565  0.1339 -0.2249 -0.0832
  323loPI   C4B 5168   1.735   0.892   9.156  0.2208  0.0414 -0.0456
  324loPI    C1 5169   3.507  12.000  11.424 -0.0833 -0.0599 -0.0858
  324loPI    C2 5170   3.709  12.281  11.626  0.0956 -0.1681 -0.1117
  324loPI    C3 5171   3.589  11.948  11.813 -0.1415 -0.0637 -0.0740
  324loPI   PO4 5172   3.654  12.043  11.211  0.2355 -0.0271 -0.3911
  324loPI   GL1 5173   3.550  12.275  10.734  0.2833  0.1304 -0.3255
  324loPI   GL2 5174   3.817  12.318  10.635 -0.0579  0.1037 -0.1694
  324loPI   C1A 5175   3.481  12.108  10.280  0.0739  0.1283 -0.2436
  324loPI   C2A 5176   3.407  12.177   9.916  0.3071 -0.1468  0.0239
  324loPI   C3A 5177   3.438  12.224   9.506 -0.3926 -0.0022 -0.0319
  324loPI   C4A 5178   3.513  12.168   9.059 -0.0607 -0.0979  0.3051
  324loPI   C5A 5179   3.376  12.278   8.531  0.2278  0.0442  0.1710
  324loPI   C6A 5180   3.585  12.494   8.072  0.1377  0.0681  0.1800
  324loPI   C1B 5181   3.745  12.516  10.224 -0.2510 -0.0385  0.1168
  324loPI   C2B 5182   3.815  12.577   9.830 -0.1769  0.2675  0.2113
  324loPI   C3B 5183   3.805  12.540   9.301 -0.3019  0.0713  0.2154
  324loPI   C4B 5184   3.911  12.520   8.902 -0.0079  0.1302 -0.0200
  325loPI    C1 5185   5.455  17.631  11.472 -0.1268  0.3738 -0.1791
  325loPI    C2 5186   5.209  17.685  11.782  0.0499 -0.1188  0.0575
  325loPI    C3 5187   5.554  17.886  11.763  0.0667 -0.1316  0.2139
  325loPI   PO4 5188   5.319  17.521  11.273 -0.0336 -0.1328  0.2231
  325loPI   GL1 5189   5.086  17.567  10.973 -0.1123  0.0703  0.4611
  325loPI   GL2 5190   4.797  17.614  11.036 -0.0443  0.2074 -0.1018
  325loPI   C1A 5191   5.155  17.324  10.527  0.1916 -0.0457 -0.2324
  325loPI   C2A 5192   5.129  17.251  10.137 -0.2956  0.2663 -0.0697
  325loPI   C3A 5193   5.245  17.279   9.738  0.2453  0.0102 -0.1331
  325loPI   C4A 5194   5.187  17.271   9.275 -0.1746  0.0624  0.0628
  325loPI   C5A 5195   5.273  16.985   8.949 -0.2647  0.1736  0.1589
  325loPI   C6A 5196   5.283  16.916   8.571  0.1051  0.0435  0.0236
  325loPI   C1B 5197   4.671  17.526  10.647  0.2904  0.2107 -0.1339
  325loPI   C2B 5198   4.685  17.496  10.245 -0.0168 -0.0673  0.0460
  325loPI   C3B 5199   4.654  17.531   9.816  0.0116 -0.0151  0.0537
  325loPI   C4B 5200   4.756  17.492   9.396 -0.1196 -0.3713 -0.1430
  326loPI    C1 5201  12.486   3.580  11.178  0.0894  0.0128 -0.2584
  326loPI    C2 5202  12.401   3.262  11.405  0.0034  0.2203  0.0047
  326loPI    C3 5203  12.695   3.511  11.512  0.1180  0.1920 -0.2384
  326loPI   PO4 5204  12.527   3.538  10.863  0.0096 -0.0400 -0.1065
  326loPI   GL1 5205  12.806   3.518  10.511  0.1423 -0.0223  0.1188
  326loPI   GL2 5206  13.039   3.694  10.357  0.1101 -0.0224 -0.2860
  326loPI   C1A 5207  12.677   3.416  10.092  0.0589  0.1823  0.1332
  326loPI   C2A 5208  12.756   3.361   9.645 -0.0198 -0.2377  0.0707
  326loPI   C3A 5209  12.667   3.401   9.159 -0.1807 -0.0466 -0.1298
  326loPI   C4A 5210  12.730   3.477   8.670  0.3438 -0.1938  0.0884
  326loPI   C5A 5211  12.895   3.424   8.328  0.2620  0.0472  0.1544
  326loPI   C6A 5212  13.120   3.799   7.979  0.0683  0.0381  0.2945
  326loPI   C1B 5213  13.132   3.697  10.000 -0.2921 -0.0663  0.0137
  326loPI   C2B 5214  13.256   3.777   9.581  0.2996  0.0057  0.0024
  326loPI   C3B 5215  13.090   3.688   9.153 -0.0912 -0.0510 -0.0061
  326loPI   C4B 5216  13.193   3.685   8.738 -0.2500  0.1599  0.1114
  327loPI    C1 5217  15.211  10.382  11.171 -0.0953 -0.2018 -0.0956
  327loPI    C2 5218  15.053  10.333  11.536  0.0797  0.1855  0.0372
  327loPI    C3 5219  14.816  10.418  11.225 -0.0473  0.0628  0.0996
  327loPI   PO4 5220  15.451  10.205  10.973 -0.0262 -0.0416  0.0756
  327loPI   GL1 5221  15.704  10.194  10.601  0.1199 -0.1183  0.0522
  327loPI   GL2 5222  15.876  10.393  10.596  0.0451 -0.1856  0.1648
  327loPI   C1A 5223  15.417  10.224  10.265 -0.2597  0.1795  0.0810
  327loPI   C2A 5224  15.359  10.251   9.819 -0.1135 -0.0007 -0.1583
  327loPI   C3A 5225  15.469  10.192   9.411  0.2923  0.0820 -0.0911
  327loPI   C4A 5226  15.527  10.264   8.863 -0.1533  0.0157 -0.0115
  327loPI   C5A 5227  15.820  10.196   8.495 -0.1155  0.0387 -0.0010
  327loPI   C6A 5228  16.228  10.338   8.503 -0.0362  0.0882  0.1060
  327loPI   C1B 5229  15.886  10.522  10.248  0.0716  0.0232  0.0936
  327loPI   C2B 5230  15.807  10.553   9.759 -0.1546 -0.1983 -0.1563
  327loPI   C3B 5231  15.905  10.539   9.396 -0.1605 -0.1794 -0.3202
  327loPI   C4B 5232  15.991  10.538   8.939  0.0494 -0.0566 -0.4580
  328loPI    C1 5233  15.150  10.845  11.438  0.0315  0.0442 -0.3075
  328loPI    C2 5234  15.463  10.632  11.565 -0.2539 -0.2744 -0.1206
  328loPI    C3 5235  15.340  10.951  11.774 -0.1127 -0.2026 -0.1451
  328loPI   PO4 5236  15.231  10.866  11.106  0.0443  0.1553 -0.0646
  328loPI   GL1 5237  14.919  11.084  10.760 -0.0711  0.4304  0.0650
  328loPI   GL2 5238  15.060  11.354  10.769  0.0133 -0.0012 -0.1084
  328loPI   C1A 5239  14.795  10.949  10.307  0.1259 -0.1330 -0.0313
  328loPI   C2A 5240  14.799  10.918   9.923  0.1354  0.0384 -0.0321
  328loPI   C3A 5241  14.756  10.873   9.506 -0.1099 -0.0328 -0.3205
  328loPI   C4A 5242  14.798  10.851   9.078 -0.0025  0.0695  0.1249
  328loPI   C5A 5243  14.944  10.848   8.673  0.1944  0.0226 -0.3525
  328loPI   C6A 5244  14.992  10.891   8.301  0.0117 -0.0080  0.2186
  328loPI   C1B 5245  15.099  11.317  10.279  0.0594  0.4677 -0.1058
  328loPI   C2B 5246  15.184  11.341   9.821  0.0813 -0.0281  0.1943
  328loPI   C3B 5247  15.181  11.212   9.367 -0.2249  0.0837  0.1258
  328loPI   C4B 5248  15.235  11.154   8.894  0.0345 -0.2663 -0.3944
  329loPI    C1 5249   3.787   5.508  11.590  0.2384 -0.2357  0.0684
  329loPI    C2 5250   4.124   5.544  11.804 -0.0124 -0.0240  0.4390
  329loPI    C3 5251   3.771   5.504  11.990 -0.2112 -0.0941  0.0575
  329loPI   PO4 5252   3.905   5.692  11.303  0.0679  0.0248  0.0693
  329loPI   GL1 5253   3.706   5.825  10.918  0.0185  0.1333  0.0855
  329loPI   GL2 5254   3.421   6.109  10.997  0.0630  0.0665  0.0020
  329loPI   C1A 5255   3.844   5.826  10.456 -0.3162  0.3096 -0.3033
  329loPI   C2A 5256   3.958   5.734   9.982  0.1536  0.0595  0.0056
  329loPI   C3A 5257   3.973   5.780   9.566  0.0383 -0.0242  0.0642
  329loPI   C4A 5258   3.892   5.539   9.095 -0.2052 -0.0822  0.1029
  329loPI   C5A 5259   4.078   5.348   8.828 -0.0755 -0.1569 -0.1648
  329loPI   C6A 5260   4.507   5.114   8.835 -0.1228 -0.0597  0.1508
  329loPI   C1B 5261   3.394   5.971  10.576  0.0558 -0.0231 -0.1546
  329loPI   C2B 5262   3.432   5.838  10.132  0.1546  0.1922 -0.3447
  329loPI   C3B 5263   3.445   5.882   9.695 -0.0076  0.0448 -0.1061
  329loPI   C4B 5264   3.430   5.917   9.229  0.0390 -0.3820 -0.1153
  330loPI    C1 5265   2.410  16.546  11.380  0.2080  0.0303 -0.2850
  330loPI    C2 5266   2.806  16.598  11.372  0.2103  0.0704 -0.0055
  330loPI    C3 5267   2.591  16.746  11.675  0.0169 -0.1920 -0.0117
  330loPI   PO4 5268   2.395  16.372  11.231  0.0739  0.4019 -0.0979
  330loPI   GL1 5269   2.620  16.381  10.792  0.0897 -0.0269 -0.0246
  330loPI   GL2 5270   2.679  16.715  10.911 -0.0446  0.3178 -0.1596
  330loPI   C1A 5271   2.700  16.307  10.398 -0.0380  0.1859 -0.1746
  330loPI   C2A 5272   2.678  16.322   9.889  0.0409 -0.2327  0.1006
  330loPI   C3A 5273   2.640  16.128   9.436  0.0781  0.0150  0.3895
  330loPI   C4A 5274   2.767  16.133   8.927 -0.0878  0.0068  0.2322
  330loPI   C5A 5275   3.107  16.226   8.786  0.3130  0.2894 -0.2185
  330loPI   C6A 5276   3.041  16.532   8.466  0.0457  0.2178 -0.0224
  330loPI   C1B 5277   2.516  16.799  10.465  0.2319  0.1978 -0.1630
  330loPI   C2B 5278   2.544  16.774  10.005 -0.1428 -0.1454 -0.0698
  330loPI   C3B 5279   2.515  16.889   9.622 -0.1615  0.1165  0.0615
  330loPI   C4B 5280   2.614  16.621   9.297  0.0037  0.0561  0.1114
  331loPI    C1 5281   6.951  16.650  11.357  0.0251  0.2156  0.1701
  331loPI    C2 5282   7.036  16.270  11.445 -0.0113  0.1034 -0.2577
  331loPI    C3 5283   7.102  16.557  11.715 -0.2265 -0.2340  0.1659
  331loPI   PO4 5284   7.125  16.718  11.155 -0.3477 -0.1439 -0.1095
  331loPI   GL1 5285   6.876  16.872  10.838  0.2565 -0.0044 -0.1009
  331loPI   GL2 5286   7.022  17.131  10.633  0.2983 -0.1239 -0.0409
  331loPI   C1A 5287   7.077  16.583  10.465  0.0689  0.0326 -0.2356
  331loPI   C2A 5288   7.141  16.693  10.076  0.1475 -0.1428 -0.0317
  331loPI   C3A 5289   7.223  16.714   9.687 -0.0909  0.5031  0.2168
  331loPI   C4A 5290   7.177  16.706   9.270  0.4651 -0.1679 -0.1528
  331loPI   C5A 5291   7.249  16.672   8.850 -0.0896  0.2738 -0.0034
  331loPI   C6A 5292   7.302  16.975   8.464 -0.0736 -0.0462 -0.0758
  331loPI   C1B 5293   7.018  17.176  10.129 -0.2539  0.1981 -0.2108
  331loPI   C2B 5294   7.082  17.170   9.639  0.0492 -0.1746 -0.0241
  331loPI   C3B 5295   7.147  17.181   9.226  0.0844  0.1354 -0.2744
  331loPI   C4B 5296   7.070  17.271   8.784 -0.1741  0.1429  0.1246
  332loPI    C1 5297   9.961  15.675  11.128 -0.0072 -0.0608  0.2211
  332loPI    C2 5298   9.972  16.024  11.322  0.1046  0.0284  0.0562
  332loPI    C3 5299  10.244  15.742  11.403  0.0730  0.0163  0.1205
  332loPI   PO4 5300   9.853  15.904  10.820 -0.0114 -0.2028  0.0644
  332loPI   GL1 5301   9.456  16.003  10.730  0.1870  0.0757  0.3979
  332loPI   GL2 5302   9.201  16.133  10.597 -0.0393  0.1838  0.1250
  332loPI   C1A 5303   9.561  15.910  10.300  0.2775  0.1058  0.2171
  332loPI   C2A 5304   9.619  15.948   9.837  0.0977  0.0554  0.1638
  332loPI   C3A 5305   9.540  15.889   9.354 -0.1745 -0.2024  0.1474
  332loPI   C4A 5306   9.755  15.947   8.920  0.1057 -0.1429  0.0862
  332loPI   C5A 5307   9.919  15.481   8.703  0.1139  0.1670 -0.2719
  332loPI   C6A 5308  10.196  15.137   8.475 -0.1642  0.0468 -0.2103
  332loPI   C1B 5309   9.083  16.018  10.160  0.1225  0.0213  0.0617
  332loPI   C2B 5310   9.068  16.069   9.774 -0.0600 -0.1037  0.0228
  332loPI   C3B 5311   9.151  16.086   9.236  0.1746 -0.0344  0.1139
  332loPI   C4B 5312   9.216  15.931   8.877 -0.2326  0.5135 -0.4048
  333loPI    C1 5313   4.529   4.749  11.704 -0.1525 -0.2539 -0.2921
  333loPI    C2 5314   4.446   4.544  12.037  0.1093 -0.0179 -0.0771
  333loPI    C3 5315   4.801   4.501  11.858 -0.0424 -0.1695 -0.3490
  333loPI   PO4 5316   4.381   4.794  11.508 -0.2195  0.1593  0.1295
  333loPI   GL1 5317   4.318   4.831  11.116  0.2071  0.1070 -0.1941
  333loPI   GL2 5318   4.628   4.943  10.945  0.2015 -0.0178  0.2542
  333loPI   C1A 5319   4.096   4.749  10.817  0.1399 -0.0088 -0.1278
  333loPI   C2A 5320   4.175   4.809  10.342  0.0481 -0.0430 -0.1596
  333loPI   C3A 5321   4.126   4.736   9.929  0.2995  0.2466  0.1015
  333loPI   C4A 5322   4.090   4.726   9.482 -0.1190  0.0638  0.2849
  333loPI   C5A 5323   4.147   4.840   9.094 -0.0636 -0.0878  0.1826
  333loPI   C6A 5324   4.073   4.857   8.715 -0.1315 -0.2691  0.0284
  333loPI   C1B 5325   4.525   5.064  10.635  0.2607 -0.0700  0.0296
  333loPI   C2B 5326   4.585   5.070  10.213 -0.0627  0.1462 -0.3885
  333loPI   C3B 5327   4.581   5.131   9.779 -0.1390  0.0120  0.1320
  333loPI   C4B 5328   4.562   5.121   9.338  0.1458  0.0516  0.0442
  334loPI    C1 5329   2.071  12.157  11.495 -0.0155 -0.1362  0.0341
  334loPI    C2 5330   1.712  12.096  11.660  0.0201 -0.1627  0.1020
  334loPI    C3 5331   2.012  12.244  11.881 -0.0051  0.0521 -0.0058
  334loPI   PO4 5332   2.096  11.954  11.291 -0.0022 -0.1144  0.0046
  334loPI   GL1 5333   2.306  12.072  10.838 -0.2528  0.1997 -0.0367
  334loPI   GL2 5334   2.608  11.972  10.615 -0.3001 -0.1457  0.1726
  334loPI   C1A 5335   2.147  12.123  10.452  0.2236 -0.1938  0.2392
  334loPI   C2A 5336   2.104  12.251  10.019 -0.0810  0.0220  0.0469
  334loPI   C3A 5337   2.089  12.215   9.585 -0.0883 -0.1202  0.1465
  334loPI   C4A 5338   2.080  12.232   9.071  0.0539  0.3229 -0.0605
  334loPI   C5A 5339   2.017  12.109   8.669  0.0275 -0.0565 -0.0173
  334loPI   C6A 5340   1.643  12.075   8.394 -0.1903  0.0242 -0.1982
  334loPI   C1B 5341   2.612  11.984  10.162 -0.1404  0.1116 -0.0148
  334loPI   C2B 5342   2.543  12.074   9.723 -0.2042 -0.0442 -0.0982
  334loPI   C3B 5343   2.529  12.022   9.209  0.1865  0.1901 -0.0694
  334loPI   C4B 5344   2.627  11.947   8.789 -0.1958 -0.3360  0.2376
  335loPI    C1 5345  16.598   5.261  11.641 -0.0586  0.2739 -0.1622
  335loPI    C2 5346  16.361   4.939  11.615  0.0712  0.1570  0.0678
  335loPI    C3 5347  16.245   5.287  11.455  0.0364 -0.0617 -0.3990
  335loPI   PO4 5348  16.813   5.171  11.546 -0.1066  0.1099  0.3584
  335loPI   GL1 5349  17.105   5.301  11.190 -0.1186 -0.1879 -0.0803
  335loPI   GL2 5350  16.985   5.260  10.970  0.1147 -0.1644 -0.0917
  335loPI   C1A 5351  17.538   5.327  10.955  0.1207 -0.0965 -0.0813
  335loPI   C2A 5352  17.520   5.170  10.555 -0.1556  0.0362  0.0210
  335loPI   C3A 5353  17.401   5.143  10.135  0.0820  0.2012 -0.1561
  335loPI   C4A 5354  17.488   5.168   9.672 -0.2272 -0.0279 -0.1761
  335loPI   C5A 5355  17.544   5.222   9.215 -0.3234  0.2333  0.2523
  335loPI   C6A 5356  17.506   5.204   8.816  0.0461  0.0402  0.4534
  335loPI   C1B 5357  16.995   5.391  10.588  0.3943  0.0489 -0.3084
  335loPI   C2B 5358  16.950   5.369  10.101  0.0235 -0.1216  0.0451
  335loPI   C3B 5359  17.019   5.262   9.684  0.2390  0.2159 -0.1049
  335loPI   C4B 5360  17.147   5.459   9.341  0.0019  0.0328 -0.0031
  336loPI    C1 5361   2.560   1.883  11.488  0.1445  0.2251  0.0476
  336loPI    C2 5362   2.842   1.927  11.768  0.0649  0.0305  0.1608
  336loPI    C3 5363   2.461   1.870  11.875  0.0418 -0.0977  0.0139
  336loPI   PO4 5364   2.652   1.786  11.296 -0.0976  0.2919  0.4199
  336loPI   GL1 5365   2.474   1.690  10.928  0.0528  0.1577  0.0324
  336loPI   GL2 5366   2.489   1.980  10.666 -0.1263 -0.2529 -0.2475
  336loPI   C1A 5367   2.460   1.497  10.517  0.2611  0.0300  0.1353
  336loPI   C2A 5368   2.488   1.565  10.054  0.0454  0.1595  0.1766
  336loPI   C3A 5369   2.446   1.519   9.599  0.0546 -0.0906  0.0047
  336loPI   C4A 5370   2.446   1.532   9.144 -0.0116 -0.1726 -0.1917
  336loPI   C5A 5371   2.336   1.661   8.760  0.1128 -0.0439  0.0717
  336loPI   C6A 5372   1.991   2.061   8.592 -0.1287 -0.0263  0.0906
  336loPI   C1B 5373   2.292   2.015  10.286  0.0132  0.2866  0.0197
  336loPI   C2B 5374   2.357   2.008   9.828 -0.1680 -0.0230  0.0599
  336loPI   C3B 5375   2.358   2.112   9.371 -0.1594  0.0984 -0.0446
  336loPI   C4B 5376   2.291   2.129   9.000  0.0980  0.1660 -0.0356
  337loPI    C1 5377  16.809  16.719  11.514  0.2306  0.0272  0.0688
  337loPI    C2 5378  17.039  16.846  11.213  0.2702 -0.0371  0.0716
  337loPI    C3 5379  17.051  16.462  11.325 -0.0954 -0.1214 -0.1574
  337loPI   PO4 5380  16.546  16.838  11.385  0.0348  0.2280 -0.3267
  337loPI   GL1 5381  16.558  16.938  11.000 -0.0778 -0.2702  0.4381
  337loPI   GL2 5382  16.515  16.627  10.920 -0.3390  0.0194 -0.2241
  337loPI   C1A 5383  16.832  16.938  10.611  0.0379  0.0718 -0.1229
  337loPI   C2A 5384  16.769  16.870  10.227 -0.2705  0.1838 -0.0389
  337loPI   C3A 5385  16.889  16.853   9.742 -0.0199 -0.0928  0.1197
  337loPI   C4A 5386  16.839  16.900   9.308 -0.1211 -0.2129  0.3038
  337loPI   C5A 5387  16.945  16.836   8.854  0.1107 -0.0835  0.0969
  337loPI   C6A 5388  17.301  16.631   8.677  0.3377 -0.1815 -0.0151
  337loPI   C1B 5389  16.415  16.576  10.434 -0.3312 -0.0496 -0.0227
  337loPI   C2B 5390  16.391  16.488  10.029  0.3770 -0.3170 -0.1138
  337loPI   C3B 5391  16.516  16.549   9.588  0.0657 -0.2273  0.0818
  337loPI   C4B 5392  16.501  16.592   9.154  0.2179  0.1633  0.0426
  338loPI    C1 5393   4.822   1.821  11.605  0.0405 -0.1928 -0.1104
  338loPI    C2 5394   4.881   1.461  11.768  0.2363 -0.0332  0.1792
  338loPI    C3 5395   4.788   1.773  12.000  0.1644  0.1245 -0.0581
  338loPI   PO4 5396   4.979   1.764  11.408  0.3230 -0.0337  0.0998
  338loPI   GL1 5397   5.079   1.925  10.995 -0.3239 -0.3207 -0.2359
  338loPI   GL2 5398   4.772   1.640  10.872 -0.2588 -0.1477  0.1290
  338loPI   C1A 5399   5.194   2.098  10.585 -0.1103 -0.1530 -0.1402
  338loPI   C2A 5400   5.069   2.053  10.100  0.1914  0.2893  0.2718
  338loPI   C3A 5401   5.015   2.022   9.663  0.1077 -0.2309 -0.0945
  338loPI   C4A 5402   4.978   2.087   9.199 -0.0157 -0.1516  0.2537
  338loPI   C5A 5403   5.234   2.230   8.946  0.1298 -0.2029  0.1216
  338loPI   C6A 5404   5.365   2.267   8.545  0.0206 -0.0992 -0.1119
  338loPI   C1B 5405   4.754   1.647  10.428  0.1352  0.0834 -0.0019
  338loPI   C2B 5406   4.687   1.689   9.928  0.1244  0.0571  0.2786
  338loPI   C3B 5407   4.583   1.753   9.523 -0.2855  0.2117  0.0845
  338loPI   C4B 5408   4.699   1.660   9.150 -0.0734 -0.0945 -0.0468
  339loPI    C1 5409   0.016   0.143  11.318  0.0462  0.0284 -0.0098
  339loPI    C2 5410   0.157   0.295  11.661  0.1837 -0.0444 -0.0334
  339loPI    C3 5411  -0.032  -0.058  11.661  0.1446 -0.0236 -0.0259
  339loPI   PO4 5412   0.203   0.131  11.173 -0.1471  0.1589  0.1799
  339loPI   GL1 5413   0.224  -0.170  10.784  0.1514 -0.0546  0.2395
  339loPI   GL2 5414  -0.055  -0.125  10.743 -0.1572 -0.1590  0.0958
  339loPI   C1A 5415   0.476  -0.150  10.441 -0.1022  0.0443  0.3403
  339loPI   C2A 5416   0.611  -0.212  10.014  0.0747 -0.1218 -0.0885
  339loPI   C3A 5417   0.469  -0.218   9.672 -0.1299  0.1789  0.3929
  339loPI   C4A 5418   0.495  -0.261   9.253  0.2823  0.2042  0.3208
  339loPI   C5A 5419   0.467  -0.373   8.831  0.0721 -0.1135 -0.1943
  339loPI   C6A 5420   0.472  -0.763   8.583  0.0607 -0.1773  0.0982
  339loPI   C1B 5421  -0.005  -0.066  10.271 -0.1323 -0.1593 -0.0906
  339loPI   C2B 5422   0.011  -0.076   9.781 -0.2149 -0.3818  0.1097
  339loPI   C3B 5423  -0.034  -0.091   9.363 -0.1065  0.3504 -0.0353
  339loPI   C4B 5424   0.010  -0.092   8.900 -0.0868  0.1932  0.0263
  340loPI    C1 5425  11.999  16.457  10.945 -0.2032  0.2025 -0.0948
  340loPI    C2 5426  11.949  16.164  11.213  0.2835  0.1285 -0.0763
  340loPI    C3 5427  12.066  16.527  11.333  0.4586  0.1078 -0.1805
  340loPI   PO4 5428  11.897  16.416  10.742 -0.0335 -0.0667 -0.1372
  340loPI   GL1 5429  11.796  16.187  10.416 -0.1265 -0.1959  0.2102
  340loPI   GL2 5430  11.971  15.963  10.315 -0.1503 -0.3040  0.1023
  340loPI   C1A 5431  11.468  16.134  10.202  0.1690 -0.1642 -0.0897
  340loPI   C2A 5432  11.518  16.067   9.838  0.3482  0.0166 -0.2020
  340loPI   C3A 5433  11.498  16.027   9.477 -0.1547  0.2765 -0.0010
  340loPI   C4A 5434  11.530  15.749   9.116  0.2452  0.0594  0.3661
  340loPI   C5A 5435  11.553  15.767   8.549  0.0652  0.1021 -0.2209
  340loPI   C6A 5436  11.595  15.970   8.125 -0.0366  0.0559  0.2345
  340loPI   C1B 5437  11.994  16.124   9.973  0.1750  0.2334  0.0784
  340loPI   C2B 5438  12.006  16.050   9.615 -0.0536  0.2280  0.1179
  340loPI   C3B 5439  11.941  16.120   9.241  0.1116  0.2854  0.1812
  340loPI   C4B 5440  11.518  16.223   9.052  0.0163  0.2275  0.0917
  341loPI    C1 5441  13.102   6.559  10.499 -0.0279  0.0299 -0.0968
  341loPI    C2 5442  13.291   6.535  10.850  0.1339  0.3575 -0.1578
  341loPI    C3 5443  12.915   6.670  10.835  0.0617  0.1670 -0.0914
  341loPI   PO4 5444  13.308   6.692  10.297  0.2276 -0.0782  0.1340
  341loPI   GL1 5445  13.374   7.011   9.963 -0.0710  0.1398  0.0319
  341loPI   GL2 5446  13.050   6.910   9.916  0.0742 -0.0128 -0.2793
  341loPI   C1A 5447  13.464   7.022   9.459  0.5647 -0.1255  0.0826
  341loPI   C2A 5448  13.496   6.978   8.993  0.2486  0.0308  0.2852
  341loPI   C3A 5449  13.597   7.079   8.586 -0.1397 -0.2505  0.0575
  341loPI   C4A 5450  13.811   7.339   8.276 -0.0880 -0.0366  0.0956
  341loPI   C5A 5451  13.955   7.760   8.104 -0.2447 -0.0666 -0.1996
  341loPI   C6A 5452  13.735   8.156   8.285  0.2935  0.0290  0.0355
  341loPI   C1B 5453  13.080   6.705   9.483  0.1192 -0.1572  0.0635
  341loPI   C2B 5454  13.059   6.624   9.013  0.0820 -0.1765  0.3336
  341loPI   C3B 5455  12.840   6.624   8.621  0.3216  0.0072  0.3899
  341loPI   C4B 5456  12.878   6.717   8.248  0.2085 -0.0507  0.0554
  342loPI    C1 5457   1.017  17.172  11.432 -0.4659 -0.0406  0.0518
  342loPI    C2 5458   1.311  17.378  11.608 -0.1637 -0.3369 -0.0950
  342loPI    C3 5459   0.994  17.260  11.821 -0.1876 -0.0012  0.0615
  342loPI   PO4 5460   1.009  17.252  11.207  0.1229  0.0885  0.0273
  342loPI   GL1 5461   1.207  17.492  10.914 -0.2849  0.1229 -0.4521
  342loPI   GL2 5462   1.472  17.716  10.896 -0.0764  0.0960  0.0276
  342loPI   C1A 5463   1.528  17.285  10.654 -0.0951  0.0870 -0.1483
  342loPI   C2A 5464   1.561  17.141  10.214 -0.4821  0.1143 -0.1791
  342loPI   C3A 5465   1.554  17.094   9.790  0.1526 -0.4664  0.0992
  342loPI   C4A 5466   1.435  17.194   9.391 -0.3189 -0.2071  0.0824
  342loPI   C5A 5467   1.559  16.970   9.017  0.2277  0.0332 -0.1744
  342loPI   C6A 5468   1.539  16.982   8.535  0.0141  0.0654 -0.1773
  342loPI   C1B 5469   1.415  17.674  10.438  0.0303 -0.0901 -0.1017
  342loPI   C2B 5470   1.418  17.580  10.038 -0.0982 -0.0118 -0.0255
  342loPI   C3B 5471   1.432  17.649   9.580  0.3858  0.0073  0.0289
  342loPI   C4B 5472   1.221  17.589   9.271  0.0533  0.1332  0.1276
  343loPI    C1 5473   6.812  11.400  11.229 -0.0529 -0.1955 -0.1144
  343loPI    C2 5474   7.194  11.379  11.346 -0.0616 -0.2330 -0.0923
  343loPI    C3 5475   6.900  11.353  11.616 -0.0784 -0.1025 -0.0971
  343loPI   PO4 5476   6.913  11.241  10.984  0.0625 -0.2433  0.0136
  343loPI   GL1 5477   7.192  11.396  10.670 -0.0079 -0.1551 -0.1075
  343loPI   GL2 5478   6.973  11.563  10.492  0.2093  0.2800  0.0395
  343loPI   C1A 5479   7.342  11.373  10.247 -0.0691  0.0529 -0.5984
  343loPI   C2A 5480   7.306  11.420   9.799 -0.2196 -0.1097 -0.2129
  343loPI   C3A 5481   7.266  11.389   9.353  0.1714  0.3969 -0.2073
  343loPI   C4A 5482   7.278  11.295   8.861 -0.2187  0.1879 -0.0017
  343loPI   C5A 5483   7.249  11.129   8.480 -0.0959 -0.2106 -0.1728
  343loPI   C6A 5484   7.310  10.766   8.107  0.2364 -0.2533 -0.1744
  343loPI   C1B 5485   6.895  11.574  10.024  0.0536 -0.0030 -0.0572
  343loPI   C2B 5486   6.829  11.570   9.543 -0.2345 -0.0672 -0.1171
  343loPI   C3B 5487   6.833  11.469   9.018  0.0398  0.0664  0.1407
  343loPI   C4B 5488   6.835  11.424   8.652  0.1359 -0.2343 -0.2023
  344loPI    C1 5489  11.837  14.168  10.860 -0.0030  0.0499  0.0780
  344loPI    C2 5490  11.988  13.869  11.078 -0.1592 -0.1469 -0.0806
  344loPI    C3 5491  12.149  14.234  11.102  0.0990 -0.2661  0.0365
  344loPI   PO4 5492  11.810  14.196  10.632  0.1708 -0.1946 -0.0092
  344loPI   GL1 5493  11.716  14.226  10.285 -0.3061 -0.1714  0.1936
  344loPI   GL2 5494  11.592  14.581  10.228  0.1152  0.0307 -0.0656
  344loPI   C1A 5495  11.767  14.188   9.900  0.0209 -0.0502 -0.1244
  344loPI   C2A 5496  11.866  14.192   9.502 -0.5146 -0.4457 -0.1728
  344loPI   C3A 5497  11.971  14.288   9.040  0.1679  0.4146  0.0825
  344loPI   C4A 5498  11.882  14.345   8.623  0.1541  0.0142  0.0333
  344loPI   C5A 5499  12.015  14.042   8.387  0.2967  0.1590  0.0607
  344loPI   C6A 5500  12.284  13.724   8.268  0.2882 -0.2782 -0.0039
  344loPI   C1B 5501  11.628  14.651   9.867 -0.0487 -0.3962  0.3300
  344loPI   C2B 5502  11.662  14.767   9.391 -0.0076 -0.0003  0.0983
  344loPI   C3B 5503  11.741  14.779   9.052 -0.0171 -0.1167  0.1917
  344loPI   C4B 5504  11.781  14.816   8.640  0.2715 -0.1303  0.0903
  345loPI    C1 5505   8.913  10.819  10.697  0.5063 -0.0365 -0.2204
  345loPI    C2 5506   8.970  10.553  10.990 -0.0325  0.1122  0.0321
  345loPI    C3 5507   9.155  10.907  11.004  0.0932  0.0453  0.0906
  345loPI   PO4 5508   8.592  10.788  10.690  0.2480  0.3559  0.0065
  345loPI   GL1 5509   8.387  10.563  10.387  0.2051 -0.0781 -0.1691
  345loPI   GL2 5510   8.646  10.733  10.157 -0.2142  0.1583 -0.1849
  345loPI   C1A 5511   8.190  10.908  10.071  0.0736  0.0148 -0.1388
  345loPI   C2A 5512   8.213  11.026   9.731 -0.2320 -0.0485 -0.1136
  345loPI   C3A 5513   8.244  11.094   9.261 -0.3831  0.1048  0.0058
  345loPI   C4A 5514   8.283  11.094   8.756  0.2575 -0.0238  0.1294
  345loPI   C5A 5515   8.097  11.052   8.319  0.2919 -0.2491  0.1290
  345loPI   C6A 5516   7.942  10.962   7.924 -0.1430 -0.0222 -0.0210
  345loPI   C1B 5517   8.681  10.820   9.778 -0.1512  0.0690 -0.0175
  345loPI   C2B 5518   8.738  10.943   9.362 -0.2695 -0.0699  0.0322
  345loPI   C3B 5519   8.762  11.103   8.943  0.4019  0.0173 -0.1485
  345loPI   C4B 5520   8.755  11.206   8.451 -0.1425 -0.3869 -0.1718
  346loPI    C1 5521   6.774  17.179  11.289  0.1353 -0.2993 -0.1220
  346loPI    C2 5522   6.832  17.480  11.546 -0.0517 -0.0806 -0.3312
  346loPI    C3 5523   7.057  17.150  11.569 -0.0432 -0.0500  0.0888
  346loPI   PO4 5524   6.726  17.332  11.033  0.0578  0.0311  0.0361
  346loPI   GL1 5525   6.566  17.296  10.785 -0.3668 -0.1782  0.0021
  346loPI   GL2 5526   6.393  17.050  10.815  0.0800 -0.1613 -0.0290
  346loPI   C1A 5527   6.508  17.267  10.328 -0.0625  0.1652  0.1629
  346loPI   C2A 5528   6.523  17.252   9.925 -0.0134 -0.0818 -0.0025
  346loPI   C3A 5529   6.609  17.285   9.457  0.2535  0.3053 -0.0355
  346loPI   C4A 5530   6.587  17.392   8.987 -0.0239  0.1206  0.1912
  346loPI   C5A 5531   6.607  17.389   8.526 -0.0987 -0.1189 -0.1432
  346loPI   C6A 5532   6.259  17.357   8.281 -0.2240  0.2662 -0.3692
  346loPI   C1B 5533   6.091  17.047  10.433 -0.0234  0.2740 -0.3748
  346loPI   C2B 5534   6.122  16.960  10.025  0.2422 -0.0454  0.0565
  346loPI   C3B 5535   6.137  17.022   9.607  0.2867 -0.5788  0.0699
  346loPI   C4B 5536   6.183  16.954   9.180 -0.0153  0.1057 -0.2636
  347loPI    C1 5537  11.318  14.025  10.974 -0.1234 -0.1684 -0.1571
  347loPI    C2 5538  11.471  13.758  11.230 -0.1118 -0.0197 -0.0070
  347loPI    C3 5539  11.133  13.951  11.321 -0.0060  0.1734 -0.0174
  347loPI   PO4 5540  11.305  13.959  10.746 -0.1018  0.0877 -0.0388
  347loPI   GL1 5541  11.252  13.690  10.500  0.1024  0.2321 -0.2595
  347loPI   GL2 5542  11.204  13.365  10.493  0.0573 -0.2583  0.0625
  347loPI   C1A 5543  11.428  13.825  10.133 -0.2036  0.0194 -0.1623
  347loPI   C2A 5544  11.522  13.789   9.733 -0.1052 -0.1039  0.2905
  347loPI   C3A 5545  11.520  13.872   9.274 -0.0610  0.1590 -0.2929
  347loPI   C4A 5546  11.618  13.979   8.830  0.2309  0.0704  0.0854
  347loPI   C5A 5547  11.447  14.152   8.406 -0.0390  0.1261 -0.0341
  347loPI   C6A 5548  11.022  13.961   8.252  0.2575 -0.1222  0.2528
  347loPI   C1B 5549  11.135  13.348  10.092  0.0292 -0.0119 -0.0005
  347loPI   C2B 5550  11.225  13.412   9.577  0.1944 -0.0375 -0.3863
  347loPI   C3B 5551  11.082  13.561   9.134  0.0491 -0.0977 -0.1165
  347loPI   C4B 5552  11.298  13.651   8.755 -0.1445  0.3053 -0.1493
  348loPI    C1 5553   6.881   6.126  11.227 -0.1422  0.1000 -0.0290
  348loPI    C2 5554   7.125   5.898  11.447 -0.2524 -0.1066 -0.1180
  348loPI    C3 5555   6.809   6.075  11.617 -0.2047 -0.0745 -0.0625
  348loPI   PO4 5556   6.816   5.961  11.076  0.0752 -0.1460  0.0067
  348loPI   GL1 5557   6.527   5.965  10.699 -0.0636 -0.0314  0.2501
  348loPI   GL2 5558   6.597   6.319  10.709 -0.5418 -0.0327  0.1634
  348loPI   C1A 5559   6.561   5.838  10.244  0.1222 -0.4009 -0.4348
  348loPI   C2A 5560   6.643   5.870   9.806  0.0417 -0.1775  0.3131
  348loPI   C3A 5561   6.624   5.735   9.428  0.0787 -0.0520  0.2367
  348loPI   C4A 5562   6.626   5.812   8.977  0.0284 -0.0469  0.3111
  348loPI   C5A 5563   6.652   5.810   8.510 -0.0316  0.0879 -0.0276
  348loPI   C6A 5564   6.715   5.897   8.102 -0.2052  0.1075  0.0916
  348loPI   C1B 5565   6.482   6.339  10.243  0.1893 -0.1092  0.0858
  348loPI   C2B 5566   6.458   6.335   9.834 -0.1645 -0.3047 -0.1168
  348loPI   C3B 5567   6.571   6.347   9.327  0.1708 -0.0117 -0.1815
  348loPI   C4B 5568   6.631   6.408   8.864 -0.1253  0.1149 -0.0322
  349loPI    C1 5569   5.115   4.209  11.500  0.2360 -0.1180  0.0371
  349loPI    C2 5570   5.196   3.833  11.610  0.0307 -0.1402  0.1158
  349loPI    C3 5571   5.099   4.106  11.886  0.1503 -0.0358  0.0558
  349loPI   PO4 5572   5.171   4.203  11.286  0.1823 -0.4312  0.2722
  349loPI   GL1 5573   5.345   4.254  10.879  0.1864  0.1119  0.1763
  349loPI   GL2 5574   5.609   4.250  10.874 -0.2471 -0.0867  0.2031
  349loPI   C1A 5575   5.136   4.363  10.502 -0.0807 -0.2280  0.3067
  349loPI   C2A 5576   5.182   4.414  10.036  0.1944 -0.0389 -0.0169
  349loPI   C3A 5577   5.021   4.402   9.646  0.1040  0.0696  0.3241
  349loPI   C4A 5578   5.055   4.406   9.205 -0.1517 -0.2578 -0.2283
  349loPI   C5A 5579   4.974   4.507   8.794 -0.0040  0.1854  0.0184
  349loPI   C6A 5580   5.190   4.420   8.363  0.0548  0.0241  0.0782
  349loPI   C1B 5581   5.660   4.351  10.423 -0.4177 -0.3675  0.0133
  349loPI   C2B 5582   5.672   4.300   9.990 -0.1331  0.1374 -0.2351
  349loPI   C3B 5583   5.509   4.344   9.620  0.0446 -0.1839 -0.1299
  349loPI   C4B 5584   5.615   4.271   9.213  0.2203 -0.0105  0.0896
  350loPI    C1 5585   4.076   7.135  11.481 -0.1746  0.3833  0.0427
  350loPI    C2 5586   3.861   6.894  11.717  0.1593 -0.1298 -0.1612
  350loPI    C3 5587   4.182   7.083  11.863  0.0819 -0.0590 -0.0818
  350loPI   PO4 5588   4.070   6.983  11.249  0.0917 -0.1213 -0.1947
  350loPI   GL1 5589   4.191   6.875  10.924  0.2183 -0.1498 -0.1546
  350loPI   GL2 5590   4.063   7.102  10.715  0.0402 -0.2292  0.0183
  350loPI   C1A 5591   4.505   6.875  10.555 -0.0605 -0.2501  0.1203
  350loPI   C2A 5592   4.609   6.933  10.153  0.0492  0.1218 -0.4246
  350loPI   C3A 5593   4.547   6.929   9.722 -0.4356 -0.2450 -0.0402
  350loPI   C4A 5594   4.583   7.086   9.336  0.0278  0.0736 -0.1660
  350loPI   C5A 5595   4.590   6.921   8.872  0.1723 -0.1676 -0.2880
  350loPI   C6A 5596   4.651   7.202   8.516  0.2016 -0.2601  0.2730
  350loPI   C1B 5597   4.123   7.039  10.224 -0.1863 -0.0418  0.3429
  350loPI   C2B 5598   3.994   7.115   9.981 -0.1236 -0.0036 -0.0013
  350loPI   C3B 5599   4.104   7.116   9.501  0.1554  0.3424  0.0474
  350loPI   C4B 5600   4.125   7.240   9.042 -0.0085 -0.4409 -0.1444
  351loPI    C1 5601  16.038   8.383  11.254  0.1430  0.4795 -0.1054
  351loPI    C2 5602  15.995   8.627  11.568 -0.0956  0.0964  0.1681
  351loPI    C3 5603  15.701   8.375  11.469  0.0982  0.0018 -0.1831
  351loPI   PO4 5604  16.243   8.637  11.042 -0.1357 -0.1141  0.2324
  351loPI   GL1 5605  16.443   8.800  10.699 -0.0381  0.0770 -0.0647
  351loPI   GL2 5606  16.250   9.036  10.567 -0.1065  0.0118 -0.1716
  351loPI   C1A 5607  16.672   8.543  10.515 -0.0338  0.1433  0.2112
  351loPI   C2A 5608  16.858   8.483  10.147  0.1724 -0.2944  0.2212
  351loPI   C3A 5609  17.018   8.389   9.714  0.1013 -0.2904 -0.3936
  351loPI   C4A 5610  16.830   8.381   9.426  0.0917  0.1653  0.1763
  351loPI   C5A 5611  16.816   8.318   8.999  0.1665  0.1142  0.1533
  351loPI   C6A 5612  16.958   8.159   8.677 -0.1941  0.1896  0.0935
  351loPI   C1B 5613  16.193   9.114  10.104  0.0739 -0.0840  0.2396
  351loPI   C2B 5614  16.262   9.050   9.547 -0.1120 -0.0689  0.2026
  351loPI   C3B 5615  16.247   9.001   9.079  0.0911  0.2389 -0.0727
  351loPI   C4B 5616  16.207   9.059   8.653 -0.0575  0.1479 -0.1383
  352loPI    C1 5617  16.795  12.559  11.093 -0.1028 -0.2127 -0.0229
  352loPI    C2 5618  17.148  12.373  11.118 -0.0084 -0.0368 -0.0308
  352loPI    C3 5619  17.063  12.674  11.367 -0.2767 -0.2784  0.1775
  352loPI   PO4 5620  16.764  12.563  10.797  0.0695  0.0533 -0.4293
  352loPI   GL1 5621  16.840  12.811  10.499 -0.0388 -0.1922 -0.1868
  352loPI   GL2 5622  17.049  12.994  10.463 -0.0308  0.0486 -0.1005
  352loPI   C1A 5623  16.663  12.675  10.096  0.1080 -0.1110 -0.1151
  352loPI   C2A 5624  16.755  12.688   9.685  0.0861 -0.0114 -0.1135
  352loPI   C3A 5625  16.952  12.640   9.318  0.1707  0.1674 -0.2746
  352loPI   C4A 5626  16.939  12.588   8.808 -0.2152 -0.0417  0.1714
  352loPI   C5A 5627  17.184  12.690   8.468  0.0618  0.1629 -0.0981
  352loPI   C6A 5628  17.030  12.917   8.159  0.0450  0.0306 -0.0205
  352loPI   C1B 5629  17.196  12.975  10.072  0.2602  0.0993  0.1797
  352loPI   C2B 5630  17.219  13.023   9.606 -0.2257  0.1879 -0.2200
  352loPI   C3B 5631  17.158  13.044   9.258  0.0944  0.0190  0.0907
  352loPI   C4B 5632  17.275  13.053   8.800 -0.0160 -0.2056  0.0857
  353loPI    C1 5633   5.990  16.708  11.291 -0.0045 -0.0400  0.2188
  353loPI    C2 5634   5.598  16.671  11.364 -0.0155 -0.1057  0.1279
  353loPI    C3 5635   5.843  16.808  11.649 -0.1471  0.2076  0.0939
  353loPI   PO4 5636   5.966  16.851  11.072  0.4199 -0.2337  0.5206
  353loPI   GL1 5637   5.580  16.850  10.891 -0.0118 -0.1284  0.0201
  353loPI   GL2 5638   5.498  17.132  10.876  0.3307  0.3652  0.2011
  353loPI   C1A 5639   5.636  16.627  10.382 -0.1046 -0.3026  0.0459
  353loPI   C2A 5640   5.745  16.644   9.940  0.0083  0.0371  0.0499
  353loPI   C3A 5641   5.745  16.617   9.408  0.0054  0.3526  0.1592
  353loPI   C4A 5642   5.831  16.623   9.055 -0.1934  0.0523  0.2803
  353loPI   C5A 5643   5.647  16.508   8.611 -0.1088 -0.1680  0.1914
  353loPI   C6A 5644   5.731  16.285   8.302 -0.0090  0.0443 -0.0452
  353loPI   C1B 5645   5.618  17.210  10.500 -0.1189 -0.0201 -0.0903
  353loPI   C2B 5646   5.630  17.121  10.039 -0.3381 -0.0967  0.2326
  353loPI   C3B 5647   5.670  17.070   9.499  0.2216  0.1939 -0.0198
  353loPI   C4B 5648   5.702  17.133   9.078  0.0102 -0.1836  0.0373
  354loPI    C1 5649  10.225  14.598  10.949  0.1695 -0.0588 -0.0149
  354loPI    C2 5650  10.292  14.847  11.255 -0.0624 -0.1186  0.0860
  354loPI    C3 5651  10.255  14.454  11.320 -0.2401 -0.1175 -0.0003
  354loPI   PO4 5652  10.073  14.809  10.810 -0.0619 -0.0994 -0.2210
  354loPI   GL1 5653  10.088  14.868  10.350 -0.0268  0.1216  0.4970
  354loPI   GL2 5654  10.284  15.118  10.429  0.1635 -0.1611  0.0764
  354loPI   C1A 5655   9.970  14.903   9.951 -0.0347 -0.1283  0.3880
  354loPI   C2A 5656   9.838  14.796   9.605 -0.0724  0.0101  0.1144
  354loPI   C3A 5657   9.831  14.949   9.155  0.0818  0.3555  0.0839
  354loPI   C4A 5658   9.955  14.848   8.839 -0.0500  0.2111 -0.0954
  354loPI   C5A 5659  10.060  14.488   8.605 -0.1291  0.2948  0.0106
  354loPI   C6A 5660  10.124  14.008   8.546 -0.3132  0.0495 -0.0873
  354loPI   C1B 5661  10.266  15.264  10.072 -0.2248  0.2635  0.2360
  354loPI   C2B 5662  10.163  15.213   9.646  0.3799 -0.1580  0.2263
  354loPI   C3B 5663  10.220  15.153   9.217 -0.0342  0.2840 -0.0549
  354loPI   C4B 5664  10.355  15.237   8.905 -0.1748  0.1003 -0.2583
  355loPI    C1 5665   6.925   9.744  11.121  0.0921 -0.1913 -0.1002
  355loPI    C2 5666   6.604   9.840  11.339  0.0677 -0.0565 -0.1940
  355loPI    C3 5667   6.907   9.640  11.507  0.0537  0.0550 -0.0336
  355loPI   PO4 5668   6.815   9.815  10.834 -0.1636  0.2743  0.1299
  355loPI   GL1 5669   7.044   9.568  10.586  0.1589 -0.0715 -0.2148
  355loPI   GL2 5670   6.735   9.470  10.443  0.1068  0.0917  0.1622
  355loPI   C1A 5671   7.059   9.868  10.156  0.2104 -0.0170  0.0962
  355loPI   C2A 5672   7.085   9.984   9.652 -0.2602  0.0027 -0.0421
  355loPI   C3A 5673   7.078   9.956   9.245 -0.2090 -0.1473  0.0322
  355loPI   C4A 5674   7.048   9.748   8.820 -0.0212  0.1663 -0.0235
  355loPI   C5A 5675   7.034   9.598   8.381 -0.1161 -0.1102 -0.0695
  355loPI   C6A 5676   7.014   9.198   8.003 -0.2367 -0.0631  0.3179
  355loPI   C1B 5677   6.708   9.580   9.990 -0.1696 -0.0110  0.0815
  355loPI   C2B 5678   6.718   9.650   9.584 -0.1831  0.0878  0.0390
  355loPI   C3B 5679   6.636   9.616   9.210  0.0784 -0.2694  0.0984
  355loPI   C4B 5680   6.602   9.682   8.699  0.1847  0.1269  0.3265
  356loPI    C1 5681  17.061   9.422  11.671 -0.0375  0.0736  0.2839
  356loPI    C2 5682  16.958   9.045  11.758 -0.0260  0.0062  0.0149
  356loPI    C3 5683  17.191   9.252  12.009 -0.1552 -0.1135  0.2362
  356loPI   PO4 5684  17.098   9.375  11.359 -0.0796 -0.0884  0.0687
  356loPI   GL1 5685  17.167   9.205  10.897  0.0172  0.2732 -0.0027
  356loPI   GL2 5686  17.095   8.868  10.840  0.0394  0.0086  0.0655
  356loPI   C1A 5687  17.368   9.133  10.411  0.1464 -0.2924 -0.1400
  356loPI   C2A 5688  17.318   9.090   9.964  0.0393 -0.4855 -0.0924
  356loPI   C3A 5689  17.198   9.191   9.526  0.3360  0.1210  0.4690
  356loPI   C4A 5690  17.110   9.191   9.190 -0.1483  0.3449  0.4153
  356loPI   C5A 5691  17.129   9.312   8.787  0.2499  0.2153 -0.1139
  356loPI   C6A 5692  17.003   9.682   8.697  0.2567  0.2061  0.0223
  356loPI   C1B 5693  17.208   8.663  10.407  0.1870  0.0683 -0.1812
  356loPI   C2B 5694  17.332   8.571  10.041  0.1357  0.3034 -0.0672
  356loPI   C3B 5695  17.344   8.772   9.656  0.1746 -0.0972  0.1592
  356loPI   C4B 5696  17.206   8.705   9.287 -0.0362  0.0793  0.0346
  357loPI    C1 5697  10.263   0.663  11.273  0.1242 -0.1075 -0.2681
  357loPI    C2 5698  10.361   0.394  11.552  0.1100  0.0733 -0.0866
  357loPI    C3 5699  10.645   0.617  11.380  0.0967  0.1002 -0.0738
  357loPI   PO4 5700  10.174   0.502  11.076  0.0927  0.1204  0.2505
  357loPI   GL1 5701  10.216   0.682  10.635  0.2337 -0.0105 -0.4114
  357loPI   GL2 5702  10.082   0.359  10.581  0.1652  0.0322  0.0507
  357loPI   C1A 5703  10.465   0.730  10.331 -0.1400 -0.1922  0.0195
  357loPI   C2A 5704  10.467   0.766  10.005 -0.1396 -0.2241  0.1953
  357loPI   C3A 5705  10.473   0.776   9.591  0.1149  0.2608 -0.1488
  357loPI   C4A 5706  10.393   0.823   9.210  0.0150  0.1302 -0.0004
  357loPI   C5A 5707  10.591   0.896   8.781 -0.0772 -0.0139  0.1044
  357loPI   C6A 5708  10.905   1.084   8.566 -0.1222 -0.0530  0.0328
  357loPI   C1B 5709  10.085   0.403  10.086 -0.1373  0.2252 -0.1635
  357loPI   C2B 5710  10.035   0.424   9.598 -0.1273  0.2393  0.2630
  357loPI   C3B 5711   9.904   0.512   9.202  0.0331  0.0152 -0.3253
  357loPI   C4B 5712  10.067   0.745   8.778 -0.2141 -0.2564 -0.1466
  358loPI    C1 5713   9.444   3.003  11.234 -0.0610  0.0277 -0.1356
  358loPI    C2 5714   9.521   3.194  11.577 -0.0143 -0.0482 -0.1037
  358loPI    C3 5715   9.531   2.795  11.564 -0.0174 -0.0456 -0.1933
  358loPI   PO4 5716   9.234   3.077  11.072  0.0346 -0.0015  0.0601
  358loPI   GL1 5717   9.206   3.184  10.670  0.1181  0.0410 -0.1913
  358loPI   GL2 5718   9.311   3.510  10.636 -0.0050 -0.1382 -0.3066
  358loPI   C1A 5719   9.084   3.117  10.238 -0.2609  0.0180 -0.1032
  358loPI   C2A 5720   9.085   3.128   9.737  0.2171  0.2643  0.0804
  358loPI   C3A 5721   9.029   3.197   9.355 -0.3097  0.4892  0.1339
  358loPI   C4A 5722   9.026   3.060   8.903 -0.0279 -0.1224 -0.3157
  358loPI   C5A 5723   9.253   3.148   8.593 -0.3130  0.1484  0.0362
  358loPI   C6A 5724   9.564   3.012   8.332 -0.1770 -0.2940  0.1057
  358loPI   C1B 5725   9.452   3.539  10.205 -0.2332  0.1088 -0.3455
  358loPI   C2B 5726   9.392   3.483   9.806 -0.3077  0.1429 -0.0860
  358loPI   C3B 5727   9.449   3.450   9.422  0.2785  0.2231  0.0182
  358loPI   C4B 5728   9.370   3.458   9.044  0.1059 -0.0867  0.0197
  359loPI    C1 5729   1.860  12.725  11.243  0.0275 -0.0873 -0.2534
  359loPI    C2 5730   2.035  12.632  11.591 -0.0721 -0.1734 -0.2258
  359loPI    C3 5731   1.643  12.570  11.541 -0.1364  0.2037 -0.2171
  359loPI   PO4 5732   2.090  12.980  11.263  0.1354 -0.4060  0.1285
  359loPI   GL1 5733   2.192  13.137  10.797 -0.1629  0.1751 -0.1198
  359loPI   GL2 5734   2.210  13.410  10.698  0.1092  0.1282  0.0838
  359loPI   C1A 5735   2.424  13.078  10.402  0.0387  0.0200 -0.1182
  359loPI   C2A 5736   2.379  12.957  10.024  0.0587  0.3163 -0.1435
  359loPI   C3A 5737   2.429  13.038   9.555  0.0116  0.4802 -0.2206
  359loPI   C4A 5738   2.428  12.991   9.210  0.2413  0.0998  0.4095
  359loPI   C5A 5739   2.274  13.134   8.933  0.0453 -0.0754  0.2380
  359loPI   C6A 5740   2.361  13.303   8.642  0.2660  0.1809 -0.1495
  359loPI   C1B 5741   2.254  13.561  10.313  0.0218 -0.0223 -0.1620
  359loPI   C2B 5742   2.337  13.458   9.946 -0.0351 -0.0730 -0.2420
  359loPI   C3B 5743   2.311  13.503   9.547 -0.2893 -0.2497  0.0161
  359loPI   C4B 5744   2.324  13.591   9.153 -0.0891 -0.0904  0.1020
  360loPI    C1 5745  12.202   9.222  10.999 -0.2577 -0.0064  0.0095
  360loPI    C2 5746  12.425   9.008  10.745 -0.1924  0.4193 -0.3026
  360loPI    C3 5747  12.032   8.940  10.773 -0.0847 -0.1221  0.0215
  360loPI   PO4 5748  12.411   9.431  10.949  0.1247  0.1912 -0.1250
  360loPI   GL1 5749  12.355   9.609  10.484  0.0089 -0.0547 -0.1768
  360loPI   GL2 5750  12.524   9.284  10.263 -0.1570 -0.0306 -0.2338
  360loPI   C1A 5751  12.246   9.693  10.036  0.1972  0.3631  0.0915
  360loPI   C2A 5752  12.264   9.807   9.573  0.1499  0.1087  0.0568
  360loPI   C3A 5753  12.253   9.831   9.240  0.0259 -0.3019  0.2088
  360loPI   C4A 5754  12.292   9.792   8.746 -0.0155 -0.0529 -0.0271
  360loPI   C5A 5755  12.380   9.837   8.284  0.1058  0.0212 -0.1400
  360loPI   C6A 5756  12.282  10.235   8.164  0.1722  0.1117  0.0414
  360loPI   C1B 5757  12.719   9.443   9.906  0.0031  0.1195 -0.2130
  360loPI   C2B 5758  12.820   9.597   9.425  0.0350 -0.0250 -0.2806
  360loPI   C3B 5759  12.756   9.622   8.964  0.0684 -0.2309  0.0461
  360loPI   C4B 5760  13.054   9.563   8.684  0.2308  0.0216 -0.2349
  361loPI    C1 5761   6.458   6.379  11.305  0.0749 -0.2548  0.1712
  361loPI    C2 5762   6.680   6.593  11.051  0.0172 -0.3956 -0.0001
  361loPI    C3 5763   6.769   6.590  11.440  0.0453 -0.0976 -0.0017
  361loPI   PO4 5764   6.240   6.446  11.272 -0.1457  0.1242 -0.2985
  361loPI   GL1 5765   5.925   6.367  10.914 -0.2818  0.0186 -0.1185
  361loPI   GL2 5766   6.117   6.184  10.844 -0.2764  0.1990  0.0093
  361loPI   C1A 5767   5.933   6.468  10.468  0.0005 -0.1490 -0.0637
  361loPI   C2A 5768   6.028   6.530  10.051  0.1369 -0.0486 -0.2686
  361loPI   C3A 5769   6.037   6.465   9.639  0.3332  0.1554  0.1283
  361loPI   C4A 5770   6.133   6.534   9.232 -0.0597  0.0098 -0.4144
  361loPI   C5A 5771   6.115   6.544   8.867 -0.0353 -0.1401 -0.1926
  361loPI   C6A 5772   6.094   6.284   8.488 -0.0169  0.4993  0.0034
  361loPI   C1B 5773   6.036   5.965  10.383 -0.0532  0.0122 -0.1316
  361loPI   C2B 5774   6.149   5.943   9.938  0.3134  0.0946  0.0781
  361loPI   C3B 5775   6.201   5.932   9.497  0.0975  0.2250  0.0481
  361loPI   C4B 5776   6.199   6.063   9.130 -0.3110 -0.1020  0.1962
  362loPI    C1 5777  17.200   1.582  11.215 -0.0943 -0.0597  0.0186
  362loPI    C2 5778  17.215   1.306  11.504 -0.1636  0.0022  0.0818
  362loPI    C3 5779  16.879   1.515  11.444 -0.1506 -0.0125 -0.0462
  362loPI   PO4 5780  17.274   1.527  11.009 -0.1542  0.3313  0.0806
  362loPI   GL1 5781  17.150   1.440  10.639 -0.3937 -0.0940  0.1120
  362loPI   GL2 5782  17.268   1.437  10.457 -0.0840 -0.1068 -0.0661
  362loPI   C1A 5783  16.822   1.589  10.347 -0.3806 -0.4893 -0.0705
  362loPI   C2A 5784  16.870   1.574   9.942 -0.2119 -0.0451 -0.0730
  362loPI   C3A 5785  16.834   1.593   9.553 -0.1949  0.0012 -0.0506
  362loPI   C4A 5786  16.949   1.557   9.072  0.0874 -0.2434  0.1584
  362loPI   C5A 5787  16.772   1.589   8.679 -0.1139 -0.0245 -0.3827
  362loPI   C6A 5788  16.669   1.850   8.300  0.0260 -0.1614  0.3466
  362loPI   C1B 5789  17.398   1.457  10.105  0.0324 -0.1613  0.0550
  362loPI   C2B 5790  17.374   1.512   9.694 -0.0462  0.1714 -0.0598
  362loPI   C3B 5791  17.375   1.503   9.273  0.0995  0.0425 -0.0851
  362loPI   C4B 5792  17.444   1.370   8.828 -0.0079  0.0030  0.0696
  363loPI    C1 5793  14.682   9.641  11.175  0.0024 -0.1270 -0.0622
  363loPI    C2 5794  14.465   9.961  11.074 -0.0015 -0.1697 -0.1923
  363loPI    C3 5795  14.687   9.966  11.407  0.1385  0.0347 -0.2869
  363loPI   PO4 5796  14.753   9.596  10.949 -0.1559  0.0838  0.2214
  363loPI   GL1 5797  14.865   9.598  10.602  0.0603 -0.2404 -0.0141
  363loPI   GL2 5798  14.507   9.564  10.494  0.2537 -0.2456  0.0729
  363loPI   C1A 5799  15.059   9.891  10.338  0.1805  0.0212 -0.1498
  363loPI   C2A 5800  14.968   9.984   9.988  0.1634  0.0805 -0.2995
  363loPI   C3A 5801  14.997   9.946   9.578  0.0621  0.0592  0.0127
  363loPI   C4A 5802  15.166   9.896   9.125  0.0677 -0.1749 -0.3003
  363loPI   C5A 5803  15.271   9.816   8.671  0.0124 -0.1583 -0.0176
  363loPI   C6A 5804  15.429   9.403   8.470  0.2066  0.0565 -0.0306
  363loPI   C1B 5805  14.675   9.623  10.059  0.0707 -0.0467  0.0838
  363loPI   C2B 5806  14.655   9.616   9.551 -0.1933  0.4380 -0.0667
  363loPI   C3B 5807  14.791   9.511   9.131 -0.3519 -0.1178 -0.0398
  363loPI   C4B 5808  15.004   9.436   8.778 -0.1082 -0.0459 -0.0251
  364loPI    C1 5809   9.288   4.822  11.215 -0.1408  0.1005 -0.1123
  364loPI    C2 5810   9.664   4.714  11.299 -0.1924 -0.1670 -0.2158
  364loPI    C3 5811   9.408   4.793  11.595 -0.1034 -0.1554 -0.1417
  364loPI   PO4 5812   9.265   4.679  10.998  0.1621 -0.0704 -0.0297
  364loPI   GL1 5813   9.161   4.724  10.666  0.0883  0.2216 -0.3722
  364loPI   GL2 5814   8.928   4.547  10.648 -0.1824 -0.1163 -0.0611
  364loPI   C1A 5815   9.180   4.637  10.164  0.1216 -0.0852 -0.0476
  364loPI   C2A 5816   9.245   4.490   9.680  0.0121 -0.1847  0.0059
  364loPI   C3A 5817   9.296   4.508   9.208  0.0552  0.1316 -0.1272
  364loPI   C4A 5818   9.293   4.510   8.784  0.0746 -0.1419 -0.2623
  364loPI   C5A 5819   9.164   4.504   8.431 -0.2632 -0.0673 -0.0556
  364loPI   C6A 5820   8.994   4.501   8.071 -0.0168 -0.0422 -0.1350
  364loPI   C1B 5821   8.810   4.286  10.369 -0.1813  0.0131 -0.0613
  364loPI   C2B 5822   8.944   4.240   9.987 -0.1794  0.2194 -0.1595
  364loPI   C3B 5823   8.822   4.237   9.542 -0.1766  0.0426 -0.1440
  364loPI   C4B 5824   8.852   4.199   9.158 -0.0430  0.0936 -0.2460
  365loPI    C1 5825   8.794   2.310  11.429  0.1402 -0.3233  0.3000
  365loPI    C2 5826   8.601   2.593  11.636  0.0427  0.0199 -0.2391
  365loPI    C3 5827   8.985   2.512  11.717  0.0406  0.2281 -0.0082
  365loPI   PO4 5828   8.707   2.412  11.202  0.0012  0.0183 -0.2045
  365loPI   GL1 5829   8.515   2.476  10.786 -0.0695  0.2600  0.1503
  365loPI   GL2 5830   8.821   2.224  10.692  0.2071 -0.0606 -0.0656
  365loPI   C1A 5831   8.382   2.446  10.415 -0.1224 -0.1589 -0.2050
  365loPI   C2A 5832   8.406   2.469   9.986  0.3541  0.0734 -0.5626
  365loPI   C3A 5833   8.254   2.513   9.499 -0.0498  0.1411  0.3154
  365loPI   C4A 5834   8.365   2.448   9.137 -0.0342 -0.2423 -0.0864
  365loPI   C5A 5835   8.298   2.474   8.746 -0.0324 -0.2384  0.3565
  365loPI   C6A 5836   8.109   2.860   8.510 -0.0046  0.1251 -0.1867
  365loPI   C1B 5837   8.848   2.297  10.246 -0.2069  0.0752  0.1481
  365loPI   C2B 5838   8.843   2.378   9.777  0.3834  0.0585  0.2322
  365loPI   C3B 5839   8.809   2.269   9.356 -0.2450  0.0956  0.2609
  365loPI   C4B 5840   8.766   2.395   8.909 -0.0811 -0.3595  0.0378
  366loPI    C1 5841   6.064   5.512  11.503 -0.0493 -0.0731  0.0607
  366loPI    C2 5842   6.261   5.284  11.766 -0.0480 -0.0524  0.0777
  366loPI    C3 5843   5.862   5.315  11.787 -0.0352  0.0624  0.1656
  366loPI   PO4 5844   6.209   5.467  11.295 -0.0192  0.1882  0.3770
  366loPI   GL1 5845   6.126   5.174  10.887  0.1569 -0.2066 -0.1974
  366loPI   GL2 5846   6.429   5.055  10.723  0.1347 -0.0329 -0.0462
  366loPI   C1A 5847   5.941   5.095  10.469 -0.1332 -0.0853 -0.2847
  366loPI   C2A 5848   5.903   5.031  10.056  0.0506 -0.3426 -0.1852
  366loPI   C3A 5849   5.902   5.165   9.640  0.3319  0.1436  0.0682
  366loPI   C4A 5850   5.867   5.134   9.178 -0.0665  0.3203 -0.2374
  366loPI   C5A 5851   5.837   5.345   8.745  0.1420 -0.1907 -0.3634
  366loPI   C6A 5852   5.844   5.201   8.357 -0.2440 -0.0423 -0.3558
  366loPI   C1B 5853   6.391   4.927  10.336  0.0725  0.0017 -0.0112
  366loPI   C2B 5854   6.389   4.968   9.854 -0.1104  0.1224 -0.1611
  366loPI   C3B 5855   6.388   4.989   9.307 -0.3519  0.2616 -0.3304
  366loPI   C4B 5856   6.217   4.906   8.809 -0.0438 -0.1184 -0.1688
  367loPI    C1 5857   3.334   8.373  11.491 -0.0274 -0.0950  0.1096
  367loPI    C2 5858   3.091   8.080  11.612 -0.1802  0.0492  0.1547
  367loPI    C3 5859   3.184   8.379  11.862 -0.1713  0.1345  0.0500
  367loPI   PO4 5860   3.327   8.272  11.190 -0.0050  0.0140  0.0620
  367loPI   GL1 5861   3.520   8.216  10.821  0.0827 -0.0166 -0.1005
  367loPI   GL2 5862   3.739   8.474  10.902  0.0552  0.2238  0.0002
  367loPI   C1A 5863   3.321   8.195  10.436  0.1403  0.0608  0.1574
  367loPI   C2A 5864   3.372   8.308  10.011  0.0166  0.3081 -0.1284
  367loPI   C3A 5865   3.487   8.401   9.580  0.2829  0.1184 -0.1788
  367loPI   C4A 5866   3.423   8.337   9.205 -0.1043 -0.0367  0.0486
  367loPI   C5A 5867   3.446   8.573   8.767 -0.0689 -0.2883 -0.0215
  367loPI   C6A 5868   3.136   8.409   8.381  0.0007  0.0275 -0.1541
  367loPI   C1B 5869   3.770   8.542  10.516  0.0505  0.0462 -0.0512
  367loPI   C2B 5870   3.845   8.614  10.054  0.0581 -0.3738 -0.2460
  367loPI   C3B 5871   3.841   8.757   9.621  0.2881 -0.5261  0.1765
  367loPI   C4B 5872   3.820   8.712   9.169 -0.0078 -0.0944 -0.0935
  368loPI    C1 5873  14.059   3.354  11.085  0.2732  0.0372 -0.5148
  368loPI    C2 5874  14.176   3.026  11.282 -0.1655  0.2002  0.0415
  368loPI    C3 5875  14.354   3.377  11.354 -0.0927  0.1965 -0.1167
  368loPI   PO4 5876  14.055   3.325  10.786  0.0257  0.2238  0.2916
  368loPI   GL1 5877  13.995   3.445  10.372 -0.2575  0.2701 -0.1956
  368loPI   GL2 5878  13.613   3.569  10.457 -0.0521 -0.1446  0.0054
  368loPI   C1A 5879  14.149   3.440  10.059 -0.1521 -0.1563  0.0397
  368loPI   C2A 5880  14.218   3.496   9.620 -0.2754 -0.0014 -0.1431
  368loPI   C3A 5881  14.122   3.469   9.181 -0.2926 -0.1005  0.0104
  368loPI   C4A 5882  14.198   3.380   8.718 -0.1387 -0.0458  0.0817
  368loPI   C5A 5883  13.971   3.078   8.488 -0.0350 -0.1339 -0.0885
  368loPI   C6A 5884  13.632   2.837   8.413 -0.1185  0.1698  0.0583
  368loPI   C1B 5885  13.652   3.529   9.959  0.0849 -0.0620  0.1985
  368loPI   C2B 5886  13.682   3.603   9.569 -0.1294  0.1120  0.0946
  368loPI   C3B 5887  13.576   3.586   9.162 -0.1862 -0.3626 -0.1085
  368loPI   C4B 5888  13.718   3.517   8.707  0.0664  0.3171  0.0913
  369loPI    C1 5889  13.104  16.177  11.084 -0.0329  0.2255 -0.0711
  369loPI    C2 5890  12.827  15.903  11.177 -0.0989  0.2369 -0.2313
  369loPI    C3 5891  12.960  16.157  11.457 -0.1244  0.1192 -0.1116
  369loPI   PO4 5892  13.215  16.101  10.921 -0.0248  0.1841 -0.2011
  369loPI   GL1 5893  13.286  16.157  10.479  0.1459  0.2018 -0.0117
  369loPI   GL2 5894  13.595  16.093  10.440  0.2089 -0.0009  0.2755
  369loPI   C1A 5895  13.263  16.253  10.115 -0.0014 -0.2660  0.1416
  369loPI   C2A 5896  13.325  16.234   9.700  0.2787 -0.0498  0.1186
  369loPI   C3A 5897  13.343  16.210   9.249 -0.1611 -0.1334 -0.2202
  369loPI   C4A 5898  13.267  16.164   8.793  0.2668  0.0378  0.1926
  369loPI   C5A 5899  13.488  16.238   8.442 -0.0298  0.0831  0.0563
  369loPI   C6A 5900  13.555  16.177   7.999  0.0092 -0.0714 -0.0514
  369loPI   C1B 5901  13.779  16.048   9.990 -0.0492  0.1528  0.3248
  369loPI   C2B 5902  13.832  16.096   9.569 -0.1461  0.2383 -0.1695
  369loPI   C3B 5903  13.855  15.986   9.136 -0.0522 -0.3406 -0.1952
  369loPI   C4B 5904  13.890  16.041   8.789  0.0721 -0.5334 -0.1230
  370loPI    C1 5905  13.006  10.805  10.971 -0.1451 -0.2292 -0.0884
  370loPI    C2 5906  12.909  10.581  11.288  0.1301 -0.0743  0.1095
  370loPI    C3 5907  12.638  10.825  11.125  0.0446 -0.0034  0.3541
  370loPI   PO4 5908  12.995  10.680  10.708 -0.1410 -0.1392 -0.4306
  370loPI   GL1 5909  13.064  10.705  10.288  0.0020 -0.1494  0.2985
  370loPI   GL2 5910  12.738  10.892  10.285 -0.3526 -0.2085  0.1146
  370loPI   C1A 5911  12.917  10.531   9.978 -0.2939 -0.0587  0.0616
  370loPI   C2A 5912  12.892  10.467   9.551 -0.2346  0.0126 -0.2751
  370loPI   C3A 5913  13.138  10.481   9.197  0.0094 -0.0571  0.3053
  370loPI   C4A 5914  13.212  10.415   8.734  0.0890  0.0198 -0.2365
  370loPI   C5A 5915  13.090  10.025   8.456 -0.2534  0.0037 -0.4412
  370loPI   C6A 5916  12.824   9.687   8.256  0.1455  0.0412 -0.0515
  370loPI   C1B 5917  12.990  11.096   9.962 -0.0086  0.1495  0.2933
  370loPI   C2B 5918  12.945  10.964   9.476  0.2261  0.0128  0.2191
  370loPI   C3B 5919  12.958  11.012   9.067  0.0742 -0.3149  0.1147
  370loPI   C4B 5920  12.975  11.119   8.706 -0.0135 -0.1247  0.0670
  371loPI    C1 5921   1.517   2.969  11.424 -0.0624  0.1246  0.1071
  371loPI    C2 5922   1.136   2.927  11.539 -0.0774 -0.0378  0.0019
  371loPI    C3 5923   1.376   3.184  11.730 -0.2150 -0.0002  0.1257
  371loPI   PO4 5924   1.483   2.979  11.147 -0.0681 -0.0524 -0.0995
  371loPI   GL1 5925   1.387   3.205  10.796 -0.2124 -0.0998 -0.2334
  371loPI   GL2 5926   1.640   3.134  10.657  0.1593 -0.2314 -0.2968
  371loPI   C1A 5927   1.189   3.344  10.534  0.1353 -0.2784 -0.1350
  371loPI   C2A 5928   1.218   3.405  10.146 -0.3022 -0.2920  0.1986
  371loPI   C3A 5929   1.120   3.332   9.759 -0.0159  0.0262 -0.2573
  371loPI   C4A 5930   1.072   3.360   9.377  0.0082  0.3132 -0.0144
  371loPI   C5A 5931   1.113   3.387   8.964  0.3700  0.1364 -0.0404
  371loPI   C6A 5932   1.261   2.869   8.692  0.1582  0.0276  0.2887
  371loPI   C1B 5933   1.692   3.191  10.239 -0.1061 -0.2191  0.0166
  371loPI   C2B 5934   1.651   3.165   9.845 -0.1531  0.1384 -0.1512
  371loPI   C3B 5935   1.627   3.224   9.390  0.0433 -0.0863  0.0487
  371loPI   C4B 5936   1.596   3.168   8.940 -0.0384  0.1122 -0.2284
  372loPI    C1 5937  12.206   1.038  11.449 -0.1044 -0.1447 -0.1183
  372loPI    C2 5938  11.828   0.953  11.348 -0.2388  0.0185  0.2327
  372loPI    C3 5939  11.914   1.299  11.531  0.1049  0.0492  0.0223
  372loPI   PO4 5940  12.348   0.998  11.199  0.0617 -0.3367 -0.1327
  372loPI   GL1 5941  12.330   1.236  10.805  0.1170  0.3800  0.2128
  372loPI   GL2 5942  12.569   0.965  10.591  0.4633 -0.0456 -0.1610
  372loPI   C1A 5943  12.204   1.259  10.276  0.1128  0.1962  0.0149
  372loPI   C2A 5944  12.281   1.231   9.854  0.1626  0.0070  0.0276
  372loPI   C3A 5945  12.212   1.246   9.535  0.0303  0.0068 -0.1333
  372loPI   C4A 5946  12.254   1.226   8.942  0.0072  0.1127  0.0767
  372loPI   C5A 5947  12.144   1.101   8.474 -0.5474 -0.0294 -0.1547
  372loPI   C6A 5948  12.510   0.909   8.284  0.0645 -0.0457  0.0834
  372loPI   C1B 5949  12.693   1.028  10.160 -0.1161 -0.0218  0.1562
  372loPI   C2B 5950  12.705   1.069   9.739 -0.4584  0.0431 -0.0357
  372loPI   C3B 5951  12.815   1.053   9.260 -0.1071  0.0581 -0.0867
  372loPI   C4B 5952  12.652   1.020   8.742  0.0145  0.3157 -0.0642
  373loPI    C1 5953  17.021   2.384  11.230 -0.1731  0.1518  0.0979
  373loPI    C2 5954  16.661   2.306  11.386 -0.1292  0.1466  0.1974
  373loPI    C3 5955  16.936   2.017  11.364 -0.1775  0.1149 -0.0054
  373loPI   PO4 5956  16.887   2.574  10.940 -0.1147  0.0700  0.0731
  373loPI   GL1 5957  16.861   2.325  10.645 -0.0107 -0.1339 -0.0211
  373loPI   GL2 5958  17.126   2.491  10.433  0.1710  0.1125  0.0731
  373loPI   C1A 5959  16.762   2.109  10.201  0.1012  0.1379 -0.0353
  373loPI   C2A 5960  16.877   2.095   9.741  0.1113 -0.1557 -0.0874
  373loPI   C3A 5961  16.786   2.055   9.276  0.1068 -0.0763  0.0335
  373loPI   C4A 5962  16.824   2.117   8.862 -0.0883  0.0076 -0.0207
  373loPI   C5A 5963  17.115   1.936   8.604 -0.0288 -0.0000  0.2583
  373loPI   C6A 5964  17.260   1.586   8.414  0.1133 -0.2213 -0.1286
  373loPI   C1B 5965  17.150   2.476  10.015  0.0607  0.1131  0.2147
  373loPI   C2B 5966  17.127   2.501   9.620 -0.0396  0.1190 -0.0905
  373loPI   C3B 5967  17.104   2.409   9.167  0.3163  0.0728  0.0837
  373loPI   C4B 5968  17.302   2.382   8.703 -0.0048 -0.0066  0.0425
  374loPI    C1 5969   7.503   0.739  11.340 -0.0090 -0.1222 -0.1190
  374loPI    C2 5970   7.383   0.635  11.707 -0.0637 -0.0836 -0.1259
  374loPI    C3 5971   7.771   0.697  11.634 -0.0781  0.1496 -0.0137
  374loPI   PO4 5972   7.344   0.486  11.265  0.1143  0.0266  0.1306
  374loPI   GL1 5973   7.285   0.450  10.920 -0.2343  0.0337  0.0992
  374loPI   GL2 5974   6.976   0.448  10.822 -0.3894 -0.1350 -0.0119
  374loPI   C1A 5975   7.374   0.372  10.429  0.1405 -0.3308 -0.0579
  374loPI   C2A 5976   7.296   0.428  10.074 -0.0929  0.0149  0.0725
  374loPI   C3A 5977   7.375   0.409   9.660  0.1333  0.2773  0.0883
  374loPI   C4A 5978   7.308   0.376   9.327  0.2849  0.1981  0.0807
  374loPI   C5A 5979   7.249   0.498   8.944  0.1859 -0.1047 -0.0920
  374loPI   C6A 5980   6.983   0.831   8.822 -0.2114  0.0890  0.0602
  374loPI   C1B 5981   6.753   0.583  10.444 -0.0182  0.2967 -0.6063
  374loPI   C2B 5982   6.826   0.557   9.975  0.0141  0.3456 -0.1573
  374loPI   C3B 5983   6.914   0.524   9.587  0.3253 -0.2253  0.0672
  374loPI   C4B 5984   6.847   0.534   9.215 -0.0495 -0.2416  0.3068
  375loPI    C1 5985  13.130   2.479  11.394 -0.0252 -0.2793 -0.2053
  375loPI    C2 5986  12.901   2.201  11.569  0.0136 -0.2503 -0.1076
  375loPI    C3 5987  13.295   2.209  11.639  0.0198 -0.2000 -0.1478
  375loPI   PO4 5988  13.026   2.480  11.089 -0.2511  0.1603 -0.1135
  375loPI   GL1 5989  13.179   2.481  10.646 -0.1374 -0.3692  0.1533
  375loPI   GL2 5990  13.252   2.796  10.525 -0.0638 -0.0615  0.0224
  375loPI   C1A 5991  12.989   2.468  10.314  0.1839 -0.2227  0.1681
  375loPI   C2A 5992  12.974   2.444   9.925 -0.1288  0.2777  0.0321
  375loPI   C3A 5993  12.968   2.436   9.476 -0.1236 -0.0482  0.3265
  375loPI   C4A 5994  12.836   2.463   9.071  0.0626 -0.0890  0.2691
  375loPI   C5A 5995  12.825   2.449   8.659  0.0058 -0.1761 -0.0654
  375loPI   C6A 5996  12.632   2.625   8.364  0.3737  0.0652 -0.2177
  375loPI   C1B 5997  13.353   2.754  10.087  0.0352  0.0184  0.2892
  375loPI   C2B 5998  13.367   2.704   9.595 -0.0983 -0.0749 -0.3321
  375loPI   C3B 5999  13.339   2.764   9.145  0.0586 -0.1439  0.0454
  375loPI   C4B 6000  13.247   2.698   8.805 -0.2202 -0.1696  0.2971
  376loPI    C1 6001   5.089  15.010  11.045 -0.0977 -0.0761  0.2429
  376loPI    C2 6002   4.792  15.269  10.976  0.0250  0.0242  0.0852
  376loPI    C3 6003   4.809  15.073  11.324 -0.1071  0.1765  0.1789
  376loPI   PO4 6004   5.104  14.788  10.901  0.0302  0.1365  0.0279
  376loPI   GL1 6005   4.933  14.666  10.572 -0.3679 -0.1187  0.1831
  376loPI   GL2 6006   4.659  14.675  10.764 -0.2552  0.3380  0.0261
  376loPI   C1A 6007   5.025  14.854  10.202 -0.5122 -0.1666  0.2188
  376loPI   C2A 6008   5.079  14.853   9.694  0.0989  0.0592  0.1152
  376loPI   C3A 6009   5.233  15.040   9.349  0.3462  0.0427  0.2907
  376loPI   C4A 6010   5.301  15.071   8.954 -0.0550  0.0263 -0.3282
  376loPI   C5A 6011   4.967  15.120   8.630 -0.2037  0.0543 -0.3427
  376loPI   C6A 6012   4.541  15.291   8.648 -0.1556 -0.2500 -0.4897
  376loPI   C1B 6013   4.572  15.075  10.441 -0.2172  0.0284 -0.1688
  376loPI   C2B 6014   4.676  15.125  10.026 -0.1466 -0.1837 -0.1265
  376loPI   C3B 6015   4.655  15.148   9.499  0.1174 -0.1327 -0.1693
  376loPI   C4B 6016   4.776  15.185   9.079  0.2300  0.1222 -0.1763
  377loPI    C1 6017  16.789  13.984  11.314 -0.0366 -0.1000 -0.0824
  377loPI    C2 6018  16.839  13.771  11.649  0.0871 -0.1204 -0.1131
  377loPI    C3 6019  17.018  14.127  11.610  0.2736 -0.2277 -0.2550
  377loPI   PO4 6020  16.596  13.829  11.208  0.2118 -0.0946  0.1404
  377loPI   GL1 6021  16.269  13.915  10.873  0.2372 -0.0774  0.1763
  377loPI   GL2 6022  16.134  13.780  10.741  0.4018  0.0709  0.1444
  377loPI   C1A 6023  16.404  14.231  10.514  0.3091 -0.0786 -0.1438
  377loPI   C2A 6024  16.516  14.272  10.111  0.0953 -0.0014  0.2547
  377loPI   C3A 6025  16.379  14.175   9.662 -0.2337 -0.0425  0.0659
  377loPI   C4A 6026  16.503  14.133   9.110  0.1302 -0.1739 -0.5678
  377loPI   C5A 6027  16.498  14.137   8.726 -0.0043  0.1073  0.1865
  377loPI   C6A 6028  16.741  14.334   8.440 -0.0111  0.0392 -0.0009
  377loPI   C1B 6029  15.947  13.884  10.456 -0.2937 -0.3427  0.2248
  377loPI   C2B 6030  16.076  13.907  10.014  0.0699  0.2382 -0.2232
  377loPI   C3B 6031  15.965  13.908   9.628  0.1387 -0.0884  0.1359
  377loPI   C4B 6032  16.072  13.885   9.166 -0.0283  0.2257 -0.0277
  378loPI    C1 6033   4.783   0.292  11.751 -0.2186 -0.2363  0.3506
  378loPI    C2 6034   5.075   0.558  11.815 -0.0041 -0.3194 -0.2277
  378loPI    C3 6035   4.726   0.593  12.008  0.1911  0.0969  0.0636
  378loPI   PO4 6036   4.825   0.274  11.472  0.0155  0.1945 -0.1005
  378loPI   GL1 6037   4.841   0.448  11.146 -0.0541 -0.0815  0.1573
  378loPI   GL2 6038   4.598   0.453  10.922  0.0865  0.1384 -0.2818
  378loPI   C1A 6039   5.056   0.334  10.735 -0.0058  0.0545 -0.0462
  378loPI   C2A 6040   5.117   0.209  10.413  0.1360 -0.1380  0.2254
  378loPI   C3A 6041   5.112   0.076   9.980 -0.0554 -0.2762  0.2519
  378loPI   C4A 6042   5.162   0.091   9.550 -0.0664 -0.1161  0.0029
  378loPI   C5A 6043   5.095   0.067   9.051  0.0430 -0.0751 -0.0692
  378loPI   C6A 6044   4.938  -0.280   8.837 -0.3122 -0.1172 -0.0717
  378loPI   C1B 6045   4.507   0.428  10.497  0.0953  0.1707  0.0874
  378loPI   C2B 6046   4.512   0.375  10.019 -0.1879 -0.0792 -0.0868
  378loPI   C3B 6047   4.489   0.316   9.525  0.2054  0.0662  0.0693
  378loPI   C4B 6048   4.620   0.226   9.084  0.2267  0.1653 -0.0063
  379loPI    C1 6049  13.283   2.935  11.280 -0.1170 -0.0023  0.1796
  379loPI    C2 6050  13.373   3.324  11.289 -0.2303  0.0356 -0.1800
  379loPI    C3 6051  13.661   3.054  11.225 -0.1542  0.0595  0.0542
  379loPI   PO4 6052  13.208   2.914  11.035 -0.0839 -0.1327  0.2078
  379loPI   GL1 6053  12.819   2.858  10.773 -0.1715  0.1601  0.3258
  379loPI   GL2 6054  12.795   3.065  10.629  0.1281  0.3857  0.1142
  379loPI   C1A 6055  12.604   2.607  10.527  0.3814  0.2007  0.1137
  379loPI   C2A 6056  12.519   2.541  10.112 -0.3344  0.0765  0.0187
  379loPI   C3A 6057  12.458   2.540   9.719  0.1940  0.0145 -0.4260
  379loPI   C4A 6058  12.419   2.653   9.271  0.1747  0.1366 -0.1417
  379loPI   C5A 6059  12.315   2.555   8.752 -0.0799  0.1797 -0.0682
  379loPI   C6A 6060  11.927   2.615   8.536 -0.0907  0.1883 -0.0499
  379loPI   C1B 6061  12.819   2.972  10.223  0.1051  0.3351  0.0018
  379loPI   C2B 6062  12.868   2.931   9.804 -0.1454  0.2824  0.0467
  379loPI   C3B 6063  12.849   2.927   9.325 -0.2586  0.1730  0.1603
  379loPI   C4B 6064  12.717   2.902   8.882  0.0463  0.0369  0.0511
  380loPI    C1 6065   5.546  11.553  10.843  0.1754  0.2808  0.0617
  380loPI    C2 6066   5.802  11.249  10.887  0.0832  0.1867 -0.0453
  380loPI    C3 6067   5.673  11.450  11.208 -0.0508 -0.0501  0.0520
  380loPI   PO4 6068   5.614  11.697  10.709 -0.1202 -0.0383  0.1617
  380loPI   GL1 6069   5.969  11.913  10.535  0.0631 -0.0586 -0.0807
  380loPI   GL2 6070   6.059  12.244  10.488 -0.1392 -0.2272 -0.2109
  380loPI   C1A 6071   5.925  11.842  10.155  0.2210  0.2676  0.2289
  380loPI   C2A 6072   5.977  11.931   9.749 -0.1168 -0.1853 -0.0954
  380loPI   C3A 6073   5.946  11.878   9.423 -0.1498 -0.1076 -0.0512
  380loPI   C4A 6074   5.741  11.832   9.037 -0.1274  0.4459 -0.1401
  380loPI   C5A 6075   5.764  11.804   8.600 -0.2499  0.0681  0.0746
  380loPI   C6A 6076   5.752  11.738   8.148 -0.0522 -0.1757 -0.0736
  380loPI   C1B 6077   6.248  12.199  10.075  0.0258 -0.1083 -0.2050
  380loPI   C2B 6078   6.249  12.243   9.570 -0.1828  0.0698 -0.3475
  380loPI   C3B 6079   6.170  12.217   9.077 -0.3092 -0.1092 -0.2056
  380loPI   C4B 6080   6.124  12.162   8.629  0.0228  0.0348 -0.0014
  381loPI    C1 6081   5.232  12.012  11.005 -0.0689 -0.1262 -0.1847
  381loPI    C2 6082   5.209  11.646  11.163  0.0498 -0.0480  0.0179
  381loPI    C3 6083   5.472  11.910  11.309  0.0815  0.0641 -0.2372
  381loPI   PO4 6084   5.192  11.998  10.748 -0.1356 -0.1681 -0.0195
  381loPI   GL1 6085   4.999  12.178  10.369  0.1574 -0.0357  0.0162
  381loPI   GL2 6086   4.868  11.874  10.365  0.1949  0.1902  0.0204
  381loPI   C1A 6087   5.188  12.480  10.095 -0.2650  0.4456  0.1025
  381loPI   C2A 6088   5.210  12.595   9.800  0.5084 -0.0508 -0.0282
  381loPI   C3A 6089   5.176  12.520   9.314  0.0911 -0.1137  0.1108
  381loPI   C4A 6090   5.185  12.497   8.855  0.1319  0.1143 -0.1455
  381loPI   C5A 6091   5.104  12.365   8.387 -0.1045 -0.1827  0.1652
  381loPI   C6A 6092   4.738  12.472   8.257 -0.1382 -0.0112  0.0154
  381loPI   C1B 6093   4.922  11.683   9.905 -0.0136 -0.0710  0.2356
  381loPI   C2B 6094   4.879  11.749   9.513 -0.0015  0.0038  0.0493
  381loPI   C3B 6095   4.989  11.668   9.076  0.3183 -0.1447 -0.1725
  381loPI   C4B 6096   4.992  11.661   8.531  0.2510 -0.1733 -0.1122
  382loPI    C1 6097   9.726   9.578  10.394  0.0730 -0.4526  0.1387
  382loPI    C2 6098   9.417   9.603  10.142  0.1733 -0.0133  0.0515
  382loPI    C3 6099   9.368   9.438  10.502 -0.1122 -0.1270 -0.0370
  382loPI   PO4 6100   9.945   9.752  10.178  0.3040  0.3266 -0.2940
  382loPI   GL1 6101  10.039   9.615   9.749  0.0245  0.0969  0.0928
  382loPI   GL2 6102  10.120   9.244   9.742  0.1480 -0.0291 -0.0376
  382loPI   C1A 6103  10.262   9.855   9.371  0.1025 -0.1824 -0.0917
  382loPI   C2A 6104  10.323  10.026   8.927 -0.1218  0.0553  0.1057
  382loPI   C3A 6105  10.378  10.074   8.502  0.1093 -0.0791 -0.1327
  382loPI   C4A 6106  10.448  10.041   8.008 -0.1680  0.0096 -0.1406
  382loPI   C5A 6107  10.532  10.447   7.870 -0.0373  0.1651 -0.0193
  382loPI   C6A 6108  10.317  10.660   7.621  0.1542 -0.1940 -0.0936
  382loPI   C1B 6109  10.008   9.395   9.266 -0.1534 -0.0761  0.0405
  382loPI   C2B 6110  10.240   9.541   8.864  0.0816  0.2968  0.0568
  382loPI   C3B 6111  10.475   9.594   8.468  0.0314  0.1095 -0.1451
  382loPI   C4B 6112  10.810   9.550   8.099 -0.1793  0.1065  0.0666
  383loPI    C1 6113  12.145  17.288  10.819 -0.1530 -0.0532 -0.0479
  383loPI    C2 6114  12.039  17.038  11.113  0.2695  0.2067  0.3385
  383loPI    C3 6115  11.851  17.389  11.071 -0.0543  0.0041  0.0455
  383loPI   PO4 6116  12.344  17.225  10.744  0.2769  0.0086  0.3478
  383loPI   GL1 6117  12.596  17.378  10.317  0.0252  0.0792  0.0861
  383loPI   GL2 6118  12.264  17.119  10.223 -0.3307  0.0394 -0.0392
  383loPI   C1A 6119  12.532  17.299   9.870 -0.3068  0.1659 -0.0547
  383loPI   C2A 6120  12.554  17.287   9.434  0.2602  0.0771  0.1966
  383loPI   C3A 6121  12.615  17.326   8.952  0.2517 -0.1518 -0.0791
  383loPI   C4A 6122  12.620  17.242   8.473 -0.1774 -0.1110  0.0718
  383loPI   C5A 6123  12.737  17.323   8.030  0.2680 -0.1233  0.4942
  383loPI   C6A 6124  12.691  17.611   7.631 -0.1774  0.1285  0.2146
  383loPI   C1B 6125  12.141  16.974   9.760  0.3201  0.0924  0.0038
  383loPI   C2B 6126  12.075  16.970   9.388  0.1408  0.1057 -0.0885
  383loPI   C3B 6127  12.166  16.921   8.966  0.3714  0.1291  0.1050
  383loPI   C4B 6128  12.143  16.898   8.535  0.3127  0.1587  0.0332
  384loPI    C1 6129  14.723   6.351  11.166  0.0291 -0.2765  0.0920
  384loPI    C2 6130  14.552   6.240  11.510 -0.1910  0.2601  0.1655
  384loPI    C3 6131  14.925   6.385  11.510 -0.0337 -0.1308  0.1150
  384loPI   PO4 6132  14.588   6.503  11.000 -0.1929 -0.0556  0.2462
  384loPI   GL1 6133  14.752   6.711  10.693 -0.0651  0.0098 -0.1274
  384loPI   GL2 6134  14.885   6.891  10.677 -0.2572 -0.4937  0.3493
  384loPI   C1A 6135  14.753   6.553  10.302  0.1516 -0.1387 -0.1291
  384loPI   C2A 6136  14.901   6.543   9.840  0.0009  0.0940  0.2250
  384loPI   C3A 6137  14.985   6.453   9.388  0.2279 -0.2318 -0.0915
  384loPI   C4A 6138  15.050   6.587   8.804  0.0707  0.0844  0.3127
  384loPI   C5A 6139  14.896   6.508   8.471  0.0249  0.1633 -0.2315
  384loPI   C6A 6140  14.671   6.589   8.094 -0.1301  0.2209 -0.3464
  384loPI   C1B 6141  15.137   6.887  10.356 -0.1165  0.0895 -0.0522
  384loPI   C2B 6142  15.292   6.916   9.940 -0.2300  0.2034 -0.0831
  384loPI   C3B 6143  15.401   6.861   9.584 -0.1091 -0.2436 -0.0418
  384loPI   C4B 6144  15.335   6.978   9.110 -0.1159 -0.3507 -0.2544
  385loPI    C1 6145   5.601   1.723  11.442 -0.2015  0.0059  0.0123
  385loPI    C2 6146   5.347   1.585  11.719  0.0350 -0.1619  0.1500
  385loPI    C3 6147   5.612   1.338  11.550  0.0406 -0.0108 -0.0663
  385loPI   PO4 6148   5.498   1.875  11.262  0.5994 -0.1962  0.0981
  385loPI   GL1 6149   5.605   1.832  10.830 -0.0576 -0.1125  0.2861
  385loPI   GL2 6150   5.894   1.936  10.775  0.0232 -0.2155  0.0195
  385loPI   C1A 6151   5.574   1.890  10.378 -0.1814  0.1900 -0.2602
  385loPI   C2A 6152   5.535   1.920   9.952 -0.1189 -0.3276  0.1490
  385loPI   C3A 6153   5.573   1.751   9.527 -0.3981  0.0370 -0.2319
  385loPI   C4A 6154   5.624   1.836   9.083 -0.2852  0.2293  0.1627
  385loPI   C5A 6155   5.777   2.136   8.824  0.0906  0.0958 -0.0615
  385loPI   C6A 6156   5.867   2.556   8.789 -0.0811 -0.3606 -0.1013
  385loPI   C1B 6157   6.076   2.181  10.465  0.0434  0.2246 -0.0351
  385loPI   C2B 6158   6.028   2.231  10.121 -0.0646  0.1567  0.1270
  385loPI   C3B 6159   5.987   2.227   9.725  0.2993  0.0500 -0.0034
  385loPI   C4B 6160   5.938   2.228   9.242 -0.0160  0.1299 -0.1660
  386loPI    C1 6161   7.337   4.326  11.067 -0.0239 -0.1445  0.0552
  386loPI    C2 6162   7.687   4.362  11.258 -0.0040  0.0710 -0.0187
  386loPI    C3 6163   7.649   4.495  10.882 -0.1607  0.0328 -0.0172
  386loPI   PO4 6164   7.254   4.045  11.061  0.0466 -0.3613  0.1382
  386loPI   GL1 6165   7.114   3.819  10.766 -0.1479 -0.2021  0.0715
  386loPI   GL2 6166   6.862   3.651  10.970  0.0003  0.1173 -0.1597
  386loPI   C1A 6167   7.075   3.773  10.354  0.0808  0.1254 -0.2846
  386loPI   C2A 6168   7.053   3.825   9.973  0.0006  0.0578 -0.0861
  386loPI   C3A 6169   7.062   3.853   9.590 -0.3226  0.0587 -0.0612
  386loPI   C4A 6170   7.092   3.839   9.139 -0.3712  0.0912  0.0718
  386loPI   C5A 6171   6.890   3.912   8.779 -0.0918  0.0195 -0.1803
  386loPI   C6A 6172   6.620   4.248   8.704  0.4612  0.0086 -0.1971
  386loPI   C1B 6173   6.820   3.444  10.659  0.1867 -0.3414  0.1346
  386loPI   C2B 6174   6.711   3.431  10.190 -0.0431  0.1756  0.0909
  386loPI   C3B 6175   6.780   3.489   9.741  0.1001 -0.3132  0.2464
  386loPI   C4B 6176   6.676   3.621   9.332 -0.0205  0.2127 -0.0347
  387loPI    C1 6177   0.974   8.345  11.559  0.1700  0.0706 -0.3373
  387loPI    C2 6178   1.203   8.413  11.880  0.0196  0.0659 -0.2278
  387loPI    C3 6179   0.851   8.227  11.921  0.0481 -0.0311 -0.4107
  387loPI   PO4 6180   1.110   8.224  11.379 -0.0530  0.0901  0.1511
  387loPI   GL1 6181   0.994   8.035  10.979  0.2548  0.2118  0.1233
  387loPI   GL2 6182   0.752   7.822  10.966 -0.1037  0.1951 -0.0296
  387loPI   C1A 6183   1.090   7.982  10.489 -0.0074 -0.0857  0.1111
  387loPI   C2A 6184   1.179   8.011  10.037 -0.1085  0.0197  0.1998
  387loPI   C3A 6185   1.134   8.081   9.594 -0.1115  0.0256 -0.2428
  387loPI   C4A 6186   1.022   8.048   9.194 -0.3395 -0.2299 -0.1523
  387loPI   C5A 6187   1.302   8.078   8.794  0.1326 -0.1595 -0.2311
  387loPI   C6A 6188   1.224   7.950   8.432 -0.1891  0.1510 -0.1288
  387loPI   C1B 6189   0.615   7.648  10.481 -0.1394 -0.0116 -0.1589
  387loPI   C2B 6190   0.754   7.673  10.009 -0.1877  0.0306 -0.1581
  387loPI   C3B 6191   0.766   7.710   9.572  0.1800  0.0683 -0.0767
  387loPI   C4B 6192   0.567   7.799   9.152 -0.0444  0.1809 -0.1238
  388loPI    C1 6193  16.248   4.385  11.438  0.1773  0.2482  0.3056
  388loPI    C2 6194  15.958   4.645  11.530 -0.1094  0.1005 -0.1496
  388loPI    C3 6195  15.904   4.254  11.595  0.0291  0.0823 -0.1415
  388loPI   PO4 6196  16.390   4.540  11.231  0.1429 -0.1794  0.0504
  388loPI   GL1 6197  16.374   4.627  10.770  0.0863 -0.1161 -0.0361
  388loPI   GL2 6198  16.109   4.733  10.598  0.1312  0.5485  0.1301
  388loPI   C1A 6199  16.615   4.368  10.513  0.5145  0.0917 -0.1481
  388loPI   C2A 6200  16.821   4.437  10.058  0.0710 -0.2232 -0.0366
  388loPI   C3A 6201  16.768   4.455   9.662 -0.1130 -0.2775  0.0981
  388loPI   C4A 6202  16.676   4.472   9.342 -0.0700  0.1120 -0.0586
  388loPI   C5A 6203  16.798   4.502   8.926  0.1238  0.0860  0.0168
  388loPI   C6A 6204  16.707   4.246   8.532  0.0357 -0.0963  0.0759
  388loPI   C1B 6205  16.170   4.632  10.129 -0.0277  0.0911  0.0774
  388loPI   C2B 6206  16.226   4.617   9.670  0.0858  0.3234  0.2069
  388loPI   C3B 6207  16.287   4.739   9.219  0.0249  0.0702 -0.0333
  388loPI   C4B 6208  16.249   4.575   8.838  0.1152  0.0708 -0.1928
  389loPI    C1 6209  14.692   3.984  11.511  0.0684  0.0701  0.0285
  389loPI    C2 6210  14.923   4.054  11.830  0.0472 -0.0096  0.0617
  389loPI    C3 6211  14.529   4.115  11.852  0.0333 -0.1043  0.0797
  389loPI   PO4 6212  14.731   3.736  11.301  0.0694  0.1577  0.1503
  389loPI   GL1 6213  14.508   3.622  10.891  0.3498 -0.0790 -0.1815
  389loPI   GL2 6214  14.738   3.511  10.835  0.0628 -0.1911 -0.1944
  389loPI   C1A 6215  14.483   3.759  10.419 -0.0416  0.1182  0.0834
  389loPI   C2A 6216  14.520   3.766  10.009  0.1102  0.0307 -0.4164
  389loPI   C3A 6217  14.545   3.865   9.642 -0.1576 -0.0854 -0.1630
  389loPI   C4A 6218  14.533   3.868   9.241 -0.1448 -0.2795  0.2084
  389loPI   C5A 6219  14.510   3.793   8.768  0.1828  0.0378  0.0872
  389loPI   C6A 6220  14.268   4.009   8.450 -0.4476  0.0092  0.0405
  389loPI   C1B 6221  14.944   3.578  10.482 -0.0990  0.0396 -0.0656
  389loPI   C2B 6222  15.103   3.644  10.060  0.0449 -0.0508  0.0669
  389loPI   C3B 6223  15.071   3.634   9.615 -0.1937 -0.1200  0.3334
  389loPI   C4B 6224  15.072   3.679   9.180 -0.0500  0.1341 -0.3651
  390loPI    C1 6225  11.242   0.140  11.305 -0.5121 -0.0594 -0.1612
  390loPI    C2 6226  11.031   0.435  11.137 -0.2321  0.3292  0.1478
  390loPI    C3 6227  11.168   0.476  11.510  0.0378 -0.0871  0.1003
  390loPI   PO4 6228  11.451   0.046  11.061 -0.0307 -0.1051  0.0682
  390loPI   GL1 6229  11.555  -0.122  10.637  0.0749 -0.0703  0.2279
  390loPI   GL2 6230  11.775  -0.415  10.556 -0.2595 -0.1587  0.0581
  390loPI   C1A 6231  11.609   0.062  10.219  0.1810  0.1788 -0.0114
  390loPI   C2A 6232  11.602   0.084   9.828  0.2108  0.0562  0.0640
  390loPI   C3A 6233  11.486   0.085   9.418  0.1731  0.1634 -0.1487
  390loPI   C4A 6234  11.512   0.088   9.006  0.0148  0.1843 -0.1720
  390loPI   C5A 6235  11.493  -0.011   8.589  0.0220  0.0687 -0.1790
  390loPI   C6A 6236  11.225   0.012   8.262  0.1187  0.0136 -0.0294
  390loPI   C1B 6237  11.721  -0.447  10.133 -0.0824  0.0420  0.1352
  390loPI   C2B 6238  11.720  -0.415   9.668 -0.2610  0.0635 -0.1439
  390loPI   C3B 6239  11.730  -0.323   9.246  0.3000  0.2944 -0.1979
  390loPI   C4B 6240  11.703  -0.580   8.930  0.0910  0.0203  0.0869
  391loPI    C1 6241  11.476  13.160  10.837  0.1960  0.0370  0.0109
  391loPI    C2 6242  11.630  12.884  11.082  0.0476 -0.1063 -0.0555
  391loPI    C3 6243  11.446  13.206  11.233 -0.1951 -0.2792  0.0239
  391loPI   PO4 6244  11.615  13.090  10.604  0.0723 -0.0741  0.0835
  391loPI   GL1 6245  11.713  13.417  10.318 -0.2117  0.0055  0.0158
  391loPI   GL2 6246  11.834  13.696  10.386  0.2571  0.0816 -0.0632
  391loPI   C1A 6247  11.587  13.231   9.884  0.0728  0.1458 -0.1603
  391loPI   C2A 6248  11.654  13.407   9.419 -0.4628  0.0889  0.1997
  391loPI   C3A 6249  11.723  13.464   8.974  0.0324 -0.2631 -0.1655
  391loPI   C4A 6250  11.711  13.595   8.501 -0.1348 -0.1510  0.0497
  391loPI   C5A 6251  11.710  13.650   8.086  0.0207  0.0743  0.0882
  391loPI   C6A 6252  11.746  13.303   7.689  0.1603 -0.1418  0.0455
  391loPI   C1B 6253  11.925  13.790  10.090 -0.1124 -0.0032  0.0634
  391loPI   C2B 6254  11.988  13.769   9.619  0.0357 -0.2501 -0.0433
  391loPI   C3B 6255  12.056  13.713   9.221  0.1401  0.1138  0.2016
  391loPI   C4B 6256  12.122  13.753   8.789 -0.0044  0.2708 -0.0436
  392loPI    C1 6257  14.351  16.994  11.308  0.2045 -0.1268  0.2109
  392loPI    C2 6258  14.105  17.288  11.423  0.0297 -0.1534 -0.0850
  392loPI    C3 6259  14.036  16.911  11.540  0.0864 -0.1212  0.0540
  392loPI   PO4 6260  14.370  17.090  11.004  0.2964  0.0656 -0.1233
  392loPI   GL1 6261  14.600  16.893  10.664 -0.0676  0.1566 -0.0814
  392loPI   GL2 6262  14.665  16.605  10.523 -0.1770  0.0586 -0.0337
  392loPI   C1A 6263  14.471  17.064  10.296 -0.0281  0.2800  0.0192
  392loPI   C2A 6264  14.372  17.169   9.936 -0.1042 -0.2294  0.1281
  392loPI   C3A 6265  14.431  17.225   9.512 -0.2112 -0.1622  0.0839
  392loPI   C4A 6266  14.456  17.216   9.026  0.1152  0.0479 -0.2856
  392loPI   C5A 6267  14.616  17.404   8.683  0.1690  0.0043  0.2747
  392loPI   C6A 6268  14.905  17.538   8.358  0.2455 -0.3265 -0.2265
  392loPI   C1B 6269  14.572  16.631  10.040  0.0674  0.2467  0.3892
  392loPI   C2B 6270  14.555  16.698   9.581  0.1677  0.2326  0.3056
  392loPI   C3B 6271  14.571  16.732   9.150  0.1714 -0.0430  0.1044
  392loPI   C4B 6272  14.612  16.803   8.702  0.3712  0.0168  0.0242
  393loPI    C1 6273  16.684   0.754  11.122 -0.1686  0.0939  0.1457
  393loPI    C2 6274  16.753   1.023  11.411 -0.0611  0.2280 -0.0024
  393loPI    C3 6275  16.677   0.641  11.506  0.2921  0.2021  0.1921
  393loPI   PO4 6276  16.544   0.864  10.984 -0.0724 -0.2182 -0.0361
  393loPI   GL1 6277  16.304   1.132  10.875  0.2470  0.0213  0.0945
  393loPI   GL2 6278  16.385   1.362  10.591  0.0207  0.2034 -0.1440
  393loPI   C1A 6279  16.097   0.965  10.448  0.0447  0.0484  0.1282
  393loPI   C2A 6280  16.096   0.954  10.010 -0.0340 -0.1949 -0.0999
  393loPI   C3A 6281  16.137   0.926   9.608  0.2191  0.0926  0.1057
  393loPI   C4A 6282  16.064   1.022   9.301 -0.1286  0.2646 -0.0358
  393loPI   C5A 6283  16.042   0.961   8.954  0.2059 -0.2230 -0.0959
  393loPI   C6A 6284  15.721   0.856   8.698 -0.1593  0.0589  0.2559
  393loPI   C1B 6285  16.429   1.321  10.078  0.0702 -0.1113 -0.1538
  393loPI   C2B 6286  16.517   1.227   9.729 -0.2121 -0.2084 -0.1670
  393loPI   C3B 6287  16.476   1.295   9.300 -0.0347  0.2559 -0.0960
  393loPI   C4B 6288  16.453   1.220   8.874  0.3371  0.1384 -0.0410
  394loPI    C1 6289   1.475   6.098  11.982 -0.0038  0.0081  0.1689
  394loPI    C2 6290   1.693   6.248  12.283  0.1012  0.1638  0.0170
  394loPI    C3 6291   1.297   6.206  12.324  0.1516 -0.0870  0.2814
  394loPI   PO4 6292   1.616   6.117  11.717 -0.0569 -0.1210 -0.1583
  394loPI   GL1 6293   1.797   6.443  11.401  0.0358  0.0387  0.3759
  394loPI   GL2 6294   1.687   6.176  11.187 -0.3043 -0.2019 -0.0287
  394loPI   C1A 6295   2.011   6.445  10.996 -0.0567 -0.0543 -0.0344
  394loPI   C2A 6296   1.904   6.373  10.584 -0.0216 -0.0335  0.1363
  394loPI   C3A 6297   1.900   6.431  10.120  0.1359 -0.2594  0.0251
  394loPI   C4A 6298   2.038   6.429   9.723  0.0299 -0.1491 -0.4138
  394loPI   C5A 6299   1.920   6.452   9.278 -0.1542 -0.1667  0.0514
  394loPI   C6A 6300   1.766   6.156   8.944  0.1735  0.1172  0.4199
  394loPI   C1B 6301   1.549   6.001  10.744 -0.0299  0.1013  0.3108
  394loPI   C2B 6302   1.516   6.011  10.309 -0.2658 -0.3254  0.1760
  394loPI   C3B 6303   1.631   6.072   9.847  0.0517  0.0905  0.0307
  394loPI   C4B 6304   1.534   6.094   9.372  0.0605  0.1620 -0.1027
  395loPI    C1 6305  10.024  12.944  11.338  0.0432  0.1000 -0.0062
  395loPI    C2 6306   9.936  12.704  11.645  0.1387  0.0124 -0.0467
  395loPI    C3 6307  10.214  12.988  11.687  0.1221  0.0277 -0.0396
  395loPI   PO4 6308  10.119  12.789  11.166 -0.2252  0.1736 -0.0621
  395loPI   GL1 6309  10.011  12.628  10.784 -0.0441  0.1415  0.1571
  395loPI   GL2 6310   9.847  12.910  10.498 -0.1611  0.1600 -0.2400
  395loPI   C1A 6311  10.184  12.474  10.415 -0.2582 -0.4246  0.0312
  395loPI   C2A 6312  10.220  12.420   9.948  0.1815 -0.2267  0.0748
  395loPI   C3A 6313  10.380  12.348   9.394 -0.0069 -0.3820  0.1936
  395loPI   C4A 6314  10.403  12.307   9.026  0.0828 -0.1431 -0.2579
  395loPI   C5A 6315  10.531  12.275   8.561 -0.3109  0.3143 -0.1767
  395loPI   C6A 6316  10.667  12.509   8.298  0.1172 -0.3136 -0.1617
  395loPI   C1B 6317   9.915  12.823  10.108 -0.0970  0.3109  0.5113
  395loPI   C2B 6318   9.780  12.519   9.687  0.0575 -0.0255 -0.2635
  395loPI   C3B 6319   9.830  12.501   9.264 -0.1325  0.1552 -0.0728
  395loPI   C4B 6320   9.916  12.649   8.871  0.0767  0.4246  0.2373
  396loPI    C1 6321  10.363   5.075  11.029 -0.0799  0.1900 -0.2751
  396loPI    C2 6322  10.041   5.108  11.263  0.0301  0.1282 -0.1133
  396loPI    C3 6323  10.376   5.306  11.355  0.1606 -0.1111 -0.0659
  396loPI   PO4 6324  10.205   5.016  10.716  0.2641  0.2048 -0.2044
  396loPI   GL1 6325   9.982   4.588  10.494 -0.3181 -0.3635 -0.2575
  396loPI   GL2 6326   9.597   4.562  10.415  0.1413 -0.3942  0.1803
  396loPI   C1A 6327  10.025   4.717  10.060 -0.1224  0.3077 -0.0106
  396loPI   C2A 6328  10.069   4.716   9.581  0.0258  0.0792 -0.2123
  396loPI   C3A 6329  10.161   4.670   9.225  0.0276 -0.2004  0.0702
  396loPI   C4A 6330  10.250   4.687   8.716  0.0072  0.0106  0.2863
  396loPI   C5A 6331  10.181   4.829   8.249 -0.0568  0.0904 -0.0252
  396loPI   C6A 6332  10.451   5.050   8.002  0.0791  0.4300 -0.3057
  396loPI   C1B 6333   9.784   4.296  10.093 -0.1375  0.0480 -0.1430
  396loPI   C2B 6334   9.772   4.340   9.731  0.1912 -0.0794 -0.0052
  396loPI   C3B 6335   9.735   4.374   9.322  0.2330  0.1864  0.1992
  396loPI   C4B 6336   9.721   4.308   8.871 -0.1073 -0.4528 -0.0667
  397loPI    C1 6337   8.852   5.744  10.795  0.1772 -0.1364 -0.1593
  397loPI    C2 6338   8.904   5.348  10.777 -0.0430 -0.1844  0.1755
  397loPI    C3 6339   8.812   5.522  11.125 -0.4636  0.0955 -0.0673
  397loPI   PO4 6340   8.811   5.818  10.555  0.1935 -0.0579 -0.1464
  397loPI   GL1 6341   8.544   5.785  10.313 -0.0811 -0.0692  0.0019
  397loPI   GL2 6342   8.516   5.376  10.371 -0.1633  0.2591  0.4542
  397loPI   C1A 6343   8.502   5.681   9.921 -0.0390 -0.0098  0.0878
  397loPI   C2A 6344   8.431   5.652   9.476 -0.3526  0.0232 -0.0416
  397loPI   C3A 6345   8.489   5.705   9.025 -0.2485  0.0520 -0.1721
  397loPI   C4A 6346   8.397   5.641   8.552 -0.1440 -0.1572  0.1641
  397loPI   C5A 6347   8.449   5.854   8.162  0.0513 -0.0470 -0.6639
  397loPI   C6A 6348   8.092   6.136   8.009 -0.0156 -0.3977  0.0661
  397loPI   C1B 6349   8.587   5.199   9.950 -0.1396 -0.1938  0.1633
  397loPI   C2B 6350   8.593   5.128   9.469  0.2975  0.0856 -0.1189
  397loPI   C3B 6351   8.639   5.227   9.094 -0.0699  0.0611  0.0096
  397loPI   C4B 6352   8.645   5.131   8.704 -0.3019 -0.1373 -0.3330
  398loPI    C1 6353   1.970   3.445  11.656  0.1442  0.0100 -0.0552
  398loPI    C2 6354   1.720   3.444  11.969  0.4011 -0.1604  0.1535
  398loPI    C3 6355   1.996   3.732  11.933  0.1419  0.0619 -0.1085
  398loPI   PO4 6356   1.821   3.402  11.495 -0.2044 -0.0578 -0.3346
  398loPI   GL1 6357   1.876   3.373  11.034  0.2069  0.1461 -0.4067
  398loPI   GL2 6358   1.841   3.705  10.966 -0.0578  0.2598  0.1398
  398loPI   C1A 6359   2.034   3.496  10.555  0.0225 -0.0366  0.3594
  398loPI   C2A 6360   2.066   3.519  10.126 -0.1665 -0.3464 -0.2323
  398loPI   C3A 6361   1.947   3.527   9.738  0.1302 -0.0486 -0.6050
  398loPI   C4A 6362   1.984   3.555   9.366 -0.0657 -0.1577 -0.0274
  398loPI   C5A 6363   2.033   3.621   8.945 -0.0965  0.0837  0.0507
  398loPI   C6A 6364   1.955   3.323   8.582 -0.2873 -0.0428  0.0562
  398loPI   C1B 6365   1.856   3.923  10.673 -0.2075 -0.1489  0.0821
  398loPI   C2B 6366   1.905   3.980  10.367  0.1352 -0.2195  0.0931
  398loPI   C3B 6367   2.005   4.036   9.979  0.1071  0.0440 -0.0541
  398loPI   C4B 6368   1.940   4.109   9.527  0.0056 -0.1614 -0.1416
  399loPI    C1 6369  13.266   9.776  11.303 -0.1884 -0.2660 -0.0710
  399loPI    C2 6370  13.402   9.424  11.435  0.1355 -0.0747  0.1187
  399loPI    C3 6371  13.199   9.665  11.681 -0.2225 -0.1921 -0.0552
  399loPI   PO4 6372  13.207   9.752  11.035  0.1259 -0.1803  0.0508
  399loPI   GL1 6373  13.427   9.915  10.661 -0.1294  0.0732  0.0197
  399loPI   GL2 6374  13.249   9.687  10.488 -0.0498 -0.0334  0.0032
  399loPI   C1A 6375  13.721  10.125  10.369  0.0967 -0.0737  0.5155
  399loPI   C2A 6376  14.129  10.130  10.206 -0.0857  0.1932 -0.1126
  399loPI   C3A 6377  14.409  10.172   9.941 -0.0713 -0.1989  0.1318
  399loPI   C4A 6378  14.529  10.135   9.556  0.1179 -0.2302  0.0017
  399loPI   C5A 6379  14.613  10.051   9.109  0.3108  0.4148 -0.2321
  399loPI   C6A 6380  14.674   9.858   8.707 -0.1134  0.1986 -0.0456
  399loPI   C1B 6381  13.506   9.767  10.150 -0.4055  0.0515 -0.1708
  399loPI   C2B 6382  13.721  10.057   9.869 -0.0316  0.0444 -0.0499
  399loPI   C3B 6383  14.022  10.182   9.631  0.1819  0.4020  0.1632
  399loPI   C4B 6384  14.118  10.150   9.132 -0.0068  0.0184 -0.0181
  400loPI    C1 6385   7.195  15.311  10.976  0.1243  0.2885  0.0347
  400loPI    C2 6386   7.413  15.408  11.296  0.1283  0.1788  0.0659
  400loPI    C3 6387   7.561  15.158  11.022  0.0204  0.0591  0.1157
  400loPI   PO4 6388   7.141  15.519  10.836  0.0266  0.0440  0.0612
  400loPI   GL1 6389   6.961  15.840  10.588  0.0049  0.3288 -0.0534
  400loPI   GL2 6390   6.844  15.643  10.494  0.1989 -0.1280  0.0824
  400loPI   C1A 6391   7.118  16.145  10.312  0.0752  0.1632 -0.2544
  400loPI   C2A 6392   7.220  16.275   9.839  0.1091  0.1902 -0.2401
  400loPI   C3A 6393   7.302  16.200   9.295 -0.1840  0.1484  0.0456
  400loPI   C4A 6394   7.302  16.095   8.960 -0.1407 -0.0203 -0.3380
  400loPI   C5A 6395   7.203  16.182   8.594 -0.0146  0.0118 -0.1501
  400loPI   C6A 6396   7.387  16.412   8.278  0.1646  0.0846 -0.0386
  400loPI   C1B 6397   6.760  15.715  10.077 -0.1966 -0.0244 -0.1733
  400loPI   C2B 6398   6.805  15.798   9.686  0.2548  0.1495 -0.0082
  400loPI   C3B 6399   6.902  15.740   9.258 -0.0261 -0.1376  0.1975
  400loPI   C4B 6400   6.886  15.784   8.829 -0.3043  0.2039  0.0716
  401loPI    C1 6401   6.200   9.312  11.322  0.0989  0.1429 -0.2246
  401loPI    C2 6402   6.467   9.432  11.595  0.0178  0.0992 -0.1252
  401loPI    C3 6403   6.118   9.277  11.712  0.0134  0.0101 -0.2540
  401loPI   PO4 6404   6.159   9.568  11.181  0.0392 -0.1567  0.2093
  401loPI   GL1 6405   6.031   9.650  10.805 -0.0446  0.0153  0.3028
  401loPI   GL2 6406   6.353   9.705  10.617  0.1662  0.1969 -0.0292
  401loPI   C1A 6407   5.850   9.459  10.460  0.1898 -0.1176 -0.2084
  401loPI   C2A 6408   5.850   9.481  10.050 -0.2875  0.2756  0.0263
  401loPI   C3A 6409   5.757   9.449   9.586 -0.2115  0.1067 -0.2542
  401loPI   C4A 6410   5.770   9.484   9.180 -0.0838  0.0007 -0.1960
  401loPI   C5A 6411   5.901   9.503   8.761  0.3811  0.1199  0.2557
  401loPI   C6A 6412   5.667   9.406   8.439 -0.0460  0.2279 -0.1402
  401loPI   C1B 6413   6.221   9.823  10.177  0.1208 -0.0352  0.0971
  401loPI   C2B 6414   6.246   9.718   9.762 -0.2212  0.4166  0.4529
  401loPI   C3B 6415   6.167   9.821   9.407  0.3718 -0.0873 -0.1705
  401loPI   C4B 6416   6.136   9.848   9.018  0.0204  0.2299 -0.2763
  402loPI    C1 6417   7.552   0.004  11.193  0.1038 -0.2118  0.0840
  402loPI    C2 6418   7.616   0.198  11.537  0.2535 -0.0732 -0.0202
  402loPI    C3 6419   7.314  -0.063  11.507 -0.0204  0.2238  0.0898
  402loPI   PO4 6420   7.870  -0.040  11.051  0.0196  0.0395 -0.1736
  402loPI   GL1 6421   7.960   0.007  10.714 -0.1036  0.0288  0.0408
  402loPI   GL2 6422   8.294  -0.024  10.677 -0.2076 -0.0690 -0.0955
  402loPI   C1A 6423   7.900   0.200  10.381  0.0716 -0.4395  0.0450
  402loPI   C2A 6424   7.786   0.205   9.981 -0.1039  0.0544 -0.0444
  402loPI   C3A 6425   7.835   0.239   9.495 -0.3298  0.1122 -0.0789
  402loPI   C4A 6426   7.736   0.315   9.072  0.5153 -0.1074 -0.1100
  402loPI   C5A 6427   7.577   0.343   8.655 -0.0672 -0.2393  0.1280
  402loPI   C6A 6428   7.241   0.561   8.407 -0.2780  0.2868  0.2436
  402loPI   C1B 6429   8.322   0.011  10.193 -0.0566  0.2759 -0.1038
  402loPI   C2B 6430   8.319   0.030   9.770  0.0350  0.1665 -0.0242
  402loPI   C3B 6431   8.283   0.006   9.382 -0.0005 -0.0368 -0.0413
  402loPI   C4B 6432   8.330   0.120   9.011 -0.3600  0.1984  0.1399
  403loPI    C1 6433  17.102  11.163  11.132  0.3496  0.0441  0.1496
  403loPI    C2 6434  16.836  11.145  11.430  0.1031  0.0019 -0.0683
  403loPI    C3 6435  17.224  11.201  11.511  0.0202  0.1438  0.2495
  403loPI   PO4 6436  17.014  11.171  10.964  0.2585  0.3512  0.2447
  403loPI   GL1 6437  16.952  11.192  10.571 -0.1126  0.0937 -0.2143
  403loPI   GL2 6438  16.931  10.812  10.379  0.0231  0.1483  0.3326
  403loPI   C1A 6439  16.758  11.426  10.314  0.1042  0.4405  0.3226
  403loPI   C2A 6440  16.697  11.424   9.859 -0.2141 -0.0777 -0.1551
  403loPI   C3A 6441  16.662  11.319   9.428 -0.0999  0.3310 -0.0005
  403loPI   C4A 6442  16.702  11.229   8.934 -0.0497 -0.5348 -0.1298
  403loPI   C5A 6443  16.620  11.101   8.564 -0.0180  0.4188 -0.0819
  403loPI   C6A 6444  16.634  10.615   8.399  0.0931 -0.1368  0.1215
  403loPI   C1B 6445  16.851  10.673   9.953  0.3542  0.0484 -0.0718
  403loPI   C2B 6446  16.763  10.680   9.612 -0.2064  0.0196  0.0786
  403loPI   C3B 6447  16.779  10.773   9.266 -0.2283 -0.2516 -0.4101
  403loPI   C4B 6448  16.827  10.684   8.892 -0.0372 -0.0544  0.0002
  404loPI    C1 6449  14.066  16.214  10.896 -0.0857 -0.0832  0.1091
  404loPI    C2 6450  14.246  16.564  10.963  0.4045 -0.2763 -0.1474
  404loPI    C3 6451  14.310  16.256  11.210 -0.0074 -0.1980  0.0647
  404loPI   PO4 6452  14.065  16.202  10.618  0.2418  0.1714  0.0938
  404loPI   GL1 6453  14.258  16.327  10.337  0.1036 -0.0690 -0.0704
  404loPI   GL2 6454  14.494  16.127  10.188  0.0261 -0.0872 -0.2368
  404loPI   C1A 6455  14.243  16.324   9.802  0.1096 -0.3042 -0.0291
  404loPI   C2A 6456  14.266  16.305   9.324  0.3787  0.0277  0.1540
  404loPI   C3A 6457  14.283  16.360   8.866 -0.1292  0.0261 -0.1173
  404loPI   C4A 6458  14.154  16.274   8.379  0.0342  0.1723 -0.4316
  404loPI   C5A 6459  13.984  16.551   8.135  0.1554 -0.2067  0.1929
  404loPI   C6A 6460  13.552  16.654   8.234  0.5009 -0.2610  0.0050
  404loPI   C1B 6461  14.723  16.164   9.774  0.2099 -0.0162  0.2064
  404loPI   C2B 6462  14.736  16.166   9.311 -0.0775 -0.1076  0.0757
  404loPI   C3B 6463  14.762  16.090   8.833  0.0217 -0.1387 -0.2405
  404loPI   C4B 6464  14.678  16.274   8.525  0.0749 -0.3422  0.2017
  405loPI    C1 6465   3.018  12.663  11.590 -0.0413  0.1011  0.0906
  405loPI    C2 6466   3.113  12.281  11.665 -0.0005  0.0406 -0.2518
  405loPI    C3 6467   3.349  12.576  11.797  0.1467 -0.0675 -0.2721
  405loPI   PO4 6468   2.928  12.611  11.286  0.4335  0.1280 -0.0062
  405loPI   GL1 6469   3.100  12.681  10.959  0.0267  0.1027  0.2969
  405loPI   GL2 6470   2.959  12.878  10.799 -0.1206  0.0725 -0.3105
  405loPI   C1A 6471   3.346  12.677  10.622  0.2812 -0.0143  0.0423
  405loPI   C2A 6472   3.257  12.636  10.152  0.2252  0.1914 -0.2115
  405loPI   C3A 6473   3.358  12.665   9.719  0.1115 -0.0201  0.0933
  405loPI   C4A 6474   3.346  12.722   9.295  0.0798 -0.2089  0.0428
  405loPI   C5A 6475   3.417  12.697   8.874 -0.1880  0.1706 -0.1429
  405loPI   C6A 6476   3.274  12.731   8.407  0.0536  0.1403 -0.4134
  405loPI   C1B 6477   2.818  12.822  10.375 -0.2208  0.1354 -0.0644
  405loPI   C2B 6478   2.827  12.798   9.911 -0.3705 -0.3424 -0.0647
  405loPI   C3B 6479   2.899  12.851   9.565 -0.0095  0.0755 -0.0317
  405loPI   C4B 6480   2.886  12.824   9.066 -0.1333 -0.0799 -0.2144
  406loPI    C1 6481   0.447   1.238  11.203  0.0004  0.0273  0.1196
  406loPI    C2 6482   0.470   0.961  10.916  0.0220  0.0926  0.0579
  406loPI    C3 6483   0.648   0.898  11.269  0.1026  0.0661  0.0129
  406loPI   PO4 6484   0.525   1.436  11.049 -0.1846 -0.2804 -0.0643
  406loPI   GL1 6485   0.627   1.352  10.618  0.3277 -0.0296 -0.0474
  406loPI   GL2 6486   0.561   1.691  10.590  0.0568  0.0135 -0.2402
  406loPI   C1A 6487   0.739   1.191  10.191  0.0995 -0.1882 -0.0077
  406loPI   C2A 6488   0.760   1.218   9.695  0.1104  0.0792  0.3439
  406loPI   C3A 6489   0.801   1.231   9.225 -0.3504  0.2796 -0.0796
  406loPI   C4A 6490   0.898   0.820   9.041  0.0441  0.2029  0.3029
  406loPI   C5A 6491   1.357   0.760   8.857  0.1135 -0.2161  0.0170
  406loPI   C6A 6492   1.765   0.672   8.685 -0.3938 -0.4165 -0.0782
  406loPI   C1B 6493   0.574   1.659  10.175 -0.3245 -0.0105  0.1545
  406loPI   C2B 6494   0.707   1.787   9.762  0.2581  0.1087  0.1571
  406loPI   C3B 6495   0.692   1.671   9.399  0.1624 -0.0579  0.1594
  406loPI   C4B 6496   0.659   1.634   8.957 -0.0332 -0.0028 -0.0819
  407loPI    C1 6497   7.980   6.076  10.843 -0.0171 -0.0079  0.2005
  407loPI    C2 6498   8.168   5.951  11.173  0.4006  0.2615  0.0729
  407loPI    C3 6499   8.122   6.342  11.105 -0.2154  0.2031  0.0972
  407loPI   PO4 6500   7.793   5.913  10.802 -0.3974  0.2360  0.1963
  407loPI   GL1 6501   7.834   5.688  10.493 -0.0816 -0.0294 -0.3256
  407loPI   GL2 6502   8.050   5.894  10.313  0.3363 -0.1010  0.1001
  407loPI   C1A 6503   7.654   5.548  10.088 -0.5454  0.1926 -0.0978
  407loPI   C2A 6504   7.621   5.562   9.718 -0.1960 -0.1746  0.3235
  407loPI   C3A 6505   7.626   5.486   9.177 -0.1380 -0.0998 -0.1750
  407loPI   C4A 6506   7.607   5.523   8.746 -0.1489  0.2080 -0.0132
  407loPI   C5A 6507   7.815   5.519   8.300 -0.2518  0.0610  0.3145
  407loPI   C6A 6508   7.917   5.573   7.917 -0.1165  0.1967 -0.1018
  407loPI   C1B 6509   8.045   5.826   9.789  0.0749  0.0990 -0.2200
  407loPI   C2B 6510   8.012   5.854   9.321 -0.2940 -0.1126  0.0688
  407loPI   C3B 6511   8.029   5.814   8.937 -0.0587 -0.1339 -0.0229
  407loPI   C4B 6512   7.985   5.928   8.467  0.2005 -0.0348  0.0140
  408loPI    C1 6513  10.205   7.537  10.328  0.1148  0.0732  0.2117
  408loPI    C2 6514  10.549   7.407  10.486  0.1972  0.0178 -0.0091
  408loPI    C3 6515  10.229   7.461  10.720  0.3356  0.0031  0.1860
  408loPI   PO4 6516  10.182   7.444  10.066 -0.0586 -0.3570 -0.2504
  408loPI   GL1 6517  10.167   7.087   9.823 -0.0183  0.0610 -0.0480
  408loPI   GL2 6518  10.331   6.738   9.895  0.0036  0.0320 -0.2820
  408loPI   C1A 6519  10.139   7.155   9.410  0.1599 -0.1525  0.0870
  408loPI   C2A 6520  10.069   6.983   9.009 -0.1590  0.0399 -0.1513
  408loPI   C3A 6521  10.012   6.960   8.619  0.0399  0.1102 -0.0303
  408loPI   C4A 6522  10.007   6.977   8.214 -0.1048  0.0319 -0.1503
  408loPI   C5A 6523   9.800   7.176   7.874  0.1887 -0.0955  0.1848
  408loPI   C6A 6524   9.521   7.264   7.436 -0.1139 -0.0749 -0.0607
  408loPI   C1B 6525  10.250   6.587   9.485 -0.1744  0.0783  0.0655
  408loPI   C2B 6526  10.163   6.537   9.100 -0.0230 -0.0554  0.2451
  408loPI   C3B 6527  10.210   6.505   8.738 -0.0535 -0.0334  0.2771
  408loPI   C4B 6528  10.211   6.570   8.402 -0.1894  0.0409 -0.1119
  409loPI    C1 6529  10.717   3.086  11.256 -0.0211 -0.0383  0.1013
  409loPI    C2 6530  10.342   2.949  11.277 -0.0206 -0.0434  0.0760
  409loPI    C3 6531  10.612   2.835  11.549 -0.0506  0.0014  0.1247
  409loPI   PO4 6532  10.816   3.055  10.942  0.2601 -0.0785 -0.1037
  409loPI   GL1 6533  10.999   2.816  10.581  0.0353  0.1340  0.0103
  409loPI   GL2 6534  11.027   3.134  10.423 -0.1031 -0.0849  0.2743
  409loPI   C1A 6535  11.076   2.607  10.237  0.1578  0.0360  0.0404
  409loPI   C2A 6536  11.135   2.552   9.783  0.2232 -0.0768 -0.1345
  409loPI   C3A 6537  11.025   2.519   9.369  0.0971 -0.0116  0.0173
  409loPI   C4A 6538  11.003   2.589   8.957 -0.0116  0.3949  0.1023
  409loPI   C5A 6539  10.873   2.481   8.501 -0.0142 -0.0523 -0.1533
  409loPI   C6A 6540  11.068   2.574   8.101  0.2491  0.0751 -0.3607
  409loPI   C1B 6541  10.993   3.102   9.962 -0.1061 -0.2164 -0.1313
  409loPI   C2B 6542  10.963   3.048   9.537  0.0058  0.1508  0.0303
  409loPI   C3B 6543  10.893   3.064   9.116 -0.1135  0.0658 -0.0761
  409loPI   C4B 6544  10.918   2.993   8.625 -0.0470  0.0684  0.2161
  410loPI    C1 6545  13.203  15.653  11.083  0.0494  0.0467 -0.1542
  410loPI    C2 6546  12.935  15.391  11.223  0.0064  0.2132  0.0801
  410loPI    C3 6547  13.142  15.621  11.477  0.0719  0.3796 -0.1212
  410loPI   PO4 6548  13.186  15.576  10.802 -0.1801  0.1699 -0.1346
  410loPI   GL1 6549  13.465  15.568  10.548  0.1210 -0.0114  0.0189
  410loPI   GL2 6550  13.372  15.272  10.440  0.0780  0.2027  0.0709
  410loPI   C1A 6551  13.361  15.734  10.134  0.1158 -0.0726  0.1264
  410loPI   C2A 6552  13.285  15.660   9.743  0.3670  0.1178 -0.2616
  410loPI   C3A 6553  13.492  15.743   9.422 -0.2087  0.2419 -0.0779
  410loPI   C4A 6554  13.512  15.659   9.046 -0.1208 -0.0647  0.0431
  410loPI   C5A 6555  13.509  15.769   8.680 -0.1630 -0.0671 -0.0942
  410loPI   C6A 6556  13.599  15.780   8.350  0.0717  0.1848 -0.0999
  410loPI   C1B 6557  13.380  15.239  10.028 -0.2191 -0.0616  0.1830
  410loPI   C2B 6558  13.442  15.132   9.603 -0.1109  0.3257  0.1382
  410loPI   C3B 6559  13.573  15.186   9.150  0.1472  0.0158  0.1867
  410loPI   C4B 6560  13.667  15.308   8.683  0.1407 -0.1478 -0.1025
  411loPI    C1 6561  14.903   0.001  11.278  0.1943 -0.1233 -0.0431
  411loPI    C2 6562  14.519  -0.062  11.187  0.1400  0.1760 -0.0322
  411loPI    C3 6563  14.696  -0.282  11.471 -0.0202  0.0330 -0.0415
  411loPI   PO4 6564  15.008   0.042  10.974  0.0419  0.2860  0.0951
  411loPI   GL1 6565  14.801  -0.158  10.643 -0.1306  0.0473  0.0210
  411loPI   GL2 6566  14.477  -0.239  10.684  0.2810 -0.2013  0.0422
  411loPI   C1A 6567  14.899  -0.207  10.192  0.1022  0.0705  0.2837
  411loPI   C2A 6568  14.818  -0.186   9.767  0.2890 -0.0314  0.0317
  411loPI   C3A 6569  14.866  -0.164   9.192 -0.1983  0.2426  0.1252
  411loPI   C4A 6570  15.187  -0.215   8.823  0.1065  0.3433  0.1825
  411loPI   C5A 6571  15.551  -0.179   8.708 -0.0943 -0.1481  0.1758
  411loPI   C6A 6572  15.973  -0.041   8.568 -0.0975 -0.1016  0.2337
  411loPI   C1B 6573  14.387   0.031  10.348  0.0060  0.0258 -0.1881
  411loPI   C2B 6574  14.415   0.092   9.885  0.0425  0.0670 -0.3738
  411loPI   C3B 6575  14.402   0.120   9.478  0.0961  0.3555  0.0871
  411loPI   C4B 6576  14.399   0.088   9.035  0.0983  0.1736 -0.0928
  412loPI    C1 6577  14.076   6.544  10.939  0.0586 -0.0308  0.1016
  412loPI    C2 6578  13.987   6.173  10.820  0.0462  0.0544 -0.1624
  412loPI    C3 6579  13.730   6.376  11.050  0.0303 -0.0803 -0.0591
  412loPI   PO4 6580  14.183   6.669  10.670  0.0636  0.1723  0.2919
  412loPI   GL1 6581  14.131   6.527  10.276 -0.1946  0.0331 -0.3324
  412loPI   GL2 6582  14.124   6.254  10.352 -0.1625  0.1740 -0.0611
  412loPI   C1A 6583  14.406   6.634   9.918 -0.0858 -0.1965  0.0237
  412loPI   C2A 6584  14.437   6.720   9.541 -0.1909 -0.1689 -0.0262
  412loPI   C3A 6585  14.554   6.684   9.131 -0.0119  0.0053  0.0462
  412loPI   C4A 6586  14.478   6.621   8.654  0.0940  0.1470 -0.0449
  412loPI   C5A 6587  14.469   6.208   8.374 -0.0566 -0.0116 -0.3780
  412loPI   C6A 6588  14.178   5.966   8.324  0.0168 -0.0367  0.1977
  412loPI   C1B 6589  14.463   6.190  10.087  0.1663  0.1197  0.0731
  412loPI   C2B 6590  14.474   6.139   9.670 -0.0023  0.0957 -0.2004
  412loPI   C3B 6591  14.616   6.082   9.276 -0.4859 -0.2082 -0.2527
  412loPI   C4B 6592  14.670   6.216   8.892 -0.4512 -0.0546  0.1408
  413loPI    C1 6593  17.431  13.031  11.527  0.0819 -0.1218  0.0248
  413loPI    C2 6594  17.819  13.122  11.558  0.1784 -0.4816 -0.0759
  413loPI    C3 6595  17.671  12.806  11.755 -0.1404 -0.1461  0.2398
  413loPI   PO4 6596  17.408  13.165  11.227  0.4243 -0.1779 -0.3366
  413loPI   GL1 6597  17.443  13.368  10.860  0.2553  0.1498  0.3000
  413loPI   GL2 6598  17.584  13.180  10.761  0.1038 -0.0026 -0.1060
  413loPI   C1A 6599  17.828  13.630  10.571  0.0120  0.0881  0.1037
  413loPI   C2A 6600  18.042  13.689  10.181 -0.1379  0.0610 -0.2653
  413loPI   C3A 6601  17.966  13.699   9.679  0.2701  0.1684 -0.0459
  413loPI   C4A 6602  17.972  13.550   9.230 -0.0206 -0.2363 -0.1147
  413loPI   C5A 6603  17.986  13.737   8.813 -0.3570 -0.1693 -0.1917
  413loPI   C6A 6604  18.238  13.985   8.506  0.4106 -0.1040  0.1761
  413loPI   C1B 6605  17.512  13.273  10.349  0.0321 -0.1765 -0.1420
  413loPI   C2B 6606  17.659  13.357   9.940 -0.2810 -0.0100  0.1963
  413loPI   C3B 6607  17.601  13.326   9.540  0.4707  0.4101 -0.0763
  413loPI   C4B 6608  17.543  13.404   9.052 -0.0534  0.1147 -0.0278
  414loPI    C1 6609   2.288   0.898  11.557 -0.1217  0.1447 -0.1518
  414loPI    C2 6610   2.393   1.112  11.878 -0.0524 -0.0811 -0.0214
  414loPI    C3 6611   2.085   0.858  11.900 -0.0322 -0.1151 -0.1264
  414loPI   PO4 6612   2.563   0.853  11.441  0.0436 -0.1754  0.1459
  414loPI   GL1 6613   2.749   0.779  11.008  0.0306  0.1245 -0.2618
  414loPI   GL2 6614   2.978   0.815  10.902  0.2697  0.2931  0.2452
  414loPI   C1A 6615   2.596   0.983  10.634 -0.0816 -0.0623  0.1938
  414loPI   C2A 6616   2.645   1.017  10.222 -0.3295 -0.0557 -0.1080
  414loPI   C3A 6617   2.540   0.973   9.844  0.2833  0.1384 -0.1176
  414loPI   C4A 6618   2.595   0.947   9.440 -0.0953  0.0798 -0.1680
  414loPI   C5A 6619   2.598   0.983   9.083  0.1842 -0.1706  0.0132
  414loPI   C6A 6620   2.444   1.210   8.695 -0.0717  0.0960 -0.1286
  414loPI   C1B 6621   3.075   0.768  10.492 -0.0771 -0.2459  0.1275
  414loPI   C2B 6622   3.049   0.809  10.060 -0.2760 -0.0935 -0.3106
  414loPI   C3B 6623   3.121   0.756   9.655  0.0000 -0.2091  0.0349
  414loPI   C4B 6624   3.084   0.797   9.229 -0.0946  0.1500  0.0331
  415loPI    C1 6625   1.328  16.751  11.479  0.2450  0.2197 -0.0264
  415loPI    C2 6626   1.542  16.542  11.744 -0.2443 -0.3255 -0.0399
  415loPI    C3 6627   1.273  16.809  11.871 -0.0315 -0.1233 -0.0083
  415loPI   PO4 6628   1.243  16.680  11.299 -0.1725 -0.0581 -0.0815
  415loPI   GL1 6629   1.455  16.586  10.885 -0.1795 -0.0791 -0.2602
  415loPI   GL2 6630   1.087  16.458  10.892 -0.2068 -0.0364 -0.2813
  415loPI   C1A 6631   1.557  16.633  10.442 -0.1201 -0.0377  0.4622
  415loPI   C2A 6632   1.732  16.666  10.017 -0.2338 -0.1990 -0.0668
  415loPI   C3A 6633   1.712  16.661   9.526  0.0446 -0.0321 -0.1743
  415loPI   C4A 6634   1.681  16.513   9.179 -0.0662  0.2574 -0.3587
  415loPI   C5A 6635   1.565  16.503   8.736  0.0998 -0.1148  0.0953
  415loPI   C6A 6636   1.480  16.335   8.319 -0.0406  0.1800  0.2132
  415loPI   C1B 6637   1.179  16.299  10.519 -0.0159  0.0025 -0.0740
  415loPI   C2B 6638   1.318  16.261  10.144  0.1946 -0.0861 -0.0153
  415loPI   C3B 6639   1.323  16.255   9.713  0.0545 -0.1907  0.2189
  415loPI   C4B 6640   1.280  16.183   9.147  0.0706 -0.2989  0.0299
  416loPI    C1 6641  17.152   0.608  11.356 -0.0099  0.3145  0.0899
  416loPI    C2 6642  17.293   0.408  11.672  0.0129  0.0223 -0.1014
  416loPI    C3 6643  17.169   0.786  11.714 -0.0551 -0.0371  0.2715
  416loPI   PO4 6644  17.423   0.588  11.179 -0.0008  0.0444 -0.0012
  416loPI   GL1 6645  17.572   0.442  10.842  0.0724 -0.0718 -0.1126
  416loPI   GL2 6646  17.744   0.669  10.757  0.4433 -0.1230 -0.1464
  416loPI   C1A 6647  17.449   0.292  10.532 -0.0448 -0.1123 -0.0245
  416loPI   C2A 6648  17.499   0.344  10.110  0.0461 -0.0131 -0.0968
  416loPI   C3A 6649  17.537   0.444   9.707  0.3921  0.0247 -0.1966
  416loPI   C4A 6650  17.608   0.390   9.327 -0.1082 -0.1299  0.2297
  416loPI   C5A 6651  17.529   0.443   8.981 -0.1226  0.2741  0.0559
  416loPI   C6A 6652  17.366   0.696   8.735  0.0392 -0.1878 -0.2962
  416loPI   C1B 6653  17.998   0.904  10.469  0.1529 -0.1484  0.1392
  416loPI   C2B 6654  18.103   0.853  10.018  0.0080  0.0088  0.0787
  416loPI   C3B 6655  18.035   0.860   9.555  0.2392 -0.0389  0.0785
  416loPI   C4B 6656  18.006   0.771   9.106  0.1130 -0.0899 -0.1906
  417loPI    C1 6657   5.927   7.882  11.123  0.0217 -0.1100  0.0417
  417loPI    C2 6658   6.081   7.658  11.417  0.0695  0.1572  0.2242
  417loPI    C3 6659   5.940   8.024  11.497 -0.0490  0.1773 -0.0621
  417loPI   PO4 6660   6.019   7.893  10.865 -0.1361  0.1015 -0.0018
  417loPI   GL1 6661   6.164   7.846  10.452 -0.0705  0.0813 -0.2999
  417loPI   GL2 6662   6.163   7.894  10.062  0.1712  0.0173  0.3841
  417loPI   C1A 6663   5.748   8.047  10.298  0.2254 -0.0723  0.0102
  417loPI   C2A 6664   5.711   8.066   9.862 -0.0962  0.1935 -0.0671
  417loPI   C3A 6665   5.725   8.113   9.410 -0.0216 -0.1547 -0.0101
  417loPI   C4A 6666   5.717   8.034   9.018  0.0129  0.2768  0.2327
  417loPI   C5A 6667   5.805   7.985   8.593 -0.3058 -0.0326 -0.0016
  417loPI   C6A 6668   5.752   8.231   8.267  0.0359 -0.0795  0.1340
  417loPI   C1B 6669   6.163   7.932   9.687  0.1960 -0.1786  0.0174
  417loPI   C2B 6670   6.189   7.887   9.249 -0.0088  0.1592  0.1499
  417loPI   C3B 6671   6.252   7.845   8.837 -0.2597 -0.2016  0.0478
  417loPI   C4B 6672   6.183   7.786   8.420 -0.1098 -0.0287 -0.2340
  418loPI    C1 6673  17.305   8.379  11.702  0.3836  0.0617 -0.0796
  418loPI    C2 6674  17.430   8.720  11.869  0.1236  0.0965  0.0480
  418loPI    C3 6675  17.603   8.374  11.968  0.2994  0.1747  0.0178
  418loPI   PO4 6676  17.274   8.405  11.442 -0.2897  0.1358 -0.0876
  418loPI   GL1 6677  17.162   8.411  10.982  0.2281 -0.1860  0.1738
  418loPI   GL2 6678  17.479   8.525  10.928 -0.0041  0.0224  0.1569
  418loPI   C1A 6679  17.000   8.176  10.598 -0.2879 -0.0339 -0.1054
  418loPI   C2A 6680  17.188   8.141  10.178 -0.2592  0.3355  0.1337
  418loPI   C3A 6681  17.438   8.134   9.780  0.0688 -0.0988  0.0174
  418loPI   C4A 6682  17.352   8.207   9.362  0.1719 -0.0664  0.0286
  418loPI   C5A 6683  17.409   8.302   9.003 -0.0878  0.1010 -0.1656
  418loPI   C6A 6684  17.570   8.719   8.777  0.1879  0.1527  0.1358
  418loPI   C1B 6685  17.592   8.268  10.553 -0.2146 -0.3479 -0.2900
  418loPI   C2B 6686  17.847   8.387  10.221 -0.2090  0.1121 -0.1181
  418loPI   C3B 6687  17.807   8.478   9.860 -0.2979 -0.0532 -0.0240
  418loPI   C4B 6688  17.700   8.541   9.391  0.2322 -0.2276  0.2425
  419loPI    C1 6689  15.158  12.723  11.369 -0.2126 -0.0749 -0.1967
  419loPI    C2 6690  15.177  12.334  11.460 -0.0723 -0.0284 -0.0230
  419loPI    C3 6691  15.081  12.601  11.742 -0.0827  0.0718 -0.1208
  419loPI   PO4 6692  14.958  12.739  11.055 -0.1761 -0.2428  0.2061
  419loPI   GL1 6693  15.075  12.523  10.662  0.0035 -0.0696  0.2114
  419loPI   GL2 6694  15.271  12.754  10.605 -0.1040  0.1339  0.0796
  419loPI   C1A 6695  15.027  12.351  10.222 -0.1968  0.2676 -0.2745
  419loPI   C2A 6696  15.029  12.352   9.819  0.0602 -0.1395  0.0429
  419loPI   C3A 6697  15.000  12.243   9.436  0.3062 -0.2754 -0.0497
  419loPI   C4A 6698  15.007  12.251   9.053 -0.1634  0.0218  0.3001
  419loPI   C5A 6699  14.911  12.521   8.651  0.1725  0.1203 -0.1086
  419loPI   C6A 6700  15.267  12.664   8.319 -0.1432  0.0642  0.0268
  419loPI   C1B 6701  15.370  12.667  10.209  0.2575  0.1473 -0.1314
  419loPI   C2B 6702  15.374  12.698   9.760 -0.0100 -0.2746  0.4932
  419loPI   C3B 6703  15.345  12.656   9.373  0.2420  0.2067 -0.1762
  419loPI   C4B 6704  15.370  12.669   8.879 -0.0001  0.2080  0.0761
  420loPI    C1 6705   3.973  17.569  11.495 -0.1053  0.0158 -0.0218
  420loPI    C2 6706   3.881  17.946  11.588  0.0538  0.0308  0.0786
  420loPI    C3 6707   3.659  17.645  11.729 -0.0704  0.0859  0.0025
  420loPI   PO4 6708   3.940  17.601  11.223  0.1081  0.0686  0.0921
  420loPI   GL1 6709   3.691  17.500  10.948  0.2410 -0.2956  0.0507
  420loPI   GL2 6710   3.673  17.779  10.779  0.2512  0.2607  0.0899
  420loPI   C1A 6711   3.753  17.315  10.608  0.1605 -0.0268  0.1430
  420loPI   C2A 6712   3.797  17.293  10.196 -0.0209 -0.0255 -0.0618
  420loPI   C3A 6713   3.829  17.238   9.723 -0.1603 -0.3854  0.1702
  420loPI   C4A 6714   3.762  17.245   9.274  0.1006 -0.0751  0.0541
  420loPI   C5A 6715   3.941  17.360   8.919 -0.0071  0.0328  0.1834
  420loPI   C6A 6716   4.016  17.726   8.852  0.0732 -0.0802 -0.1389
  420loPI   C1B 6717   3.722  17.765  10.326 -0.1798  0.2004  0.0632
  420loPI   C2B 6718   3.623  17.763   9.854 -0.1658  0.2344  0.1805
  420loPI   C3B 6719   3.637  17.758   9.386  0.0198  0.2373 -0.1688
  420loPI   C4B 6720   3.561  17.646   9.028 -0.1796 -0.0113 -0.2351
  421loPI    C1 6721   8.574   6.103  10.928 -0.0114  0.1642  0.0709
  421loPI    C2 6722   8.574   6.499  10.987 -0.1342  0.2040 -0.1836
  421loPI    C3 6723   8.625   6.251  11.296 -0.0619  0.4179 -0.0215
  421loPI   PO4 6724   8.398   6.149  10.630  0.1556 -0.2626  0.0050
  421loPI   GL1 6725   8.424   6.233  10.176 -0.0257 -0.0943 -0.0013
  421loPI   GL2 6726   8.371   6.540  10.276 -0.0787 -0.0027 -0.0867
  421loPI   C1A 6727   8.434   6.166   9.656  0.1960  0.3443  0.4118
  421loPI   C2A 6728   8.441   6.147   9.242  0.0322 -0.3503  0.1522
  421loPI   C3A 6729   8.386   6.251   8.906  0.0528 -0.1569 -0.3702
  421loPI   C4A 6730   8.453   6.314   8.389 -0.0357  0.1879  0.0090
  421loPI   C5A 6731   8.357   6.562   8.043  0.0529  0.2839 -0.2585
  421loPI   C6A 6732   8.310   6.989   8.003  0.2627 -0.0457 -0.0122
  421loPI   C1B 6733   8.229   6.720   9.957 -0.2619  0.1362  0.1027
  421loPI   C2B 6734   8.267   6.608   9.459  0.1714  0.3756  0.0336
  421loPI   C3B 6735   8.241   6.689   9.023 -0.0860 -0.2777 -0.4140
  421loPI   C4B 6736   8.297   6.770   8.505  0.1904 -0.1362  0.1399
  422loPI    C1 6737  14.250  13.342  11.462  0.0863  0.0241 -0.0714
  422loPI    C2 6738  14.555  13.418  11.711  0.0777  0.1001 -0.0835
  422loPI    C3 6739  14.190  13.345  11.857  0.1056 -0.0114 -0.0682
  422loPI   PO4 6740  14.449  13.171  11.289 -0.3614  0.3280 -0.1728
  422loPI   GL1 6741  14.744  13.209  11.033  0.3746 -0.0501 -0.0043
  422loPI   GL2 6742  14.938  13.344  10.805 -0.0447 -0.0233 -0.0188
  422loPI   C1A 6743  14.558  13.185  10.573 -0.0478 -0.1073 -0.2490
  422loPI   C2A 6744  14.648  13.248  10.183 -0.3386  0.1129  0.2058
  422loPI   C3A 6745  14.807  13.248   9.700 -0.1109 -0.0433 -0.1529
  422loPI   C4A 6746  14.892  13.370   9.286  0.0107 -0.1314 -0.4823
  422loPI   C5A 6747  14.994  13.358   8.874 -0.4897  0.3044  0.0140
  422loPI   C6A 6748  15.213  13.094   8.622  0.2767  0.4711 -0.0741
  422loPI   C1B 6749  15.060  13.200  10.485  0.0125 -0.1137  0.2606
  422loPI   C2B 6750  15.220  13.142   9.977  0.0316  0.2187 -0.0087
  422loPI   C3B 6751  15.304  13.127   9.492 -0.0282  0.1011 -0.1763
  422loPI   C4B 6752  15.383  13.146   9.097 -0.1944 -0.0051  0.4634
  423loPI    C1 6753   1.438   9.967  11.525  0.2695  0.1583 -0.1153
  423loPI    C2 6754   1.703   9.927  11.822 -0.0034 -0.1114  0.0979
  423loPI    C3 6755   1.390  10.172  11.865  0.1365  0.1063 -0.1023
  423loPI   PO4 6756   1.560  10.011  11.330  0.0587  0.0985  0.1974
  423loPI   GL1 6757   1.769  10.025  10.980  0.2575 -0.2005  0.3835
  423loPI   GL2 6758   2.002   9.793  11.078 -0.1247 -0.2902 -0.0508
  423loPI   C1A 6759   1.631   9.971  10.620  0.0223 -0.3635  0.2555
  423loPI   C2A 6760   1.719   9.823  10.090  0.2612 -0.1030 -0.0383
  423loPI   C3A 6761   1.786   9.817   9.688  0.0096  0.1433 -0.1056
  423loPI   C4A 6762   1.682   9.766   9.288 -0.0694  0.2081  0.1875
  423loPI   C5A 6763   1.641   9.951   8.924  0.0544  0.0250  0.1803
  423loPI   C6A 6764   1.941   9.833   8.573 -0.0397 -0.0496 -0.0728
  423loPI   C1B 6765   2.342   9.774  10.886  0.0101  0.1861  0.3439
  423loPI   C2B 6766   2.261   9.731  10.508  0.0681  0.0325  0.1212
  423loPI   C3B 6767   2.261   9.685  10.070  0.0450  0.2557  0.0563
  423loPI   C4B 6768   2.253   9.637   9.651  0.0225  0.0488  0.0171
  424loPI    C1 6769   2.009   1.824  11.418  0.0906 -0.1638 -0.0462
  424loPI    C2 6770   2.133   2.136  11.635 -0.0521  0.0156 -0.2191
  424loPI    C3 6771   1.969   1.820  11.816  0.1967 -0.0103 -0.0331
  424loPI   PO4 6772   1.833   1.918  11.213 -0.0208  0.1489 -0.0261
  424loPI   GL1 6773   1.825   1.882  10.803 -0.1689 -0.1961 -0.4492
  424loPI   GL2 6774   1.944   1.555  10.925  0.1498 -0.1956 -0.0989
  424loPI   C1A 6775   1.805   2.170  10.388  0.0720 -0.1121  0.3229
  424loPI   C2A 6776   1.898   2.178  10.022 -0.0730 -0.0537  0.1054
  424loPI   C3A 6777   1.866   2.259   9.581 -0.1375 -0.0897  0.1237
  424loPI   C4A 6778   1.846   2.235   9.088 -0.1146 -0.1307 -0.1936
  424loPI   C5A 6779   1.909   2.556   8.757  0.0563  0.1161 -0.1227
  424loPI   C6A 6780   1.727   2.836   8.579 -0.1662 -0.0594  0.1997
  424loPI   C1B 6781   1.927   1.589  10.436  0.1445  0.0430 -0.1685
  424loPI   C2B 6782   2.030   1.678   9.989 -0.1754 -0.0151  0.1054
  424loPI   C3B 6783   1.982   1.732   9.521 -0.3276  0.3261  0.2430
  424loPI   C4B 6784   1.987   1.714   9.115 -0.0588 -0.0108  0.1924
  425loPI    C1 6785  16.875   0.229  11.225  0.2411  0.1196 -0.1674
  425loPI    C2 6786  17.225   0.105  11.075  0.1358 -0.3962 -0.0078
  425loPI    C3 6787  17.132   0.026  11.456 -0.0458 -0.0268  0.0291
  425loPI   PO4 6788  16.703   0.206  11.050 -0.4399  0.0867 -0.3063
  425loPI   GL1 6789  16.715   0.391  10.646 -0.0576  0.2166 -0.1125
  425loPI   GL2 6790  16.978   0.597  10.762  0.2434 -0.0984  0.0189
  425loPI   C1A 6791  16.678   0.244  10.321  0.0443  0.3991 -0.0864
  425loPI   C2A 6792  16.647   0.263   9.877 -0.3029 -0.1196 -0.2517
  425loPI   C3A 6793  16.717   0.288   9.431 -0.2354  0.0241 -0.0407
  425loPI   C4A 6794  16.793   0.256   8.957 -0.1343  0.2558 -0.2632
  425loPI   C5A 6795  17.000   0.424   8.638 -0.0569  0.0854 -0.0134
  425loPI   C6A 6796  16.943   0.730   8.275  0.1807 -0.0864 -0.1248
  425loPI   C1B 6797  17.080   0.562  10.361  0.2086  0.1112  0.2496
  425loPI   C2B 6798  17.063   0.550   9.958  0.0088 -0.0793  0.1044
  425loPI   C3B 6799  17.147   0.593   9.544  0.0844 -0.2682 -0.0935
  425loPI   C4B 6800  17.121   0.681   9.228 -0.0194 -0.1389 -0.2539
  426loPI    C1 6801  10.616  10.085  10.674 -0.2515 -0.1605  0.1575
  426loPI    C2 6802  10.260  10.197  10.818 -0.2230  0.2654 -0.0850
  426loPI    C3 6803  10.590  10.255  11.036 -0.3083 -0.2672  0.2039
  426loPI   PO4 6804  10.627  10.126  10.468 -0.1215  0.0296  0.0864
  426loPI   GL1 6805  10.667   9.874  10.110  0.3069  0.0398  0.1833
  426loPI   GL2 6806  10.412   9.762  10.083 -0.0736 -0.0223 -0.1543
  426loPI   C1A 6807  10.728   9.869   9.637  0.3681  0.0698 -0.0964
  426loPI   C2A 6808  10.709  10.065   9.283 -0.3280 -0.2250 -0.1349
  426loPI   C3A 6809  10.814  10.240   8.878 -0.1713  0.1841  0.1292
  426loPI   C4A 6810  10.788  10.401   8.461  0.1252  0.2839  0.3083
  426loPI   C5A 6811  11.265  10.435   8.260  0.2803  0.2901  0.4895
  426loPI   C6A 6812  11.546  10.570   7.901 -0.0216  0.0152  0.0873
  426loPI   C1B 6813  10.210  10.158   9.769  0.1371 -0.1596  0.1172
  426loPI   C2B 6814  10.265  10.351   9.411 -0.0985 -0.0712  0.0071
  426loPI   C3B 6815  10.453  10.532   9.129 -0.1872 -0.1369  0.0804
  426loPI   C4B 6816  10.605  10.752   8.754  0.0227 -0.0858 -0.0140
  427loPI    C1 6817   1.264  13.746  11.668 -0.1064 -0.0715 -0.0066
  427loPI    C2 6818   1.312  13.671  12.058  0.0965  0.1585  0.0153
  427loPI    C3 6819   1.141  14.013  11.940  0.1137  0.1278 -0.0992
  427loPI   PO4 6820   1.511  13.637  11.534 -0.1466 -0.2118 -0.1448
  427loPI   GL1 6821   1.452  13.707  11.053 -0.1222  0.2239  0.1859
  427loPI   GL2 6822   1.383  13.450  10.870  0.1209  0.1994  0.1684
  427loPI   C1A 6823   1.283  13.839  10.617 -0.1074 -0.0100  0.0285
  427loPI   C2A 6824   1.304  13.936  10.222  0.0015 -0.1487  0.0164
  427loPI   C3A 6825   1.341  13.830   9.805  0.0875  0.0937 -0.0954
  427loPI   C4A 6826   1.238  13.827   9.346 -0.1605 -0.0063  0.0940
  427loPI   C5A 6827   1.248  13.633   8.973 -0.1598  0.2539 -0.2784
  427loPI   C6A 6828   1.434  13.436   8.659 -0.1554  0.2496  0.1925
  427loPI   C1B 6829   1.433  13.312  10.506  0.2287 -0.0398  0.1539
  427loPI   C2B 6830   1.428  13.345  10.054  0.2632 -0.0695 -0.0965
  427loPI   C3B 6831   1.403  13.341   9.551  0.0470  0.0433 -0.2226
  427loPI   C4B 6832   1.327  13.140   9.113  0.2455  0.2245  0.0278
  428loPI    C1 6833  11.877  12.443  10.810  0.2315  0.1600 -0.0111
  428loPI    C2 6834  12.199  12.207  10.835  0.0737 -0.0590 -0.0218
  428loPI    C3 6835  11.889  12.150  11.082  0.0219  0.1192 -0.0441
  428loPI   PO4 6836  11.969  12.639  10.641 -0.2578 -0.0062 -0.0494
  428loPI   GL1 6837  12.277  12.817  10.443  0.1266  0.2005 -0.2231
  428loPI   GL2 6838  11.910  12.936  10.182 -0.0525  0.0158  0.0364
  428loPI   C1A 6839  12.439  12.689  10.008 -0.0744 -0.0355 -0.0333
  428loPI   C2A 6840  12.643  12.493   9.683  0.2109  0.2342 -0.0830
  428loPI   C3A 6841  12.674  12.500   9.272  0.0938 -0.1110  0.2824
  428loPI   C4A 6842  12.787  12.506   8.787 -0.0786 -0.2737 -0.1290
  428loPI   C5A 6843  12.759  12.554   8.324 -0.0700  0.1736  0.2252
  428loPI   C6A 6844  12.561  12.859   8.099 -0.1108 -0.0971  0.1410
  428loPI   C1B 6845  11.982  12.885   9.798 -0.0301  0.0893  0.1412
  428loPI   C2B 6846  12.221  12.737   9.547  0.0952 -0.1802  0.0933
  428loPI   C3B 6847  12.224  12.746   9.069  0.1334 -0.1300 -0.3725
  428loPI   C4B 6848  12.346  12.648   8.647  0.2380 -0.1668  0.0273
  429loPI    C1 6849   4.077  10.928  11.256  0.1491 -0.0364 -0.1926
  429loPI    C2 6850   3.716  10.758  11.284  0.0904  0.0973 -0.1278
  429loPI    C3 6851   3.819  11.052  11.535  0.2805 -0.0049 -0.0840
  429loPI   PO4 6852   4.048  11.002  11.013 -0.0874 -0.2060  0.0803
  429loPI   GL1 6853   4.257  10.783  10.614  0.1077  0.1839 -0.1067
  429loPI   GL2 6854   4.520  10.715  10.488  0.2655  0.1307 -0.0689
  429loPI   C1A 6855   4.168  10.979  10.245 -0.3240  0.0804 -0.0526
  429loPI   C2A 6856   4.203  10.915   9.817 -0.3216  0.1122  0.2203
  429loPI   C3A 6857   4.127  10.983   9.470 -0.1360 -0.2050  0.1179
  429loPI   C4A 6858   4.179  10.990   9.103 -0.1278  0.1699 -0.3004
  429loPI   C5A 6859   3.933  10.969   8.751  0.1124  0.1368  0.3167
  429loPI   C6A 6860   3.617  11.031   8.596  0.4128 -0.0041  0.1027
  429loPI   C1B 6861   4.734  10.794  10.111  0.2333 -0.0946 -0.0296
  429loPI   C2B 6862   4.701  10.795   9.638 -0.0122 -0.0671  0.0667
  429loPI   C3B 6863   4.612  10.848   9.255 -0.0365  0.0755  0.1605
  429loPI   C4B 6864   4.607  10.831   8.823 -0.0757  0.0887 -0.2567
  430loPI    C1 6865   4.356  15.193  11.596  0.1941 -0.1769  0.2362
  430loPI    C2 6866   4.007  15.045  11.724  0.0340  0.0996  0.1284
  430loPI    C3 6867   4.240  15.253  11.974  0.0479  0.0491  0.1576
  430loPI   PO4 6868   4.310  15.266  11.335  0.1161 -0.2647  0.2688
  430loPI   GL1 6869   4.224  15.358  10.970  0.1288 -0.0581 -0.0077
  430loPI   GL2 6870   4.249  15.058  10.844  0.2033  0.0386  0.3108
  430loPI   C1A 6871   4.021  15.605  10.729  0.0014  0.3060  0.0381
  430loPI   C2A 6872   4.052  15.830  10.333 -0.1480 -0.0244  0.0811
  430loPI   C3A 6873   4.027  15.753   9.883  0.0017 -0.2136 -0.1341
  430loPI   C4A 6874   4.167  15.793   9.459 -0.1006  0.0066  0.0513
  430loPI   C5A 6875   4.065  15.855   8.995  0.2685  0.1067 -0.1916
  430loPI   C6A 6876   4.074  16.080   8.639  0.0480  0.0609  0.0177
  430loPI   C1B 6877   4.108  15.255  10.331 -0.0175  0.0844 -0.1717
  430loPI   C2B 6878   4.202  15.309   9.912  0.1320  0.1315  0.0608
  430loPI   C3B 6879   4.148  15.264   9.457  0.4108 -0.0789  0.1888
  430loPI   C4B 6880   4.303  15.442   9.080  0.0216  0.2557  0.0255
  431loPI    C1 6881  10.886   7.011  10.526 -0.0403  0.0751  0.0532
  431loPI    C2 6882  10.566   6.921  10.748  0.0285 -0.2481  0.0260
  431loPI    C3 6883  10.927   6.788  10.854  0.1169 -0.0984 -0.0826
  431loPI   PO4 6884  10.780   6.902  10.262  0.1187  0.2111  0.1433
  431loPI   GL1 6885  11.009   6.751   9.884 -0.0767 -0.1541 -0.2746
  431loPI   GL2 6886  10.861   6.488   9.852 -0.1832  0.0491 -0.0793
  431loPI   C1A 6887  11.154   6.820   9.497 -0.0698  0.1140 -0.1753
  431loPI   C2A 6888  11.153   6.738   9.156  0.1975 -0.1242  0.0038
  431loPI   C3A 6889  11.127   6.750   8.828  0.1656  0.0275  0.0926
  431loPI   C4A 6890  11.040   6.851   8.326  0.0874 -0.2378  0.0671
  431loPI   C5A 6891  11.089   7.103   7.997  0.1238 -0.1165  0.0272
  431loPI   C6A 6892  11.400   7.163   7.733 -0.1854 -0.0800  0.1527
  431loPI   C1B 6893  10.752   6.458   9.424  0.0684 -0.0205  0.0048
  431loPI   C2B 6894  10.748   6.406   8.967 -0.1483 -0.0069  0.0178
  431loPI   C3B 6895  10.738   6.531   8.595  0.0765  0.1212  0.0083
  431loPI   C4B 6896  10.680   6.538   8.080 -0.1042  0.0725  0.2481
  432loPI    C1 6897  17.292   3.923  11.636  0.0005  0.3782 -0.1796
  432loPI    C2 6898  17.154   4.291  11.710  0.1631  0.3647  0.2177
  432loPI    C3 6899  17.223   4.039  12.013 -0.2347 -0.1037 -0.0666
  432loPI   PO4 6900  17.166   3.864  11.466  0.1400 -0.3862 -0.1515
  432loPI   GL1 6901  17.278   3.854  11.022  0.1845  0.3664  0.1667
  432loPI   GL2 6902  17.296   3.661  10.757  0.1522  0.2134  0.0557
  432loPI   C1A 6903  17.487   4.115  10.769  0.0095  0.0243  0.2915
  432loPI   C2A 6904  17.749   4.162  10.346  0.0106  0.1802  0.2139
  432loPI   C3A 6905  17.684   4.123   9.896  0.0186  0.2442  0.2243
  432loPI   C4A 6906  17.648   4.223   9.506  0.0710 -0.0215  0.0177
  432loPI   C5A 6907  17.680   4.275   9.088 -0.0262 -0.0961 -0.1613
  432loPI   C6A 6908  17.828   4.465   8.698  0.1414  0.3882 -0.1411
  432loPI   C1B 6909  17.343   3.797  10.423 -0.1916 -0.1784 -0.0193
  432loPI   C2B 6910  17.343   3.792   9.991  0.2832 -0.1200 -0.0439
  432loPI   C3B 6911  17.349   3.863   9.541  0.2003  0.0158  0.1591
  432loPI   C4B 6912  17.293   3.928   9.141  0.0283 -0.0280 -0.2684
  433loPI    C1 6913  10.691  16.077  10.797  0.1114  0.2767 -0.0066
  433loPI    C2 6914  10.631  16.022  11.189  0.0422 -0.1035 -0.0671
  433loPI    C3 6915  10.380  15.859  10.923 -0.0190  0.3076 -0.2691
  433loPI   PO4 6916  10.720  16.335  10.748  0.2601  0.0059 -0.2207
  433loPI   GL1 6917  10.349  16.383  10.443 -0.2134  0.3039  0.0502
  433loPI   GL2 6918  10.106  16.182  10.413  0.0144  0.3155 -0.1882
  433loPI   C1A 6919  10.467  16.594  10.115 -0.0031  0.2403  0.1647
  433loPI   C2A 6920  10.428  16.593   9.617  0.1076  0.3111  0.1969
  433loPI   C3A 6921  10.524  16.639   9.187  0.1733  0.1230  0.5898
  433loPI   C4A 6922  10.452  16.603   8.784  0.0275 -0.0474 -0.2337
  433loPI   C5A 6923  10.371  16.983   8.472 -0.1202  0.1464  0.0754
  433loPI   C6A 6924  10.094  17.072   8.200 -0.2042 -0.0323 -0.2435
  433loPI   C1B 6925  10.002  16.263   9.980  0.1843  0.1643  0.0250
  433loPI   C2B 6926   9.977  16.280   9.623  0.2004  0.0575 -0.0607
  433loPI   C3B 6927  10.096  16.211   9.211 -0.4138  0.2585  0.0974
  433loPI   C4B 6928  10.090  16.279   8.796 -0.0788  0.0518  0.0870
  434loPI    C1 6929   3.769  12.508  11.090  0.0165 -0.0905  0.1452
  434loPI    C2 6930   3.747  12.730  11.422 -0.0198  0.0888  0.0241
  434loPI    C3 6931   3.434  12.509  11.307 -0.1469  0.3286 -0.0980
  434loPI   PO4 6932   3.911  12.665  10.966  0.0602 -0.2816  0.0178
  434loPI   GL1 6933   4.175  12.896  10.655 -0.0215 -0.0964  0.1432
  434loPI   GL2 6934   4.167  13.189  10.696 -0.0076 -0.2116 -0.1338
  434loPI   C1A 6935   4.236  12.788  10.230  0.0245 -0.0348 -0.0963
  434loPI   C2A 6936   4.245  12.920   9.813 -0.0979 -0.0395 -0.3010
  434loPI   C3A 6937   4.174  12.829   9.468  0.0350  0.0856  0.0667
  434loPI   C4A 6938   4.286  12.959   9.111 -0.2517  0.0406 -0.0577
  434loPI   C5A 6939   4.211  12.850   8.701 -0.2489 -0.2032  0.0743
  434loPI   C6A 6940   4.356  12.828   8.306  0.0874  0.0742 -0.1964
  434loPI   C1B 6941   4.112  13.451  10.256 -0.1477  0.1299 -0.0377
  434loPI   C2B 6942   4.171  13.390   9.834 -0.0199  0.2464 -0.3363
  434loPI   C3B 6943   4.081  13.334   9.429  0.2706 -0.1687 -0.0561
  434loPI   C4B 6944   4.132  13.417   9.057  0.1057 -0.2343  0.0711
  435loPI    C1 6945   6.491   8.808  11.090 -0.0352  0.1825 -0.0441
  435loPI    C2 6946   6.483   8.896  11.480 -0.1648 -0.1603  0.0344
  435loPI    C3 6947   6.699   8.585  11.350  0.1001  0.1179 -0.2056
  435loPI   PO4 6948   6.289   8.867  10.974  0.4435  0.3684 -0.1632
  435loPI   GL1 6949   6.151   9.130  10.706  0.0263 -0.3449  0.1318
  435loPI   GL2 6950   5.968   8.939  10.584 -0.0944  0.1450  0.2945
  435loPI   C1A 6951   6.284   9.282  10.281 -0.3906  0.0739  0.0219
  435loPI   C2A 6952   6.283   9.218   9.916 -0.0304 -0.1483 -0.0048
  435loPI   C3A 6953   6.244   9.278   9.525 -0.4119  0.1980  0.3451
  435loPI   C4A 6954   6.372   9.247   9.107  0.2602 -0.1829  0.0934
  435loPI   C5A 6955   6.343   9.187   8.660  0.1907  0.0888  0.0826
  435loPI   C6A 6956   6.253   9.131   8.187 -0.0129 -0.2822  0.0151
  435loPI   C1B 6957   5.912   8.941  10.150 -0.1786 -0.0550 -0.1296
  435loPI   C2B 6958   5.925   8.942   9.676 -0.1213 -0.2329  0.1666
  435loPI   C3B 6959   5.899   9.005   9.282 -0.2437 -0.0436 -0.0118
  435loPI   C4B 6960   6.012   8.841   8.863 -0.0275 -0.0925  0.1556
  436loPI    C1 6961   8.247   7.543  10.862 -0.2347  0.0188  0.1089
  436loPI    C2 6962   8.438   7.843  11.046 -0.1023 -0.0558  0.0942
  436loPI    C3 6963   8.380   7.496  11.236 -0.1207 -0.0729  0.0575
  436loPI   PO4 6964   7.965   7.708  10.691  0.0294  0.0779 -0.1129
  436loPI   GL1 6965   7.716   7.778  10.328  0.0099  0.2718 -0.1536
  436loPI   GL2 6966   7.746   7.434  10.357  0.0271  0.0013 -0.3374
  436loPI   C1A 6967   7.631   7.862   9.965  0.0525  0.1126 -0.0730
  436loPI   C2A 6968   7.422   7.806   9.615 -0.2298 -0.2686  0.2823
  436loPI   C3A 6969   7.582   7.932   9.229 -0.1414 -0.0451 -0.0012
  436loPI   C4A 6970   7.603   7.875   8.851  0.0278  0.0559  0.1507
  436loPI   C5A 6971   7.649   8.028   8.532 -0.0658 -0.2177 -0.2603
  436loPI   C6A 6972   7.594   8.434   8.429 -0.0434 -0.1004  0.0615
  436loPI   C1B 6973   7.718   7.306   9.961  0.4235  0.0460  0.0403
  436loPI   C2B 6974   7.655   7.335   9.505  0.0954  0.3667 -0.2539
  436loPI   C3B 6975   7.630   7.404   9.136  0.1648 -0.2905  0.1440
  436loPI   C4B 6976   7.696   7.413   8.669 -0.2272 -0.0800  0.1156
  437loPI    C1 6977   3.040   9.285  11.571  0.1181  0.0273  0.0310
  437loPI    C2 6978   2.856   9.639  11.587  0.0482 -0.0180  0.2724
  437loPI    C3 6979   2.808   9.376  11.884  0.1866 -0.1875  0.1463
  437loPI   PO4 6980   3.335   9.387  11.504 -0.2081 -0.2607 -0.1937
  437loPI   GL1 6981   3.483   9.381  11.011  0.2344 -0.0328 -0.0212
  437loPI   GL2 6982   3.401   9.514  10.798  0.0576  0.1475 -0.1816
  437loPI   C1A 6983   3.641   9.035  10.676  0.0439 -0.1503 -0.0501
  437loPI   C2A 6984   3.725   9.053  10.247 -0.0187 -0.2740 -0.1780
  437loPI   C3A 6985   3.682   9.230   9.840 -0.0412  0.2214  0.0558
  437loPI   C4A 6986   3.655   9.259   9.407  0.0443  0.3872 -0.0918
  437loPI   C5A 6987   3.573   9.164   8.966 -0.1497 -0.1806 -0.0681
  437loPI   C6A 6988   3.641   9.020   8.594  0.1102  0.0314 -0.1751
  437loPI   C1B 6989   3.569   9.507  10.452 -0.1292 -0.0238 -0.2576
  437loPI   C2B 6990   3.585   9.759  10.027  0.0946 -0.1929 -0.0706
  437loPI   C3B 6991   3.580   9.753   9.613  0.1081 -0.1204 -0.1767
  437loPI   C4B 6992   3.481   9.675   9.223 -0.3195 -0.1590  0.1195
  438loPI    C1 6993   7.799  10.435  11.172 -0.3084 -0.1365 -0.0254
  438loPI    C2 6994   7.456  10.592  11.304 -0.2785 -0.2222  0.1584
  438loPI    C3 6995   7.805  10.728  11.444 -0.2271 -0.0035 -0.1687
  438loPI   PO4 6996   7.690  10.309  10.939 -0.0577 -0.1717  0.2734
  438loPI   GL1 6997   7.597  10.160  10.469  0.2688 -0.2235 -0.1076
  438loPI   GL2 6998   7.749  10.483  10.310  0.0405  0.0424 -0.0346
  438loPI   C1A 6999   7.474  10.177   9.987  0.0065 -0.1154 -0.0858
  438loPI   C2A 7000   7.535  10.362   9.542 -0.0290  0.1253  0.2497
  438loPI   C3A 7001   7.621  10.362   9.056 -0.2075  0.0096 -0.1012
  438loPI   C4A 7002   7.863  10.387   8.671  0.1083  0.0089  0.2882
  438loPI   C5A 7003   8.247  10.131   8.512 -0.0295  0.2258 -0.2069
  438loPI   C6A 7004   8.673  10.230   8.370  0.0834  0.0156  0.0613
  438loPI   C1B 7005   7.839  10.534   9.924 -0.1390 -0.1551 -0.0754
  438loPI   C2B 7006   7.876  10.720   9.493 -0.0526  0.2923  0.1740
  438loPI   C3B 7007   7.870  10.784   8.956 -0.2622 -0.2880  0.0939
  438loPI   C4B 7008   7.670  10.828   8.509 -0.0558 -0.0239  0.3724
  439loPI    C1 7009  17.518  10.670  11.230 -0.3215  0.2255 -0.0937
  439loPI    C2 7010  17.445  10.770  11.611  0.2206 -0.0476  0.0939
  439loPI    C3 7011  17.312  10.421  11.466  0.0236  0.0515  0.0330
  439loPI   PO4 7012  17.458  10.794  11.045  0.0559  0.1059 -0.0441
  439loPI   GL1 7013  17.565  10.712  10.700  0.1336 -0.0105  0.2464
  439loPI   GL2 7014  17.304  10.542  10.504  0.0906 -0.1180 -0.0686
  439loPI   C1A 7015  17.881  10.779  10.335  0.0987  0.0193  0.1359
  439loPI   C2A 7016  17.725  10.860   9.924 -0.1570  0.1892 -0.0366
  439loPI   C3A 7017  17.688  10.756   9.545 -0.1852  0.1765 -0.1021
  439loPI   C4A 7018  17.628  10.902   9.177 -0.1050  0.1697 -0.0834
  439loPI   C5A 7019  17.508  10.986   8.762  0.3104 -0.1824 -0.1226
  439loPI   C6A 7020  17.100  10.948   8.586 -0.2219 -0.1002 -0.1448
  439loPI   C1B 7021  17.320  10.535  10.061 -0.0953  0.1109  0.0293
  439loPI   C2B 7022  17.257  10.525   9.583 -0.1210  0.0218 -0.2612
  439loPI   C3B 7023  17.248  10.527   9.130 -0.3078  0.0938 -0.1810
  439loPI   C4B 7024  17.420  10.536   8.636 -0.0402 -0.0977  0.0392
  440loPI    C1 7025   9.666   6.629  10.686 -0.0130 -0.0290  0.0949
  440loPI    C2 7026   9.480   6.481  11.007 -0.0424 -0.0516  0.0676
  440loPI    C3 7027   9.787   6.733  11.052  0.0178 -0.1330  0.1147
  440loPI   PO4 7028   9.403   6.592  10.539  0.1248  0.3335 -0.0177
  440loPI   GL1 7029   9.010   6.777  10.238 -0.1620 -0.2156 -0.4236
  440loPI   GL2 7030   8.895   6.560  10.039 -0.0861 -0.0910 -0.1986
  440loPI   C1A 7031   9.219   6.957   9.956  0.2776 -0.1047 -0.1281
  440loPI   C2A 7032   9.070   7.032   9.498  0.3904  0.0341 -0.0812
  440loPI   C3A 7033   9.156   6.937   8.994 -0.2429 -0.3603 -0.0446
  440loPI   C4A 7034   9.215   6.816   8.582  0.0410 -0.0916  0.1181
  440loPI   C5A 7035   9.252   6.709   8.131 -0.3187  0.0539 -0.1942
  440loPI   C6A 7036   9.162   6.354   7.954  0.2124  0.0324  0.2109
  440loPI   C1B 7037   8.758   6.563   9.596  0.1942  0.1009 -0.1102
  440loPI   C2B 7038   8.734   6.598   9.125 -0.2867 -0.0428  0.1648
  440loPI   C3B 7039   8.853   6.490   8.755 -0.0823  0.2488 -0.0048
  440loPI   C4B 7040   8.772   6.671   8.370 -0.1192 -0.2478 -0.0673
  441loPI    C1 7041  10.610  11.790  11.032  0.3351 -0.0470  0.1019
  441loPI    C2 7042  10.300  11.837  11.281 -0.0088  0.0601 -0.3328
  441loPI    C3 7043  10.643  11.682  11.416 -0.1506  0.2066  0.2241
  441loPI   PO4 7044  10.630  12.055  10.876 -0.2271 -0.0014 -0.0874
  441loPI   GL1 7045  10.576  12.088  10.547 -0.1474 -0.0405 -0.1908
  441loPI   GL2 7046  10.400  11.884  10.435 -0.1782 -0.3241  0.2508
  441loPI   C1A 7047  10.674  12.465  10.273  0.1259  0.0857  0.1482
  441loPI   C2A 7048  10.679  12.598   9.793  0.0485 -0.0080 -0.1104
  441loPI   C3A 7049  10.800  12.602   9.459 -0.0835 -0.1354  0.0807
  441loPI   C4A 7050  10.750  12.729   9.035 -0.1003 -0.0246 -0.0780
  441loPI   C5A 7051  10.946  12.831   8.674  0.0111  0.1351  0.1626
  441loPI   C6A 7052  10.826  12.961   8.318  0.0921 -0.2229  0.0215
  441loPI   C1B 7053  10.630  12.055  10.052 -0.0197  0.0233  0.1390
  441loPI   C2B 7054  10.689  12.074   9.627 -0.1010 -0.0145 -0.2903
  441loPI   C3B 7055  10.899  12.161   9.217 -0.1694 -0.1186 -0.0331
  441loPI   C4B 7056  11.001  12.253   8.853 -0.1792  0.1054  0.1855
  442loPI    C1 7057  15.202   9.896  11.262 -0.0013  0.0228 -0.0524
  442loPI    C2 7058  15.514   9.942  11.509  0.1629 -0.0659 -0.2407
  442loPI    C3 7059  15.154   9.850  11.656  0.2483 -0.0677 -0.0305
  442loPI   PO4 7060  15.305   9.703  11.080 -0.0724 -0.2347 -0.1622
  442loPI   GL1 7061  15.360   9.527  10.655  0.0532  0.0003  0.2355
  442loPI   GL2 7062  15.502   9.734  10.514 -0.0895 -0.0536  0.2581
  442loPI   C1A 7063  15.554   9.327  10.297  0.2479 -0.3080 -0.1473
  442loPI   C2A 7064  15.682   9.152   9.892  0.0515  0.2375 -0.0591
  442loPI   C3A 7065  15.625   9.131   9.524 -0.2342 -0.0511 -0.1449
  442loPI   C4A 7066  15.837   9.176   9.184 -0.1484 -0.1699 -0.2311
  442loPI   C5A 7067  15.708   9.205   8.820 -0.1886  0.0605  0.1808
  442loPI   C6A 7068  15.711   8.954   8.515 -0.1168  0.1089  0.0645
  442loPI   C1B 7069  15.450   9.757  10.061 -0.3904  0.0140  0.0246
  442loPI   C2B 7070  15.503   9.693   9.620  0.0022 -0.1174 -0.1798
  442loPI   C3B 7071  15.641   9.657   9.166  0.0399  0.1377 -0.3905
  442loPI   C4B 7072  15.745   9.793   8.740  0.0389  0.0538 -0.0557
  443loPI    C1 7073   5.739   3.546  11.718 -0.1372 -0.0971 -0.1599
  443loPI    C2 7074   5.774   3.211  11.933  0.0910 -0.0032 -0.0466
  443loPI    C3 7075   5.686   3.556  12.114  0.0617  0.0359 -0.1347
  443loPI   PO4 7076   5.822   3.510  11.455  0.0224  0.3172 -0.1105
  443loPI   GL1 7077   5.714   3.447  11.040 -0.0302  0.3409 -0.2622
  443loPI   GL2 7078   5.502   3.297  10.941  0.1942 -0.2327 -0.0427
  443loPI   C1A 7079   5.810   3.687  10.635 -0.6798  0.2528 -0.3270
  443loPI   C2A 7080   5.760   3.691  10.170 -0.1038  0.0448  0.1940
  443loPI   C3A 7081   5.671   3.842   9.725  0.1621  0.0084 -0.4666
  443loPI   C4A 7082   5.683   3.837   9.350  0.1303  0.0866  0.1220
  443loPI   C5A 7083   5.377   3.843   8.947  0.0898  0.0699  0.0991
  443loPI   C6A 7084   5.060   4.028   8.687  0.0458 -0.0258  0.1924
  443loPI   C1B 7085   5.264   3.340  10.576 -0.1308  0.0007  0.1747
  443loPI   C2B 7086   5.361   3.375  10.135  0.2376 -0.0197  0.0279
  443loPI   C3B 7087   5.345   3.475   9.753 -0.3139  0.1653 -0.3662
  443loPI   C4B 7088   5.436   3.377   9.350 -0.2044  0.0092  0.2598
  444loPI    C1 7089  14.348  11.080  10.969  0.0074 -0.1945 -0.0184
  444loPI    C2 7090  14.653  10.993  11.212  0.1805 -0.1174 -0.2049
  444loPI    C3 7091  14.290  10.842  11.285  0.2557 -0.1871  0.0348
  444loPI   PO4 7092  14.442  11.270  10.849  0.2538 -0.3599  0.0793
  444loPI   GL1 7093  14.575  11.477  10.635  0.1224 -0.0045  0.2333
  444loPI   GL2 7094  14.235  11.598  10.516 -0.1054  0.1782  0.1951
  444loPI   C1A 7095  14.660  11.466  10.303 -0.2569 -0.1351  0.0957
  444loPI   C2A 7096  14.666  11.404   9.856 -0.1206  0.0247 -0.3291
  444loPI   C3A 7097  14.625  11.421   9.373  0.0032 -0.0750 -0.1122
  444loPI   C4A 7098  14.756  11.392   8.900  0.1152 -0.0048  0.0048
  444loPI   C5A 7099  14.615  11.263   8.565 -0.2311 -0.2276  0.3773
  444loPI   C6A 7100  14.635  11.203   8.107 -0.0264  0.1618 -0.4859
  444loPI   C1B 7101  14.195  11.589  10.102 -0.1410  0.0646 -0.1862
  444loPI   C2B 7102  14.206  11.616   9.716  0.0619 -0.3207  0.0589
  444loPI   C3B 7103  14.212  11.653   9.248  0.1330  0.2856 -0.2884
  444loPI   C4B 7104  14.217  11.434   8.827  0.3215  0.1546 -0.2514
  445loPI    C1 7105  12.443   7.326  10.709 -0.2332  0.0875 -0.0169
  445loPI    C2 7106  12.470   6.930  10.759  0.1324  0.1160  0.0403
  445loPI    C3 7107  12.113   7.109  10.770 -0.0345 -0.2085  0.0295
  445loPI   PO4 7108  12.614   7.387  10.456  0.0769 -0.3030 -0.0927
  445loPI   GL1 7109  12.521   7.476  10.077 -0.1755 -0.1680  0.0672
  445loPI   GL2 7110  12.600   7.228   9.984 -0.2328  0.1751 -0.0146
  445loPI   C1A 7111  12.686   7.645   9.687  0.2340 -0.0442 -0.1855
  445loPI   C2A 7112  12.719   7.678   9.315 -0.0252 -0.1873  0.1023
  445loPI   C3A 7113  12.555   7.750   8.829 -0.0369 -0.3414  0.1760
  445loPI   C4A 7114  12.425   8.020   8.574 -0.0615  0.1849  0.0867
  445loPI   C5A 7115  12.665   8.043   8.144  0.1239  0.0738 -0.0234
  445loPI   C6A 7116  12.957   7.724   8.006  0.0244  0.2448 -0.0112
  445loPI   C1B 7117  12.871   7.174   9.597 -0.1179 -0.0890  0.0413
  445loPI   C2B 7118  13.073   7.230   9.141  0.2328  0.0719 -0.1938
  445loPI   C3B 7119  12.912   7.443   8.800 -0.2455 -0.1386 -0.1634
  445loPI   C4B 7120  12.961   7.837   8.495  0.2330  0.4590  0.0399
  446loPI    C1 7121  10.596   3.735  11.174 -0.1405 -0.0225  0.1150
  446loPI    C2 7122  10.763   3.724  11.537  0.1428  0.0670 -0.0099
  446loPI    C3 7123  10.689   4.076  11.362 -0.1372  0.0272  0.0235
  446loPI   PO4 7124  10.641   3.517  10.950 -0.0695 -0.0960 -0.0015
  446loPI   GL1 7125  10.433   3.576  10.528  0.1685  0.1797  0.1579
  446loPI   GL2 7126  10.521   3.208  10.437 -0.2406  0.0685  0.2795
  446loPI   C1A 7127  10.332   3.714  10.170  0.1987 -0.2037 -0.0417
  446loPI   C2A 7128  10.282   3.678   9.686  0.0363  0.1940  0.1306
  446loPI   C3A 7129  10.317   3.670   9.226 -0.0930 -0.0258  0.0408
  446loPI   C4A 7130  10.341   3.704   8.768  0.1070 -0.0450 -0.0653
  446loPI   C5A 7131  10.448   3.888   8.317 -0.1379 -0.3473  0.2182
  446loPI   C6A 7132  10.324   3.890   7.926 -0.3639  0.2026  0.0730
  446loPI   C1B 7133  10.414   3.183   9.999  0.0491 -0.1455  0.1009
  446loPI   C2B 7134  10.441   3.175   9.574  0.4213 -0.2020  0.0198
  446loPI   C3B 7135  10.335   3.225   9.071  0.3747  0.0396 -0.0801
  446loPI   C4B 7136  10.409   2.998   8.620  0.1497  0.1554 -0.0338
  447loPI    C1 7137   2.038   8.856  11.805  0.0670 -0.1765 -0.0444
  447loPI    C2 7138   1.853   8.725  11.476  0.0575  0.1670 -0.1791
  447loPI    C3 7139   1.659   8.730  11.826 -0.0301  0.0778 -0.2260
  447loPI   PO4 7140   2.182   9.183  11.620  0.2340 -0.2684 -0.0807
  447loPI   GL1 7141   2.181   9.264  11.180  0.0843 -0.3263  0.0289
  447loPI   GL2 7142   2.058   8.962  11.121  0.1537 -0.1475  0.0327
  447loPI   C1A 7143   2.253   9.263  10.705 -0.3525 -0.0262 -0.0729
  447loPI   C2A 7144   2.306   9.065  10.338  0.0256  0.0494 -0.3520
  447loPI   C3A 7145   2.255   9.085   9.926 -0.3299  0.1737 -0.2264
  447loPI   C4A 7146   2.435   9.128   9.562  0.0918  0.4719  0.2438
  447loPI   C5A 7147   2.278   9.103   9.131  0.0410 -0.3883 -0.2219
  447loPI   C6A 7148   2.027   8.868   8.962  0.0670 -0.0859  0.1247
  447loPI   C1B 7149   1.843   8.792  10.721 -0.0202  0.1833 -0.3389
  447loPI   C2B 7150   1.928   8.706  10.225  0.1704 -0.3785 -0.1994
  447loPI   C3B 7151   1.846   8.836   9.833 -0.0318  0.0449  0.1234
  447loPI   C4B 7152   1.992   8.768   9.487  0.1157  0.1069 -0.0662
  448loPI    C1 7153   4.804   9.608  11.129 -0.5485 -0.0073 -0.2208
  448loPI    C2 7154   4.928   9.429  10.793 -0.2585 -0.0188 -0.1104
  448loPI    C3 7155   4.654   9.252  11.025 -0.2264 -0.1587 -0.1782
  448loPI   PO4 7156   4.703   9.834  11.048  0.0195  0.1134 -0.3392
  448loPI   GL1 7157   4.682   9.902  10.720  0.1506 -0.1767  0.1342
  448loPI   GL2 7158   4.396   9.924  10.498 -0.0628 -0.0096 -0.1111
  448loPI   C1A 7159   4.922   9.689  10.350 -0.0910  0.2090  0.1543
  448loPI   C2A 7160   4.895   9.789   9.933 -0.5048 -0.1099  0.1481
  448loPI   C3A 7161   4.932   9.721   9.537 -0.0977 -0.1915  0.0412
  448loPI   C4A 7162   4.912   9.788   9.038  0.2163 -0.0603 -0.2904
  448loPI   C5A 7163   4.752   9.721   8.642  0.3248  0.3055  0.2461
  448loPI   C6A 7164   4.556   9.346   8.394  0.1306  0.2903 -0.0070
  448loPI   C1B 7165   4.457   9.828  10.049  0.1557 -0.2424  0.0027
  448loPI   C2B 7166   4.502   9.963   9.674 -0.2144  0.0476  0.1410
  448loPI   C3B 7167   4.503   9.880   9.297 -0.2205 -0.0417 -0.3886
  448loPI   C4B 7168   4.414  10.005   8.955  0.1300 -0.0246 -0.1183
  449loPI    C1 7169   4.785  11.854  11.059 -0.0087  0.0069  0.0672
  449loPI    C2 7170   4.478  11.722  11.279 -0.0778  0.0980  0.0262
  449loPI    C3 7171   4.742  11.977  11.437 -0.0981  0.1229  0.0200
  449loPI   PO4 7172   4.651  11.906  10.846 -0.2151  0.2328  0.3953
  449loPI   GL1 7173   4.421  11.817  10.585 -0.0052  0.0187 -0.3338
  449loPI   GL2 7174   4.131  11.930  10.584  0.0473 -0.1053  0.1584
  449loPI   C1A 7175   4.445  11.847  10.114 -0.1361 -0.0278  0.3162
  449loPI   C2A 7176   4.466  11.911   9.717 -0.0310  0.0855  0.0317
  449loPI   C3A 7177   4.459  11.857   9.266 -0.0846  0.1513 -0.3101
  449loPI   C4A 7178   4.494  11.848   8.881 -0.0965 -0.2425  0.2486
  449loPI   C5A 7179   4.180  11.792   8.547 -0.0607  0.0433  0.1661
  449loPI   C6A 7180   3.876  12.233   8.433 -0.1098 -0.0470  0.0287
  449loPI   C1B 7181   3.936  11.926  10.190  0.1039  0.1207  0.1065
  449loPI   C2B 7182   3.932  12.022   9.677  0.2908  0.1759  0.1148
  449loPI   C3B 7183   3.849  11.927   9.361  0.0628 -0.1710 -0.3867
  449loPI   C4B 7184   3.995  11.976   8.943  0.0741 -0.1952  0.0855
  450loPI    C1 7185   2.920   0.445  11.356  0.0695 -0.1902 -0.2090
  450loPI    C2 7186   3.171   0.495  11.664 -0.1371  0.3267 -0.1140
  450loPI    C3 7187   2.803   0.351  11.727  0.0121 -0.1088 -0.2061
  450loPI   PO4 7188   2.987   0.293  11.210  0.3085  0.1615  0.1956
  450loPI   GL1 7189   2.827   0.237  10.818 -0.0765  0.1836  0.0290
  450loPI   GL2 7190   2.692   0.438  10.640  0.2749  0.1112 -0.0271
  450loPI   C1A 7191   2.870  -0.001  10.459 -0.0859  0.3758 -0.3336
  450loPI   C2A 7192   2.805  -0.025  10.087 -0.3217  0.0516 -0.2466
  450loPI   C3A 7193   2.810  -0.005   9.657 -0.1171 -0.0740 -0.4503
  450loPI   C4A 7194   2.768  -0.026   9.207 -0.0636  0.0590 -0.1350
  450loPI   C5A 7195   2.649  -0.174   8.818 -0.3359  0.1412  0.2281
  450loPI   C6A 7196   2.595  -0.547   8.551 -0.1301 -0.2045 -0.0044
  450loPI   C1B 7197   2.757   0.453  10.211 -0.0442 -0.0753  0.0366
  450loPI   C2B 7198   2.688   0.473   9.776 -0.0065 -0.3337  0.1452
  450loPI   C3B 7199   2.753   0.484   9.396  0.0539  0.3902 -0.1885
  450loPI   C4B 7200   2.682   0.459   9.028 -0.0535  0.1876  0.1147
  451loPI    C1 7201  12.241   4.044  11.134 -0.0652 -0.0744  0.0442
  451loPI    C2 7202  12.021   4.170  11.443  0.0588  0.0886  0.0672
  451loPI    C3 7203  12.387   4.022  11.505  0.0177 -0.0369  0.0139
  451loPI   PO4 7204  12.088   3.832  11.010  0.0720  0.3249  0.0766
  451loPI   GL1 7205  12.094   3.575  10.626  0.0021  0.0951  0.2719
  451loPI   GL2 7206  11.853   3.796  10.488  0.0060  0.0706  0.1966
  451loPI   C1A 7207  12.177   3.533  10.133  0.3372 -0.2887  0.0570
  451loPI   C2A 7208  12.262   3.547   9.766 -0.0516  0.0104  0.4571
  451loPI   C3A 7209  12.225   3.577   9.387 -0.1990 -0.3513 -0.0198
  451loPI   C4A 7210  12.194   3.615   9.004  0.1581  0.1776  0.1165
  451loPI   C5A 7211  12.143   3.627   8.614  0.0659  0.1712  0.2578
  451loPI   C6A 7212  11.818   3.679   8.324  0.2146 -0.1217 -0.0172
  451loPI   C1B 7213  11.702   3.725  10.113 -0.0438 -0.0727  0.0668
  451loPI   C2B 7214  11.717   3.790   9.646  0.0316  0.1012 -0.1836
  451loPI   C3B 7215  11.731   3.741   9.207 -0.1106  0.1982  0.2352
  451loPI   C4B 7216  11.725   3.759   8.792 -0.0202 -0.0076 -0.2125
  452loPI    C1 7217  12.043   2.844  11.348  0.0366 -0.1249 -0.0073
  452loPI    C2 7218  12.165   2.848  11.729 -0.0511  0.0593  0.0201
  452loPI    C3 7219  11.848   2.627  11.622  0.1041 -0.1624  0.0111
  452loPI   PO4 7220  12.205   2.797  11.182 -0.1323  0.1793 -0.0277
  452loPI   GL1 7221  12.290   3.007  10.767  0.0224 -0.0083 -0.1452
  452loPI   GL2 7222  12.133   2.779  10.665 -0.0714 -0.2236 -0.0824
  452loPI   C1A 7223  12.291   3.161  10.409 -0.2216  0.0573  0.0610
  452loPI   C2A 7224  12.422   3.000   9.936  0.1642 -0.2892 -0.0964
  452loPI   C3A 7225  12.314   3.075   9.510 -0.3335 -0.1246  0.0277
  452loPI   C4A 7226  12.177   3.097   9.125  0.0484 -0.1030  0.1879
  452loPI   C5A 7227  12.333   3.113   8.752  0.0797  0.1875 -0.0959
  452loPI   C6A 7228  12.462   3.142   8.345 -0.0148 -0.0351  0.0034
  452loPI   C1B 7229  12.016   2.737  10.313  0.1545 -0.0343  0.2681
  452loPI   C2B 7230  11.988   2.769   9.847  0.0415 -0.1172  0.1315
  452loPI   C3B 7231  11.898   2.714   9.383  0.1123 -0.1114  0.0480
  452loPI   C4B 7232  11.842   2.766   8.996 -0.1383  0.0755  0.0134
  453loPI    C1 7233   8.512  11.663  11.266  0.1600  0.0776  0.2504
  453loPI    C2 7234   8.227  11.478  11.477  0.1549  0.0223  0.1958
  453loPI    C3 7235   8.599  11.331  11.471  0.0863 -0.1476 -0.0741
  453loPI   PO4 7236   8.385  11.655  10.992 -0.4046  0.2947  0.2015
  453loPI   GL1 7237   8.307  11.830  10.674  0.0353 -0.0426  0.0674
  453loPI   GL2 7238   8.496  12.121  10.634 -0.1423  0.2259 -0.2840
  453loPI   C1A 7239   8.165  11.709  10.323  0.3029  0.1812 -0.2626
  453loPI   C2A 7240   8.136  11.532   9.967 -0.0990  0.1470 -0.0643
  453loPI   C3A 7241   8.142  11.593   9.536 -0.0087  0.2350 -0.1694
  453loPI   C4A 7242   8.124  11.546   9.040 -0.0286 -0.0635  0.0159
  453loPI   C5A 7243   8.092  11.829   8.698  0.2679  0.2017 -0.1081
  453loPI   C6A 7244   7.796  11.968   8.439  0.0257 -0.1173  0.0131
  453loPI   C1B 7245   8.387  12.372  10.342 -0.1188  0.2465  0.1842
  453loPI   C2B 7246   8.443  12.503   9.886  0.1745 -0.1779 -0.0683
  453loPI   C3B 7247   8.523  12.439   9.461 -0.1468 -0.0843 -0.2479
  453loPI   C4B 7248   8.444  12.445   9.045  0.1425  0.2409  0.2239
  454loPI    C1 7249  12.330  15.482  11.100 -0.2375 -0.1179 -0.0425
  454loPI    C2 7250  12.335  15.825  11.305 -0.0443 -0.0116 -0.2208
  454loPI    C3 7251  12.255  15.481  11.492 -0.1726  0.1214 -0.0280
  454loPI   PO4 7252  12.562  15.540  10.882 -0.0043 -0.2065  0.0892
  454loPI   GL1 7253  12.750  15.312  10.507 -0.1851 -0.2612 -0.1829
  454loPI   GL2 7254  12.890  15.640  10.430 -0.1585  0.0569  0.1444
  454loPI   C1A 7255  12.808  15.357  10.020  0.0695 -0.1709  0.0446
  454loPI   C2A 7256  12.885  15.398   9.635 -0.0486 -0.2090  0.0676
  454loPI   C3A 7257  13.106  15.381   9.324 -0.0131  0.4169  0.0657
  454loPI   C4A 7258  13.160  15.320   8.882  0.2106  0.5176  0.1005
  454loPI   C5A 7259  13.115  15.498   8.444 -0.4429  0.1558  0.1259
  454loPI   C6A 7260  13.128  15.921   8.294  0.4405  0.1816 -0.3265
  454loPI   C1B 7261  12.877  15.878  10.017 -0.0337  0.1491 -0.2046
  454loPI   C2B 7262  12.863  15.922   9.674  0.1728  0.1032 -0.3586
  454loPI   C3B 7263  13.001  15.870   9.215 -0.3550 -0.0053  0.0974
  454loPI   C4B 7264  12.884  15.812   8.763  0.1434  0.0548  0.2856
  455loPI    C1 7265  16.490  10.376  11.029  0.0099 -0.1533 -0.0685
  455loPI    C2 7266  16.119  10.226  11.048 -0.0840  0.0878  0.0414
  455loPI    C3 7267  16.179  10.593  10.900  0.1320 -0.0174 -0.1372
  455loPI   PO4 7268  16.618  10.227  10.930  0.0342  0.0483  0.2430
  455loPI   GL1 7269  16.784  10.025  10.632 -0.2027  0.2787 -0.0201
  455loPI   GL2 7270  16.635   9.884  10.401 -0.2035  0.1398 -0.1067
  455loPI   C1A 7271  16.885  10.316  10.269  0.0811  0.1605 -0.0513
  455loPI   C2A 7272  16.900  10.192   9.798  0.4405  0.3166  0.0326
  455loPI   C3A 7273  16.917  10.205   9.351 -0.0514  0.1088 -0.2833
  455loPI   C4A 7274  16.965  10.141   8.932  0.1846  0.1137 -0.1124
  455loPI   C5A 7275  16.848  10.205   8.609  0.2219  0.0841 -0.0696
  455loPI   C6A 7276  16.655  10.245   8.124 -0.1092  0.2817  0.0185
  455loPI   C1B 7277  16.560   9.955  10.071 -0.1531 -0.1350 -0.0549
  455loPI   C2B 7278  16.552   9.819   9.637 -0.0667 -0.2687 -0.0089
  455loPI   C3B 7279  16.517   9.824   9.185  0.1473 -0.1886  0.0306
  455loPI   C4B 7280  16.483   9.879   8.743  0.0298  0.2022  0.1479
  456loPI    C1 7281  12.851  13.683  11.139 -0.1320 -0.1357  0.2089
  456loPI    C2 7282  12.644  13.991  10.990  0.1309 -0.1585 -0.2180
  456loPI    C3 7283  12.990  14.055  11.180 -0.0961 -0.1483  0.2028
  456loPI   PO4 7284  12.949  13.526  10.907  0.1552 -0.0417  0.0887
  456loPI   GL1 7285  12.887  13.438  10.397 -0.2400  0.0032 -0.2028
  456loPI   GL2 7286  12.612  13.627  10.502 -0.2782 -0.1068 -0.1282
  456loPI   C1A 7287  12.964  13.480  10.002 -0.0659  0.0410 -0.0447
  456loPI   C2A 7288  12.927  13.452   9.534  0.2128 -0.1580 -0.0452
  456loPI   C3A 7289  13.007  13.393   9.180 -0.0438  0.1122  0.2183
  456loPI   C4A 7290  13.099  13.569   8.725 -0.2037  0.1709  0.0176
  456loPI   C5A 7291  12.902  13.487   8.310  0.0330 -0.1037  0.0235
  456loPI   C6A 7292  12.782  13.221   7.907 -0.2139  0.0338  0.1153
  456loPI   C1B 7293  12.493  13.761  10.102  0.0543  0.1049 -0.0588
  456loPI   C2B 7294  12.450  13.664   9.650 -0.0575 -0.1526  0.2192
  456loPI   C3B 7295  12.573  13.592   9.232  0.1724  0.0428  0.1182
  456loPI   C4B 7296  12.585  13.582   8.751 -0.5896 -0.0919  0.0677
  457loPI    C1 7297   4.445   9.777  11.456 -0.2525  0.0899  0.1991
  457loPI    C2 7298   4.169  10.026  11.605 -0.0223  0.2975  0.2839
  457loPI    C3 7299   4.476  10.170  11.393 -0.2781  0.0183 -0.2995
  457loPI   PO4 7300   4.262   9.552  11.291 -0.0322 -0.1610  0.3048
  457loPI   GL1 7301   4.252   9.433  10.891 -0.2811  0.0661  0.0065
  457loPI   GL2 7302   3.927   9.463  10.825 -0.1643 -0.1286  0.1616
  457loPI   C1A 7303   4.519   9.414  10.577  0.2420 -0.1647 -0.2208
  457loPI   C2A 7304   4.557   9.394  10.165 -0.0511 -0.0026 -0.2554
  457loPI   C3A 7305   4.531   9.459   9.716  0.3034 -0.0399 -0.1250
  457loPI   C4A 7306   4.518   9.379   9.324 -0.0504 -0.1892  0.1542
  457loPI   C5A 7307   4.387   9.440   8.864 -0.0822  0.0155 -0.1859
  457loPI   C6A 7308   4.080   9.167   8.685 -0.0313 -0.0256 -0.1615
  457loPI   C1B 7309   4.094   9.461  10.354  0.0217 -0.1497 -0.1262
  457loPI   C2B 7310   4.022   9.555   9.914 -0.0539  0.1056  0.1150
  457loPI   C3B 7311   4.058   9.599   9.514 -0.0219 -0.1066 -0.0730
  457loPI   C4B 7312   4.003   9.627   9.085  0.1889  0.0287  0.2682
  458loPI    C1 7313   2.703   4.901  11.838 -0.0560  0.1658 -0.1428
  458loPI    C2 7314   2.483   4.728  12.124  0.0046  0.1459 -0.1082
  458loPI    C3 7315   2.516   5.126  12.112 -0.1121  0.1538 -0.1711
  458loPI   PO4 7316   2.661   4.819  11.647  0.3667  0.2514  0.0733
  458loPI   GL1 7317   2.772   4.927  11.228  0.0145 -0.1819  0.0094
  458loPI   GL2 7318   2.663   5.158  11.096 -0.4063  0.1281  0.3148
  458loPI   C1A 7319   2.658   4.634  10.790  0.1652  0.2094 -0.0719
  458loPI   C2A 7320   2.724   4.660  10.344  0.4046 -0.1435 -0.3127
  458loPI   C3A 7321   2.762   4.750   9.904 -0.2637 -0.0870 -0.2542
  458loPI   C4A 7322   2.776   4.732   9.487 -0.0076  0.2370  0.0941
  458loPI   C5A 7323   2.718   4.846   8.969  0.0780 -0.0907 -0.0857
  458loPI   C6A 7324   2.669   4.831   8.554 -0.0816  0.0141 -0.1691
  458loPI   C1B 7325   2.544   5.163  10.672 -0.1723  0.0246 -0.1123
  458loPI   C2B 7326   2.658   5.238  10.202 -0.0547 -0.2038  0.1409
  458loPI   C3B 7327   2.664   5.299   9.743  0.2026 -0.1655 -0.1270
  458loPI   C4B 7328   2.735   5.241   9.319 -0.0381 -0.3898  0.3326
  459loPI    C1 7329  10.083   0.057  11.269  0.0760  0.2343 -0.0000
  459loPI    C2 7330   9.719  -0.017  11.416 -0.0195 -0.0075 -0.3452
  459loPI    C3 7331   9.867   0.354  11.428 -0.3383  0.1230 -0.3361
  459loPI   PO4 7332  10.100  -0.007  11.026  0.2095  0.1398  0.1366
  459loPI   GL1 7333   9.886  -0.115  10.650 -0.0442 -0.2044 -0.3379
  459loPI   GL2 7334  10.006  -0.358  10.673  0.2018 -0.1908  0.2799
  459loPI   C1A 7335   9.814   0.025  10.230  0.0815  0.1034 -0.3720
  459loPI   C2A 7336   9.712   0.041   9.815 -0.1848  0.1611  0.0715
  459loPI   C3A 7337   9.640   0.120   9.394 -0.0412  0.0003 -0.0207
  459loPI   C4A 7338   9.549   0.170   9.081  0.0834 -0.1832  0.2425
  459loPI   C5A 7339   9.875   0.170   8.674  0.1862  0.2113 -0.0518
  459loPI   C6A 7340  10.123   0.160   8.260  0.0664 -0.0866 -0.0264
  459loPI   C1B 7341   9.842  -0.483  10.232  0.2007  0.0862 -0.2342
  459loPI   C2B 7342   9.829  -0.408   9.866  0.1374  0.3352  0.2047
  459loPI   C3B 7343   9.823  -0.406   9.437  0.1804  0.0988  0.0646
  459loPI   C4B 7344   9.859  -0.237   8.968  0.0929 -0.1962  0.1860
  460loPI    C1 7345  12.605   6.053  10.954  0.0065 -0.0586 -0.1537
  460loPI    C2 7346  12.517   6.438  11.019 -0.2048 -0.1158 -0.0929
  460loPI    C3 7347  12.440   6.164  11.301  0.2097 -0.1656 -0.0205
  460loPI   PO4 7348  12.838   6.171  10.804  0.1497  0.3363  0.3927
  460loPI   GL1 7349  12.890   6.132  10.317 -0.1574 -0.2165  0.1528
  460loPI   GL2 7350  13.179   6.074  10.098 -0.1091  0.1341  0.0625
  460loPI   C1A 7351  12.743   5.862   9.931 -0.0936 -0.2735  0.2457
  460loPI   C2A 7352  12.771   5.758   9.553 -0.4966  0.0167 -0.0317
  460loPI   C3A 7353  12.703   5.747   9.090 -0.0135 -0.2495 -0.1301
  460loPI   C4A 7354  12.802   5.781   8.724 -0.0916 -0.0929  0.0034
  460loPI   C5A 7355  12.925   5.821   8.237  0.0864  0.0187 -0.0330
  460loPI   C6A 7356  13.274   5.883   8.041 -0.2883  0.0451 -0.0839
  460loPI   C1B 7357  13.141   6.057   9.625  0.0323  0.1066 -0.2257
  460loPI   C2B 7358  13.137   6.083   9.194 -0.1273  0.0979  0.1035
  460loPI   C3B 7359  13.222   6.130   8.771  0.0459 -0.4164 -0.1636
  460loPI   C4B 7360  13.243   6.361   8.326  0.0868 -0.1115 -0.1792
  461loPI    C1 7361   5.330   3.321  11.459  0.3013  0.0195  0.0163
  461loPI    C2 7362   5.246   3.373  11.846 -0.1801 -0.1239 -0.0620
  461loPI    C3 7363   5.345   3.010  11.710  0.3551 -0.0041 -0.0159
  461loPI   PO4 7364   5.092   3.360  11.314 -0.1583 -0.3181 -0.0717
  461loPI   GL1 7365   5.002   3.261  10.946  0.0805  0.0158  0.0973
  461loPI   GL2 7366   4.914   2.984  10.850  0.1524  0.1232  0.0152
  461loPI   C1A 7367   4.748   3.536  10.601 -0.0294 -0.2580 -0.0007
  461loPI   C2A 7368   4.778   3.647  10.142  0.0290  0.0581 -0.0499
  461loPI   C3A 7369   4.764   3.570   9.749 -0.1209  0.3800  0.3368
  461loPI   C4A 7370   4.800   3.634   9.299  0.0171 -0.0950 -0.1517
  461loPI   C5A 7371   4.810   3.652   8.850  0.2482 -0.0048 -0.2251
  461loPI   C6A 7372   5.070   3.334   8.636  0.1293  0.0568  0.1766
  461loPI   C1B 7373   4.897   3.079  10.427 -0.0935 -0.0336 -0.0977
  461loPI   C2B 7374   4.923   3.156   9.979 -0.1869 -0.0919 -0.0736
  461loPI   C3B 7375   4.981   3.056   9.599 -0.0972 -0.0181  0.0465
  461loPI   C4B 7376   5.050   3.092   9.196  0.0801  0.0185 -0.3915
  462loPI    C1 7377  11.806   5.490  10.596 -0.3247 -0.0994 -0.0472
  462loPI    C2 7378  11.680   5.486  10.976 -0.1012  0.0310  0.0300
  462loPI    C3 7379  12.000   5.271  10.869 -0.3371 -0.2396 -0.1493
  462loPI   PO4 7380  11.678   5.535  10.428 -0.0152  0.0604  0.1137
  462loPI   GL1 7381  11.703   5.160  10.168  0.3766 -0.0250  0.3955
  462loPI   GL2 7382  11.883   5.014   9.954  0.3165  0.1022 -0.1977
  462loPI   C1A 7383  11.475   5.269   9.859  0.2016 -0.3491 -0.2406
  462loPI   C2A 7384  11.410   5.164   9.425  0.1776 -0.2530  0.0642
  462loPI   C3A 7385  11.496   5.176   9.002 -0.0410 -0.2603 -0.1664
  462loPI   C4A 7386  11.498   5.265   8.558  0.0358 -0.1497 -0.3040
  462loPI   C5A 7387  11.543   5.390   8.132 -0.0600 -0.1532  0.0870
  462loPI   C6A 7388  11.194   5.552   7.907  0.1671 -0.3663  0.0088
  462loPI   C1B 7389  11.901   4.971   9.571 -0.3717  0.1380  0.1988
  462loPI   C2B 7390  11.924   4.987   9.082 -0.3366 -0.0322  0.0150
  462loPI   C3B 7391  11.979   5.006   8.743  0.1846  0.2320 -0.0412
  462loPI   C4B 7392  12.011   5.105   8.298 -0.1328 -0.0974  0.0935
  463loPI    C1 7393   2.429  13.366  11.413 -0.2976 -0.1275 -0.2328
  463loPI    C2 7394   2.764  13.584  11.401 -0.2920 -0.1353 -0.2178
  463loPI    C3 7395   2.519  13.613  11.715 -0.3722 -0.0307 -0.2891
  463loPI   PO4 7396   2.412  13.378  11.181 -0.3247  0.0093  0.0269
  463loPI   GL1 7397   2.723  13.450  10.918  0.2909  0.0223 -0.0288
  463loPI   GL2 7398   2.585  13.743  10.754  0.4510 -0.2209 -0.0685
  463loPI   C1A 7399   2.763  13.321  10.610 -0.0935 -0.0641  0.1138
  463loPI   C2A 7400   2.793  13.348  10.156  0.0373  0.0022  0.1480
  463loPI   C3A 7401   2.797  13.337   9.748  0.0286 -0.2183  0.1865
  463loPI   C4A 7402   2.775  13.328   9.317  0.3381 -0.1631  0.0450
  463loPI   C5A 7403   2.846  13.348   8.797  0.0375  0.0659 -0.1359
  463loPI   C6A 7404   2.784  13.630   8.431 -0.2148 -0.1343 -0.2482
  463loPI   C1B 7405   2.671  13.831  10.373  0.2528  0.2571 -0.1012
  463loPI   C2B 7406   2.721  13.815   9.893  0.0281 -0.0225  0.1879
  463loPI   C3B 7407   2.620  13.870   9.438 -0.3937 -0.1415 -0.0027
  463loPI   C4B 7408   2.718  13.835   8.948  0.1330 -0.2477  0.0009
  464loPI    C1 7409  11.972  14.787  10.912  0.0340 -0.3062 -0.2221
  464loPI    C2 7410  11.605  14.945  10.931  0.1901  0.0594 -0.1645
  464loPI    C3 7411  11.693  14.617  11.143 -0.0784  0.0189 -0.1128
  464loPI   PO4 7412  12.019  14.807  10.556 -0.2172 -0.4850  0.0046
  464loPI   GL1 7413  12.055  14.672  10.117  0.0161  0.1583  0.1782
  464loPI   GL2 7414  12.177  14.356  10.252 -0.1254 -0.0331 -0.3451
  464loPI   C1A 7415  12.079  14.652   9.644  0.1687  0.0195 -0.1353
  464loPI   C2A 7416  12.269  14.701   9.234  0.1781  0.2797 -0.0896
  464loPI   C3A 7417  12.304  14.657   8.802 -0.0074  0.1117 -0.1127
  464loPI   C4A 7418  12.209  14.648   8.393 -0.3726 -0.1734  0.3641
  464loPI   C5A 7419  11.814  14.594   8.153  0.3839 -0.0982 -0.0376
  464loPI   C6A 7420  11.314  14.518   8.067  0.5277 -0.2262  0.0299
  464loPI   C1B 7421  12.273  14.172   9.905  0.0162  0.1407  0.2334
  464loPI   C2B 7422  12.333  14.092   9.448 -0.1690  0.0716  0.1201
  464loPI   C3B 7423  12.384  14.076   9.093 -0.3672  0.0944 -0.2339
  464loPI   C4B 7424  12.470  14.147   8.672  0.1534  0.2128  0.0722
  465loPI    C1 7425   1.060   9.552  11.596 -0.1606  0.1981 -0.1516
  465loPI    C2 7426   0.746   9.306  11.579  0.1997 -0.2699 -0.2574
  465loPI    C3 7427   0.945   9.351  11.923 -0.0291  0.0955 -0.1673
  465loPI   PO4 7428   1.222   9.505  11.399  0.1935 -0.0474 -0.0952
  465loPI   GL1 7429   1.074   9.421  11.057 -0.1496 -0.0882  0.1115
  465loPI   GL2 7430   0.864   9.129  11.078 -0.1669  0.0023 -0.1728
  465loPI   C1A 7431   1.204   9.456  10.581 -0.4947 -0.0954 -0.3010
  465loPI   C2A 7432   1.346   9.464  10.171 -0.1711 -0.3415  0.4667
  465loPI   C3A 7433   1.310   9.480   9.678  0.0650 -0.2075 -0.0714
  465loPI   C4A 7434   1.288   9.346   9.312  0.0054 -0.0425 -0.2611
  465loPI   C5A 7435   1.160   9.296   8.938  0.0548  0.2376 -0.1726
  465loPI   C6A 7436   0.841   9.485   8.552  0.2153 -0.0550 -0.0203
  465loPI   C1B 7437   0.849   9.087  10.676  0.4581 -0.0811  0.0732
  465loPI   C2B 7438   0.917   9.149  10.150 -0.2964  0.0133 -0.1116
  465loPI   C3B 7439   0.915   9.055   9.718 -0.0729 -0.2335 -0.0435
  465loPI   C4B 7440   0.842   9.117   9.294 -0.3013  0.0794 -0.0471
  466loPI    C1 7441   8.823  17.277  11.584  0.1717 -0.0768 -0.2042
  466loPI    C2 7442   8.576  17.048  11.366 -0.1145  0.0790 -0.0500
  466loPI    C3 7443   8.443  17.225  11.699  0.1791  0.2527 -0.0215
  466loPI   PO4 7444   8.855  17.491  11.420  0.1720  0.0878  0.1064
  466loPI   GL1 7445   8.815  17.484  10.777  0.0952 -0.0806 -0.0456
  466loPI   GL2 7446   8.608  17.177  10.864  0.2901  0.2012  0.2757
  466loPI   C1A 7447   8.974  17.509  10.340  0.0090 -0.0998  0.0949
  466loPI   C2A 7448   8.957  17.504   9.889 -0.2936  0.4930  0.1929
  466loPI   C3A 7449   8.807  17.545   9.582 -0.1287  0.1167 -0.0062
  466loPI   C4A 7450   8.782  17.568   9.121 -0.0254 -0.3093 -0.1102
  466loPI   C5A 7451   8.777  17.562   8.648 -0.2632 -0.0510 -0.2453
  466loPI   C6A 7452   9.011  17.339   8.287 -0.1191 -0.2397  0.0420
  466loPI   C1B 7453   8.439  17.137  10.430 -0.0123  0.2038 -0.2977
  466loPI   C2B 7454   8.414  17.177   9.973 -0.2443  0.0147  0.3634
  466loPI   C3B 7455   8.395  17.140   9.600 -0.1878 -0.4567 -0.0665
  466loPI   C4B 7456   8.431  17.232   9.074 -0.1289  0.0051 -0.0722
  467loPI    C1 7457   3.497  17.312  11.430  0.0846  0.1930  0.0189
  467loPI    C2 7458   3.344  17.218  11.787 -0.1692 -0.1377 -0.1712
  467loPI    C3 7459   3.736  17.176  11.720 -0.1331 -0.1503  0.0422
  467loPI   PO4 7460   3.361  17.276  11.270 -0.0334 -0.2155 -0.1802
  467loPI   GL1 7461   3.131  17.489  11.071  0.1922  0.2829  0.0380
  467loPI   GL2 7462   2.897  17.343  10.970  0.3363 -0.2452  0.4132
  467loPI   C1A 7463   3.286  17.387  10.665  0.1266 -0.3331  0.2850
  467loPI   C2A 7464   3.294  17.496  10.254 -0.1782 -0.0479 -0.0841
  467loPI   C3A 7465   3.219  17.440   9.872  0.1513 -0.1781 -0.0218
  467loPI   C4A 7466   3.301  17.403   9.350 -0.0165 -0.2854 -0.1877
  467loPI   C5A 7467   3.087  17.250   9.027  0.0776  0.0149  0.1408
  467loPI   C6A 7468   2.941  16.843   8.953  0.3748 -0.1228  0.0930
  467loPI   C1B 7469   2.838  17.136  10.649 -0.1760 -0.1872 -0.0911
  467loPI   C2B 7470   2.967  17.148  10.271  0.2625  0.0617  0.1292
  467loPI   C3B 7471   2.909  17.103   9.933  0.0078  0.0708  0.3241
  467loPI   C4B 7472   2.879  17.138   9.451 -0.0320  0.0689  0.1352
  468loPI    C1 7473  16.007  15.535  11.598 -0.0844 -0.0447  0.0529
  468loPI    C2 7474  15.782  15.223  11.707 -0.0273 -0.0884  0.0467
  468loPI    C3 7475  15.812  15.541  11.947 -0.0311 -0.1162  0.0841
  468loPI   PO4 7476  16.016  15.594  11.318  0.0415 -0.1014 -0.0429
  468loPI   GL1 7477  16.183  15.648  10.977  0.1180 -0.1027  0.0765
  468loPI   GL2 7478  16.466  15.766  10.922  0.1906  0.0867  0.0438
  468loPI   C1A 7479  16.027  15.747  10.554 -0.2227 -0.0518  0.0687
  468loPI   C2A 7480  16.059  15.714  10.073 -0.1974  0.1557 -0.1186
  468loPI   C3A 7481  16.164  15.733   9.681  0.0688 -0.0087  0.1840
  468loPI   C4A 7482  16.166  15.720   9.202 -0.2163  0.0361 -0.1914
  468loPI   C5A 7483  16.284  15.664   8.783 -0.2305 -0.2660  0.1192
  468loPI   C6A 7484  16.564  15.754   8.624 -0.1792 -0.2625  0.2466
  468loPI   C1B 7485  16.512  15.588  10.437  0.4092  0.2154 -0.4699
  468loPI   C2B 7486  16.635  15.588  10.000 -0.3194  0.2175  0.1349
  468loPI   C3B 7487  16.617  15.525   9.512  0.0019  0.2144 -0.1910
  468loPI   C4B 7488  16.695  15.564   9.102  0.2147  0.1188  0.0321
  469loPI    C1 7489   9.395  12.630  10.998 -0.1185 -0.1332 -0.0130
  469loPI    C2 7490   9.637  12.948  10.981 -0.4081  0.0847 -0.1568
  469loPI    C3 7491   9.506  12.816  11.335 -0.0653 -0.0500 -0.0760
  469loPI   PO4 7492   9.455  12.665  10.652 -0.0413  0.1287 -0.1787
  469loPI   GL1 7493   9.324  12.450  10.332  0.0656 -0.1274  0.1746
  469loPI   GL2 7494   9.653  12.414  10.255  0.0173 -0.5121 -0.0629
  469loPI   C1A 7495   9.333  12.561   9.900  0.2580 -0.2291  0.3477
  469loPI   C2A 7496   9.373  12.635   9.372 -0.1214 -0.0203 -0.0196
  469loPI   C3A 7497   9.417  12.659   8.958 -0.0510 -0.0931  0.1319
  469loPI   C4A 7498   9.204  12.564   8.580  0.3354 -0.2373  0.1704
  469loPI   C5A 7499   9.251  12.738   8.237 -0.0125  0.0365  0.3550
  469loPI   C6A 7500   9.441  12.508   7.943  0.0323 -0.3628  0.0408
  469loPI   C1B 7501   9.485  12.075   9.912 -0.1609  0.0346 -0.1453
  469loPI   C2B 7502   9.545  12.149   9.481  0.3350 -0.0052 -0.3020
  469loPI   C3B 7503   9.446  12.167   9.006  0.0386 -0.0116  0.3180
  469loPI   C4B 7504   9.532  12.173   8.576  0.2967  0.1116 -0.1756
  470loPI    C1 7505   2.113   4.747  11.750  0.0677  0.1373  0.0524
  470loPI    C2 7506   1.727   4.828  11.817  0.0009 -0.1417  0.0174
  470loPI    C3 7507   1.989   4.838  12.119  0.0376  0.4077 -0.0222
  470loPI   PO4 7508   2.042   4.611  11.508 -0.3758  0.1235 -0.0451
  470loPI   GL1 7509   2.067   4.669  11.040  0.0919 -0.0402  0.1165
  470loPI   GL2 7510   1.707   4.763  11.160 -0.2564  0.1742  0.1479
  470loPI   C1A 7511   2.253   4.835  10.597 -0.1902  0.3500 -0.2977
  470loPI   C2A 7512   2.264   4.867  10.172  0.3928 -0.1546 -0.2128
  470loPI   C3A 7513   2.291   4.918   9.672  0.2059  0.4555 -0.1332
  470loPI   C4A 7514   2.264   4.951   9.265  0.0954 -0.0555  0.1185
  470loPI   C5A 7515   1.991   4.851   9.085 -0.4285  0.1136 -0.0680
  470loPI   C6A 7516   1.605   4.821   9.048 -0.0307 -0.1040  0.4736
  470loPI   C1B 7517   1.675   4.940  10.717  0.0174 -0.2787  0.0528
  470loPI   C2B 7518   1.822   5.019  10.282 -0.1196 -0.1923 -0.0277
  470loPI   C3B 7519   1.828   5.080   9.790  0.1710  0.1395 -0.1216
  470loPI   C4B 7520   1.775   5.127   9.465 -0.0201  0.0301  0.0098
  471loPI    C1 7521   2.398   2.670  11.336  0.1319  0.2916 -0.0028
  471loPI    C2 7522   2.796   2.697  11.363  0.1423  0.2245 -0.0849
  471loPI    C3 7523   2.605   2.386  11.527  0.1273  0.2368 -0.0790
  471loPI   PO4 7524   2.343   2.670  11.158 -0.1739 -0.0949  0.0694
  471loPI   GL1 7525   2.688   2.778  10.867 -0.1944  0.3262 -0.0263
  471loPI   GL2 7526   2.626   2.946  10.545 -0.1532  0.0407 -0.1044
  471loPI   C1A 7527   2.759   2.431  10.490  0.1672  0.0522 -0.0550
  471loPI   C2A 7528   2.731   2.364  10.121  0.1388 -0.2154 -0.0913
  471loPI   C3A 7529   2.747   2.381   9.690 -0.2353 -0.0849 -0.1118
  471loPI   C4A 7530   2.686   2.436   9.252 -0.0079  0.2375 -0.0164
  471loPI   C5A 7531   2.946   2.416   8.923 -0.1682  0.0716 -0.0403
  471loPI   C6A 7532   3.055   2.430   8.544  0.1555  0.0245 -0.5265
  471loPI   C1B 7533   2.689   2.891  10.047 -0.2309  0.2702 -0.0615
  471loPI   C2B 7534   2.652   2.991   9.650 -0.0704 -0.1884  0.0722
  471loPI   C3B 7535   2.636   2.921   9.169 -0.0549 -0.2454  0.2176
  471loPI   C4B 7536   2.355   2.864   8.747  0.0240 -0.0319 -0.0730
  472loPI    C1 7537  12.792   8.669  10.519  0.0508  0.2709 -0.1213
  472loPI    C2 7538  13.109   8.849  10.683  0.1307  0.1902 -0.1859
  472loPI    C3 7539  12.843   8.661  10.915  0.2117  0.1270 -0.1435
  472loPI   PO4 7540  12.720   8.800  10.360 -0.1673 -0.0174 -0.0310
  472loPI   GL1 7541  12.604   8.922   9.968 -0.2047 -0.2880  0.1166
  472loPI   GL2 7542  12.412   8.717   9.874 -0.0749 -0.1701 -0.0210
  472loPI   C1A 7543  12.943   8.968   9.690  0.1132 -0.0005  0.1502
  472loPI   C2A 7544  12.962   8.999   9.235  0.2966  0.1530  0.1652
  472loPI   C3A 7545  12.962   9.113   8.915  0.2205 -0.0725  0.0410
  472loPI   C4A 7546  13.144   9.113   8.528  0.3973  0.0439 -0.2090
  472loPI   C5A 7547  13.231   9.394   8.259  0.1270  0.2006  0.0876
  472loPI   C6A 7548  13.065   9.375   7.836  0.0601  0.0933  0.1936
  472loPI   C1B 7549  12.576   8.689   9.452 -0.0725  0.2403  0.1198
  472loPI   C2B 7550  12.600   8.734   9.016  0.3388 -0.1091 -0.0730
  472loPI   C3B 7551  12.577   8.848   8.629 -0.0256 -0.0846 -0.1181
  472loPI   C4B 7552  12.211   8.976   8.265  0.0127  0.2849  0.0928
  473loPI    C1 7553   4.183   7.906  11.479 -0.2210 -0.0366  0.2876
  473loPI    C2 7554   4.242   7.563  11.677  0.3854 -0.1263 -0.0236
  473loPI    C3 7555   4.431   7.896  11.793  0.1242  0.0090  0.0220
  473loPI   PO4 7556   4.238   7.862  11.217  0.0386  0.1670 -0.1155
  473loPI   GL1 7557   4.127   7.619  10.853 -0.0526  0.3488  0.1475
  473loPI   GL2 7558   3.809   7.710  10.863  0.1586 -0.0324  0.2374
  473loPI   C1A 7559   3.914   7.545  10.421  0.0629 -0.0946  0.0212
  473loPI   C2A 7560   3.887   7.565  10.032  0.1452 -0.1694 -0.0301
  473loPI   C3A 7561   3.992   7.588   9.610 -0.0751 -0.1374 -0.0116
  473loPI   C4A 7562   3.950   7.731   9.190  0.2465  0.1127  0.0460
  473loPI   C5A 7563   3.685   7.628   8.879  0.4887 -0.2014  0.0367
  473loPI   C6A 7564   3.452   7.552   8.509 -0.2876 -0.0833  0.3413
  473loPI   C1B 7565   3.498   7.706  10.636 -0.1060 -0.1031  0.2039
  473loPI   C2B 7566   3.428   7.763  10.211 -0.3695 -0.0586  0.3747
  473loPI   C3B 7567   3.579   7.803   9.729  0.1412 -0.2157 -0.1108
  473loPI   C4B 7568   3.468   7.880   9.331 -0.0809  0.1027  0.0843
  474loPI    C1 7569  12.849  17.067  10.978  0.0134  0.1761 -0.0204
  474loPI    C2 7570  12.569  17.260  11.188 -0.2172 -0.0611 -0.1056
  474loPI    C3 7571  12.863  17.067  11.378 -0.0235  0.3107 -0.0186
  474loPI   PO4 7572  12.924  17.210  10.689  0.2592  0.0501  0.0655
  474loPI   GL1 7573  13.071  17.121  10.395  0.1259  0.0482  0.1793
  474loPI   GL2 7574  13.055  16.771  10.279 -0.0155 -0.0034 -0.2135
  474loPI   C1A 7575  13.006  17.194   9.975  0.0963 -0.0790 -0.2278
  474loPI   C2A 7576  13.173  17.181   9.499  0.1246 -0.0493  0.0055
  474loPI   C3A 7577  13.159  17.173   8.995  0.0284  0.1678 -0.3833
  474loPI   C4A 7578  13.131  17.113   8.671  0.0407 -0.4243 -0.0094
  474loPI   C5A 7579  13.114  16.945   8.190  0.2758  0.1637  0.0630
  474loPI   C6A 7580  13.207  17.088   7.818  0.2182 -0.2111 -0.3356
  474loPI   C1B 7581  13.237  16.688   9.860  0.1134  0.2175  0.1030
  474loPI   C2B 7582  13.208  16.699   9.435 -0.1088  0.0375  0.0032
  474loPI   C3B 7583  13.218  16.648   8.999 -0.2450  0.0694 -0.0210
  474loPI   C4B 7584  13.107  16.641   8.621  0.1836 -0.4786 -0.1998
  475loPI    C1 7585   4.337   0.380  11.844  0.3267 -0.4482  0.1081
  475loPI    C2 7586   4.193   0.605  12.142  0.1572 -0.0190 -0.2857
  475loPI    C3 7587   4.045   0.239  12.077  0.0938 -0.0579  0.0621
  475loPI   PO4 7588   4.357   0.580  11.555  0.0059 -0.0084 -0.0643
  475loPI   GL1 7589   4.109   0.679  11.165 -0.2036  0.3133 -0.1041
  475loPI   GL2 7590   3.941   0.489  11.076 -0.1424 -0.1585 -0.0944
  475loPI   C1A 7591   4.333   0.818  10.730  0.0735  0.2314 -0.4104
  475loPI   C2A 7592   4.466   0.840  10.309  0.0812 -0.4660 -0.2131
  475loPI   C3A 7593   4.373   0.758   9.816  0.1149  0.0509 -0.0692
  475loPI   C4A 7594   4.373   0.825   9.428  0.4095 -0.3108 -0.2507
  475loPI   C5A 7595   4.565   0.756   9.143 -0.0717 -0.2457  0.4676
  475loPI   C6A 7596   4.662   0.963   8.709  0.1550 -0.2624 -0.1878
  475loPI   C1B 7597   3.930   0.472  10.617 -0.0130  0.0504  0.0932
  475loPI   C2B 7598   3.977   0.434  10.083 -0.1101  0.0712 -0.0010
  475loPI   C3B 7599   3.951   0.449   9.596  0.3197 -0.0905 -0.1250
  475loPI   C4B 7600   4.030   0.492   9.164 -0.3836  0.3282  0.0006
  476loPI    C1 7601   7.465  14.672  11.194  0.0231  0.1357 -0.1040
  476loPI    C2 7602   7.261  14.936  11.414  0.0010  0.0457 -0.0155
  476loPI    C3 7603   7.649  14.872  11.488  0.0396  0.1503 -0.1242
  476loPI   PO4 7604   7.472  14.684  10.983 -0.1108 -0.1183 -0.1019
  476loPI   GL1 7605   7.366  14.966  10.590 -0.0852  0.0441  0.1611
  476loPI   GL2 7606   7.065  14.741  10.589 -0.1512  0.2774 -0.2913
  476loPI   C1A 7607   7.415  15.093  10.161 -0.3767 -0.0479 -0.0655
  476loPI   C2A 7608   7.440  15.102   9.688  0.1944  0.3025 -0.0090
  476loPI   C3A 7609   7.443  15.104   9.203  0.2967  0.1514  0.0726
  476loPI   C4A 7610   7.456  15.085   8.846  0.0319  0.3287  0.3195
  476loPI   C5A 7611   7.642  15.330   8.585  0.1389 -0.0409 -0.2599
  476loPI   C6A 7612   8.005  15.523   8.650 -0.0844  0.2007 -0.0440
  476loPI   C1B 7613   7.067  14.785  10.216 -0.1566 -0.2209  0.1347
  476loPI   C2B 7614   6.983  14.785   9.825 -0.0628 -0.0019 -0.1801
  476loPI   C3B 7615   7.102  14.747   9.441  0.1334  0.0380 -0.2685
  476loPI   C4B 7616   7.095  14.803   9.056  0.2393  0.0147 -0.0143
  477loPI    C1 7617  15.315  17.310  11.313 -0.1670  0.2192  0.1696
  477loPI    C2 7618  15.628  17.255  11.556 -0.0627 -0.0592 -0.0228
  477loPI    C3 7619  15.310  17.013  11.581 -0.1181  0.0093 -0.0582
  477loPI   PO4 7620  15.420  17.368  11.108 -0.0812  0.0358 -0.1093
  477loPI   GL1 7621  15.506  17.078  10.736 -0.0520 -0.1525  0.1105
  477loPI   GL2 7622  15.290  17.293  10.572  0.1275  0.1443  0.0764
  477loPI   C1A 7623  15.526  16.817  10.358  0.0140  0.2186 -0.2536
  477loPI   C2A 7624  15.435  16.825   9.960  0.2331 -0.2675 -0.0297
  477loPI   C3A 7625  15.471  16.891   9.520  0.2424 -0.0297  0.0450
  477loPI   C4A 7626  15.501  16.858   9.028  0.0372 -0.0219 -0.1022
  477loPI   C5A 7627  15.442  16.931   8.683 -0.2245  0.0390  0.2771
  477loPI   C6A 7628  14.989  17.059   8.528 -0.3857 -0.2556 -0.0202
  477loPI   C1B 7629  15.390  17.336  10.232  0.0379 -0.0849  0.0721
  477loPI   C2B 7630  15.241  17.292   9.876 -0.0267  0.2236 -0.0123
  477loPI   C3B 7631  15.427  17.433   9.612  0.0979 -0.1962 -0.1077
  477loPI   C4B 7632  15.386  17.307   9.243 -0.0292 -0.1949 -0.1003
  478loPI    C1 7633   2.267  15.245  11.171  0.1122 -0.1325  0.1054
  478loPI    C2 7634   2.380  15.150  11.543  0.0612 -0.1398  0.1193
  478loPI    C3 7635   2.159  15.477  11.478  0.1285 -0.1005  0.0871
  478loPI   PO4 7636   2.102  15.113  11.118  0.0373 -0.0535 -0.2549
  478loPI   GL1 7637   1.989  15.127  10.760 -0.4896 -0.4159 -0.1134
  478loPI   GL2 7638   1.983  14.940  10.533  0.0317  0.0192 -0.0344
  478loPI   C1A 7639   2.226  15.459  10.500 -0.0721 -0.0114  0.0734
  478loPI   C2A 7640   2.401  15.493  10.076  0.2003  0.2213 -0.0543
  478loPI   C3A 7641   2.407  15.436   9.674 -0.2671  0.0131 -0.1269
  478loPI   C4A 7642   2.337  15.333   9.297 -0.1309 -0.0371 -0.1539
  478loPI   C5A 7643   2.150  15.435   8.873 -0.3063  0.0703 -0.1503
  478loPI   C6A 7644   1.808  15.418   8.611  0.0524 -0.4088 -0.0914
  478loPI   C1B 7645   2.027  15.081  10.180 -0.0840 -0.2970  0.0314
  478loPI   C2B 7646   2.030  15.085   9.751  0.0693  0.0374 -0.0824
  478loPI   C3B 7647   1.953  15.027   9.369  0.3681  0.2143 -0.2531
  478loPI   C4B 7648   1.831  15.101   8.932  0.1320  0.1506  0.0580
  479loPI    C1 7649  15.008   0.509  11.134 -0.3000  0.0859  0.1524
  479loPI    C2 7650  15.380   0.557  11.273 -0.1559 -0.0116 -0.1866
  479loPI    C3 7651  15.103   0.378  11.500  0.0544 -0.1123 -0.0048
  479loPI   PO4 7652  14.978   0.583  10.901 -0.3175 -0.0210  0.2412
  479loPI   GL1 7653  14.995   0.385  10.528 -0.1823  0.0683 -0.0904
  479loPI   GL2 7654  15.257   0.205  10.480  0.1989 -0.1075  0.1957
  479loPI   C1A 7655  14.788   0.360  10.188 -0.2095  0.0297  0.1620
  479loPI   C2A 7656  14.797   0.369   9.735 -0.0313  0.0966 -0.3693
  479loPI   C3A 7657  14.814   0.377   9.288 -0.2077  0.0266 -0.0364
  479loPI   C4A 7658  14.674   0.491   8.835 -0.2407  0.0560 -0.0597
  479loPI   C5A 7659  14.633   0.262   8.604 -0.0494 -0.0729  0.0501
  479loPI   C6A 7660  14.261   0.160   8.398  0.0482  0.1532 -0.3287
  479loPI   C1B 7661  15.207   0.157  10.001 -0.0065  0.0494 -0.3383
  479loPI   C2B 7662  15.278   0.288   9.589 -0.0127  0.1972  0.2260
  479loPI   C3B 7663  15.283   0.222   9.120  0.0372  0.0297  0.1123
  479loPI   C4B 7664  15.165   0.319   8.664 -0.2900  0.0970  0.1736
  480loPI    C1 7665  10.821   4.728  10.870  0.1394  0.0616 -0.2168
  480loPI    C2 7666  10.516   4.553  10.679  0.0399  0.1119 -0.1053
  480loPI    C3 7667  10.567   4.493  11.071  0.3543 -0.1437 -0.1818
  480loPI   PO4 7668  11.025   4.771  10.687 -0.0711  0.3138  0.1692
  480loPI   GL1 7669  11.057   4.750  10.315 -0.0291 -0.1861 -0.0271
  480loPI   GL2 7670  11.433   4.763  10.207 -0.0845 -0.0776 -0.1386
  480loPI   C1A 7671  11.052   4.469   9.932  0.0003 -0.1006 -0.0449
  480loPI   C2A 7672  11.133   4.346   9.507  0.1807  0.2358 -0.4400
  480loPI   C3A 7673  11.126   4.376   9.066  0.0417  0.1810 -0.0880
  480loPI   C4A 7674  11.139   4.388   8.592  0.0251  0.0175 -0.1094
  480loPI   C5A 7675  11.181   4.500   8.211 -0.3780 -0.1149  0.2134
  480loPI   C6A 7676  11.144   4.512   7.685 -0.1251 -0.1357 -0.5375
  480loPI   C1B 7677  11.442   4.740   9.793  0.0298  0.0404  0.0593
  480loPI   C2B 7678  11.494   4.686   9.276  0.0807 -0.2604 -0.1493
  480loPI   C3B 7679  11.522   4.697   8.878 -0.0561  0.2238 -0.2482
  480loPI   C4B 7680  11.637   4.750   8.442  0.0802  0.2821  0.1665
  481loPI    C1 7681   8.582   8.363  10.734  0.0236 -0.0515  0.1187
  481loPI    C2 7682   8.874   8.603  10.865  0.0954 -0.1044  0.0558
  481loPI    C3 7683   8.839   8.233  11.012  0.1098 -0.1260  0.0048
  481loPI   PO4 7684   8.641   8.447  10.451  0.3801 -0.0324 -0.0888
  481loPI   GL1 7685   8.718   8.907  10.244  0.0795 -0.3622 -0.0038
  481loPI   GL2 7686   8.948   9.021  10.060  0.0245  0.0458 -0.0051
  481loPI   C1A 7687   8.468   8.631   9.891  0.2047  0.1909 -0.3836
  481loPI   C2A 7688   8.302   8.571   9.528  0.1776 -0.0350 -0.0441
  481loPI   C3A 7689   8.378   8.600   9.136 -0.0676  0.0147 -0.5233
  481loPI   C4A 7690   8.504   8.625   8.643  0.0402  0.3715  0.0498
  481loPI   C5A 7691   8.614   8.663   8.230  0.0689 -0.1083 -0.1465
  481loPI   C6A 7692   8.878   8.688   7.898 -0.2292  0.2428  0.3062
  481loPI   C1B 7693   8.740   8.980   9.642 -0.2752  0.1706 -0.1044
  481loPI   C2B 7694   8.718   8.916   9.262 -0.1625  0.1840 -0.2378
  481loPI   C3B 7695   8.852   8.840   8.914 -0.0256 -0.2097 -0.4397
  481loPI   C4B 7696   8.966   8.868   8.473  0.0259 -0.1750  0.1866
  482loPI    C1 7697   4.057  16.777  11.693 -0.1177 -0.0455 -0.1141
  482loPI    C2 7698   4.372  16.687  11.923 -0.1734 -0.3752 -0.1611
  482loPI    C3 7699   4.023  16.500  11.980 -0.3859  0.0399 -0.0609
  482loPI   PO4 7700   4.238  16.790  11.478 -0.0201  0.0123 -0.1940
  482loPI   GL1 7701   4.218  16.523  11.074  0.2386 -0.1233  0.1728
  482loPI   GL2 7702   3.889  16.632  11.091 -0.4466  0.0280 -0.0138
  482loPI   C1A 7703   4.475  16.712  10.773 -0.1753  0.1064 -0.0459
  482loPI   C2A 7704   4.424  16.680  10.271 -0.1103 -0.1306  0.2802
  482loPI   C3A 7705   4.390  16.631   9.822  0.0514  0.1876  0.0325
  482loPI   C4A 7706   4.440  16.609   9.447 -0.1634 -0.1814  0.1813
  482loPI   C5A 7707   4.511  16.526   9.021  0.1264 -0.0675  0.1648
  482loPI   C6A 7708   4.385  16.437   8.650  0.2793 -0.2931  0.0099
  482loPI   C1B 7709   3.983  16.802  10.680  0.0365 -0.0132  0.2634
  482loPI   C2B 7710   3.912  16.790  10.238  0.1096 -0.0669  0.2114
  482loPI   C3B 7711   3.862  16.658   9.814 -0.1387 -0.0591 -0.3359
  482loPI   C4B 7712   3.878  16.729   9.332 -0.0778  0.3497  0.0193
  483loPI    C1 7713  10.584   9.572  10.523 -0.0408 -0.2169 -0.1279
  483loPI    C2 7714  10.335   9.392  10.779  0.1723  0.0073  0.2476
  483loPI    C3 7715  10.228   9.736  10.605 -0.0019 -0.1815 -0.0280
  483loPI   PO4 7716  10.668   9.351  10.380 -0.0487  0.2033  0.2985
  483loPI   GL1 7717  10.683   9.224  10.009 -0.1439 -0.0660 -0.1075
  483loPI   GL2 7718  10.910   9.142   9.857 -0.0668  0.2956  0.3276
  483loPI   C1A 7719  10.657   9.383   9.495  0.0687 -0.0119 -0.1382
  483loPI   C2A 7720  10.644   9.549   9.208 -0.0667  0.2366  0.3871
  483loPI   C3A 7721  10.822   9.785   8.850 -0.0455  0.1622  0.0688
  483loPI   C4A 7722  10.849   9.915   8.469  0.2332 -0.0221  0.0012
  483loPI   C5A 7723  10.967  10.099   8.047 -0.2372  0.0729 -0.3165
  483loPI   C6A 7724  11.082  10.461   7.747 -0.0915  0.1603 -0.0452
  483loPI   C1B 7725  11.003   9.026   9.457 -0.5079 -0.0774  0.0555
  483loPI   C2B 7726  10.977   9.145   9.033  0.1583 -0.1058 -0.0543
  483loPI   C3B 7727  11.084   9.229   8.640 -0.1702 -0.2831  0.0534
  483loPI   C4B 7728  11.089   9.133   8.262  0.2703  0.0345 -0.0768
  484loPI    C1 7729   0.715  10.140  11.581  0.0793  0.3616 -0.0264
  484loPI    C2 7730   0.772   9.861  11.862  0.0181  0.2412 -0.1325
  484loPI    C3 7731   0.578  10.199  11.952  0.1504  0.2797  0.0132
  484loPI   PO4 7732   0.954  10.135  11.479  0.0128 -0.2290 -0.0311
  484loPI   GL1 7733   1.050  10.107  11.127 -0.0500  0.1760  0.3700
  484loPI   GL2 7734   1.242   9.926  10.934  0.1563 -0.0677  0.1295
  484loPI   C1A 7735   0.878  10.107  10.692 -0.2166  0.1724  0.1904
  484loPI   C2A 7736   0.771  10.085  10.229 -0.0520  0.0318  0.0837
  484loPI   C3A 7737   0.736  10.142   9.789  0.0578 -0.0170  0.3350
  484loPI   C4A 7738   0.713  10.223   9.422 -0.1870  0.0407 -0.0715
  484loPI   C5A 7739   0.676  10.164   9.062 -0.0212 -0.1167 -0.2470
  484loPI   C6A 7740   0.796  10.497   8.772  0.0692 -0.2533  0.1576
  484loPI   C1B 7741   1.198   9.911  10.394 -0.1330  0.2464  0.0750
  484loPI   C2B 7742   1.149   9.971   9.976 -0.1342  0.1649  0.0391
  484loPI   C3B 7743   1.283   9.981   9.656  0.1020  0.0394 -0.2518
  484loPI   C4B 7744   1.164  10.030   9.218  0.2394 -0.3806  0.2069
  485loPI    C1 7745   3.439  15.958  11.845 -0.2168  0.3729  0.0683
  485loPI    C2 7746   3.099  15.750  11.878 -0.1111  0.2121  0.1602
  485loPI    C3 7747   3.183  16.037  12.143 -0.0759  0.1064  0.2645
  485loPI   PO4 7748   3.583  15.920  11.573  0.1134  0.1261  0.2167
  485loPI   GL1 7749   3.467  16.033  11.107 -0.3173  0.0873  0.0866
  485loPI   GL2 7750   3.815  16.106  11.092  0.0370 -0.0311 -0.1597
  485loPI   C1A 7751   3.596  15.879  10.638  0.1353  0.1797 -0.0620
  485loPI   C2A 7752   3.593  15.926  10.189 -0.2246  0.4217 -0.0403
  485loPI   C3A 7753   3.579  15.958   9.739 -0.1614 -0.1058  0.4023
  485loPI   C4A 7754   3.665  15.880   9.333  0.0736 -0.1042  0.2169
  485loPI   C5A 7755   3.498  15.911   8.966 -0.1957  0.1803  0.0974
  485loPI   C6A 7756   3.192  15.739   8.724  0.0129 -0.0184 -0.1659
  485loPI   C1B 7757   4.000  16.149  10.724  0.0134 -0.0260 -0.1920
  485loPI   C2B 7758   3.937  16.286  10.383 -0.0852  0.2900 -0.1644
  485loPI   C3B 7759   3.963  16.219   9.963  0.1235 -0.1504  0.2067
  485loPI   C4B 7760   4.042  16.259   9.534  0.0259 -0.0246 -0.1389
  486loPI    C1 7761   8.350  15.137  11.434 -0.1109  0.0323  0.1685
  486loPI    C2 7762   8.700  15.302  11.539  0.0122 -0.0784 -0.0614
  486loPI    C3 7763   8.570  14.973  11.726 -0.1481  0.1709  0.2755
  486loPI   PO4 7764   8.361  15.091  11.154  0.1678 -0.1142  0.1067
  486loPI   GL1 7765   8.001  15.262  10.814  0.0218  0.0918  0.0806
  486loPI   GL2 7766   7.818  15.302  10.559  0.0285  0.1093  0.0108
  486loPI   C1A 7767   8.290  15.207  10.488 -0.1314  0.1248 -0.1535
  486loPI   C2A 7768   8.340  15.247  10.043  0.1908 -0.1759 -0.4239
  486loPI   C3A 7769   8.337  15.333   9.636  0.1763 -0.0842  0.1841
  486loPI   C4A 7770   8.453  15.301   9.277 -0.0298 -0.0396 -0.3505
  486loPI   C5A 7771   8.324  15.242   8.880  0.1586 -0.0911  0.1605
  486loPI   C6A 7772   8.179  15.013   8.423  0.1652 -0.0614 -0.3953
  486loPI   C1B 7773   7.815  15.460  10.204 -0.0037 -0.1899 -0.1164
  486loPI   C2B 7774   7.896  15.475   9.823  0.0886 -0.0241  0.2411
  486loPI   C3B 7775   7.836  15.509   9.450  0.0438 -0.0770 -0.0572
  486loPI   C4B 7776   7.846  15.417   9.099  0.1490 -0.0183  0.0239
  487loPI    C1 7777  13.693   7.203  10.906  0.0697 -0.0157 -0.1706
  487loPI    C2 7778  13.706   6.831  10.759 -0.2334 -0.0558 -0.1022
  487loPI    C3 7779  13.716   6.890  11.155 -0.0577  0.0171 -0.1167
  487loPI   PO4 7780  13.821   7.381  10.710  0.4147  0.0424 -0.1527
  487loPI   GL1 7781  13.748   7.607  10.352  0.1355  0.1411  0.0860
  487loPI   GL2 7782  13.517   7.583  10.235 -0.3230  0.0030 -0.0139
  487loPI   C1A 7783  14.148   7.577  10.167 -0.1144 -0.0305 -0.1538
  487loPI   C2A 7784  14.261   7.657   9.754 -0.0337  0.1991 -0.0315
  487loPI   C3A 7785  14.282   7.744   9.309  0.0004 -0.3010 -0.1023
  487loPI   C4A 7786  14.286   7.818   8.846 -0.0517 -0.0653 -0.1305
  487loPI   C5A 7787  14.200   8.008   8.467 -0.2609  0.2471  0.0906
  487loPI   C6A 7788  14.498   8.252   8.287 -0.0734 -0.0985  0.0102
  487loPI   C1B 7789  13.760   7.825   9.805  0.2067  0.2076 -0.2359
  487loPI   C2B 7790  13.794   7.902   9.302 -0.0088  0.2382  0.0785
  487loPI   C3B 7791  13.769   7.915   8.844  0.0236 -0.1072  0.0868
  487loPI   C4B 7792  13.598   7.725   8.530 -0.0140  0.0041 -0.0094
  488loPI    C1 7793   3.421   1.950  11.804  0.0709  0.0104  0.0607
  488loPI    C2 7794   3.437   2.123  12.164  0.0657 -0.0793  0.1042
  488loPI    C3 7795   3.630   1.779  12.099 -0.0866 -0.1598  0.0751
  488loPI   PO4 7796   3.497   2.142  11.619 -0.2603  0.4475 -0.1565
  488loPI   GL1 7797   3.508   2.140  11.156 -0.1337 -0.1254 -0.0938
  488loPI   GL2 7798   3.355   2.398  10.939  0.0943 -0.0764  0.0252
  488loPI   C1A 7799   3.790   1.961  10.788  0.1615 -0.1718 -0.0121
  488loPI   C2A 7800   3.764   2.025  10.270 -0.0131 -0.2593  0.0642
  488loPI   C3A 7801   3.690   2.031   9.829  0.3016 -0.2141  0.1170
  488loPI   C4A 7802   3.714   2.107   9.499 -0.1676  0.1302 -0.4416
  488loPI   C5A 7803   3.599   2.039   9.089 -0.0605 -0.1961  0.2905
  488loPI   C6A 7804   3.393   2.063   8.798 -0.1083 -0.1288  0.2446
  488loPI   C1B 7805   3.339   2.180  10.565 -0.2551  0.4119  0.3614
  488loPI   C2B 7806   3.321   2.125  10.154  0.2279 -0.5131  0.0146
  488loPI   C3B 7807   3.197   2.269   9.706 -0.0846  0.3227 -0.1521
  488loPI   C4B 7808   3.174   2.262   9.339 -0.0206  0.0271 -0.0372
  489loPI    C1 7809  10.028   6.300  10.857  0.0559 -0.3161  0.4514
  489loPI    C2 7810  10.144   6.649  10.699 -0.1985 -0.3799  0.1142
  489loPI    C3 7811  10.236   6.562  11.078  0.0830 -0.0556  0.1257
  489loPI   PO4 7812  10.066   6.182  10.606  0.1207 -0.3789 -0.0741
  489loPI   GL1 7813  10.047   5.998  10.159  0.0694  0.0379  0.1486
  489loPI   GL2 7814  10.005   6.393  10.147 -0.0210  0.0403  0.3169
  489loPI   C1A 7815   9.886   5.781   9.795 -0.3998 -0.0398  0.0151
  489loPI   C2A 7816   9.796   5.772   9.385  0.1823  0.1042 -0.4123
  489loPI   C3A 7817   9.845   5.648   8.940 -0.3188  0.0365 -0.2535
  489loPI   C4A 7818  10.047   5.726   8.641  0.0424  0.3102  0.2147
  489loPI   C5A 7819   9.954   5.618   8.313  0.1539 -0.3066  0.0294
  489loPI   C6A 7820  10.149   5.428   8.115 -0.0568  0.0327  0.1210
  489loPI   C1B 7821   9.802   6.235   9.672 -0.1606 -0.0397  0.2210
  489loPI   C2B 7822   9.779   6.282   9.231  0.0034 -0.1857 -0.1908
  489loPI   C3B 7823   9.808   6.189   8.831  0.1250 -0.1566  0.2013
  489loPI   C4B 7824   9.881   6.168   8.405 -0.0237  0.1407 -0.1361
  490loPI    C1 7825  17.321  11.924  11.054 -0.2800 -0.0021 -0.2366
  490loPI    C2 7826  17.120  11.650  11.265  0.1856 -0.3010 -0.1672
  490loPI    C3 7827  17.238  11.990  11.440  0.0140 -0.2623 -0.1250
  490loPI   PO4 7828  17.112  11.952  10.850  0.3099  0.0048 -0.2102
  490loPI   GL1 7829  16.964  11.846  10.461 -0.0823 -0.0504 -0.0195
  490loPI   GL2 7830  17.205  11.603  10.372 -0.1133  0.1108 -0.1208
  490loPI   C1A 7831  17.391  11.997  10.236 -0.3030  0.1657  0.1829
  490loPI   C2A 7832  17.535  11.976   9.891 -0.0206 -0.1039  0.0469
  490loPI   C3A 7833  17.514  11.852   9.479  0.0365  0.2115  0.1538
  490loPI   C4A 7834  17.439  11.908   9.002 -0.0247 -0.0815  0.0501
  490loPI   C5A 7835  17.228  12.189   8.607 -0.0866  0.2336  0.1055
  490loPI   C6A 7836  16.940  11.996   8.349  0.1791  0.0555 -0.0160
  490loPI   C1B 7837  17.185  11.635   9.957 -0.0118  0.1432  0.1581
  490loPI   C2B 7838  17.141  11.568   9.581 -0.0225 -0.0780 -0.1472
  490loPI   C3B 7839  17.065  11.611   9.147 -0.2183  0.0076  0.2864
  490loPI   C4B 7840  17.108  11.584   8.697 -0.2868  0.4566  0.1520
  491loPI    C1 7841   2.749  10.154  11.539  0.0326 -0.0311 -0.0322
  491loPI    C2 7842   3.103  10.181  11.723 -0.1099 -0.0306  0.2463
  491loPI    C3 7843   2.857  10.496  11.715 -0.0582  0.0053 -0.0470
  491loPI   PO4 7844   2.801  10.056  11.285 -0.4375 -0.2317 -0.1343
  491loPI   GL1 7845   2.894  10.081  10.935 -0.1045 -0.0704 -0.5679
  491loPI   GL2 7846   3.077  10.010  10.887 -0.1217  0.1912  0.1363
  491loPI   C1A 7847   2.633  10.202  10.626  0.0190  0.3084 -0.0090
  491loPI   C2A 7848   2.547  10.062  10.205  0.2103 -0.0969 -0.0642
  491loPI   C3A 7849   2.556  10.067   9.725  0.2846  0.2553  0.0098
  491loPI   C4A 7850   2.492   9.900   9.375 -0.1863  0.1833 -0.2367
  491loPI   C5A 7851   2.605   9.653   8.995 -0.0558  0.0073 -0.0848
  491loPI   C6A 7852   2.660   9.234   8.689 -0.0518 -0.1757  0.2323
  491loPI   C1B 7853   3.123   9.812  10.491  0.1162 -0.1712  0.0255
  491loPI   C2B 7854   3.050   9.816  10.069 -0.0590 -0.0352 -0.0675
  491loPI   C3B 7855   3.046   9.889   9.688  0.0346  0.0617  0.1069
  491loPI   C4B 7856   3.012   9.824   9.230 -0.0990  0.0694  0.2112
  492loPI    C1 7857   6.563   7.036  11.340  0.0979 -0.0269  0.0608
  492loPI    C2 7858   6.421   7.355  11.535  0.0435  0.0720 -0.1377
  492loPI    C3 7859   6.815   7.311  11.486  0.0479  0.1436 -0.1682
  492loPI   PO4 7860   6.385   6.974  11.158  0.0996 -0.1279 -0.0143
  492loPI   GL1 7861   6.565   7.107  10.715  0.1096  0.0257 -0.0712
  492loPI   GL2 7862   6.435   7.394  10.497  0.1874  0.1761 -0.2667
  492loPI   C1A 7863   6.574   6.920  10.371 -0.2629 -0.0382  0.2022
  492loPI   C2A 7864   6.461   6.887   9.955 -0.0306  0.2603  0.1902
  492loPI   C3A 7865   6.463   6.857   9.525 -0.3400 -0.0117 -0.0866
  492loPI   C4A 7866   6.502   6.899   9.084 -0.1768 -0.2436  0.2410
  492loPI   C5A 7867   6.466   6.843   8.729  0.0517 -0.1965 -0.2081
  492loPI   C6A 7868   6.244   6.729   8.365  0.1566 -0.0463  0.2600
  492loPI   C1B 7869   6.309   7.404  10.074  0.0594  0.0636 -0.1773
  492loPI   C2B 7870   6.330   7.385   9.555  0.3854 -0.0169 -0.1154
  492loPI   C3B 7871   6.336   7.349   9.107 -0.2545  0.0676 -0.1192
  492loPI   C4B 7872   6.379   7.375   8.634 -0.1213 -0.1917 -0.2329
  493loPI    C1 7873   9.512  13.313  11.341  0.1375  0.0855  0.0922
  493loPI    C2 7874   9.410  13.492  11.683 -0.0085 -0.2117  0.2083
  493loPI    C3 7875   9.686  13.203  11.684  0.0636 -0.1446  0.0580
  493loPI   PO4 7876   9.339  13.406  11.181  0.1965  0.1239 -0.2097
  493loPI   GL1 7877   9.442  13.384  10.818 -0.2867  0.1917 -0.0256
  493loPI   GL2 7878   9.302  13.185  10.578  0.2898 -0.0408 -0.0672
  493loPI   C1A 7879   9.692  13.355  10.399  0.2711 -0.2653  0.2164
  493loPI   C2A 7880   9.613  13.253   9.941 -0.3500 -0.0258  0.0175
  493loPI   C3A 7881   9.718  13.008   9.543 -0.0728  0.0153 -0.1219
  493loPI   C4A 7882   9.786  13.101   9.114  0.2383  0.0726 -0.4749
  493loPI   C5A 7883  10.065  13.180   8.790 -0.4469  0.0966 -0.0902
  493loPI   C6A 7884  10.025  13.105   8.381  0.1696 -0.0638  0.0914
  493loPI   C1B 7885   9.288  13.034  10.161  0.0926  0.2293 -0.2375
  493loPI   C2B 7886   9.203  13.098   9.712 -0.2867 -0.1431 -0.1835
  493loPI   C3B 7887   9.342  13.247   9.323  0.3385 -0.0104 -0.1412
  493loPI   C4B 7888   9.209  13.169   8.963  0.1334  0.1932  0.1569
  494loPI    C1 7889  10.525  10.616  10.679  0.1469 -0.0304 -0.2318
  494loPI    C2 7890  10.769  10.917  10.582  0.0548  0.0135 -0.3281
  494loPI    C3 7891  10.919  10.580  10.735  0.1446  0.1620 -0.0838
  494loPI   PO4 7892  10.333  10.622  10.485  0.3929  0.3587  0.0388
  494loPI   GL1 7893  10.467  10.503  10.042 -0.0059 -0.0448 -0.0993
  494loPI   GL2 7894  10.778  10.530  10.198  0.0967  0.1003 -0.0535
  494loPI   C1A 7895  10.727  10.460   9.627  0.2448 -0.0548  0.0975
  494loPI   C2A 7896  10.973  10.518   9.258  0.0466 -0.0406  0.1256
  494loPI   C3A 7897  11.126  10.624   8.834 -0.0298 -0.1787 -0.2143
  494loPI   C4A 7898  10.999  10.888   8.471 -0.1928 -0.1066  0.1186
  494loPI   C5A 7899  11.164  10.904   7.998 -0.3662  0.0588 -0.0694
  494loPI   C6A 7900  11.185  11.006   7.626  0.0205 -0.2647 -0.0885
  494loPI   C1B 7901  11.104  10.680   9.903  0.4330 -0.0931  0.0289
  494loPI   C2B 7902  11.150  10.866   9.533 -0.1625 -0.1403  0.0590
  494loPI   C3B 7903  11.115  11.069   9.069  0.1481  0.0894 -0.2223
  494loPI   C4B 7904  10.964  11.318   8.710 -0.3328 -0.2212 -0.1558
  495loPI    C1 7905  13.765   5.129  11.088 -0.0088 -0.0599 -0.0086
  495loPI    C2 7906  13.533   5.363  11.315 -0.0617 -0.1033 -0.0179
  495loPI    C3 7907  13.523   4.965  11.362  0.0839 -0.0992  0.0499
  495loPI   PO4 7908  13.778   5.213  10.864  0.1848 -0.0132 -0.1064
  495loPI   GL1 7909  13.557   5.053  10.463 -0.4663  0.0149 -0.1481
  495loPI   GL2 7910  13.671   5.362  10.324 -0.3041 -0.3289 -0.0030
  495loPI   C1A 7911  13.814   4.903  10.211 -0.0618 -0.0723 -0.1332
  495loPI   C2A 7912  13.784   4.943   9.835 -0.1779  0.2084  0.1224
  495loPI   C3A 7913  13.791   4.870   9.451  0.1554 -0.0176  0.3520
  495loPI   C4A 7914  13.804   4.962   9.055  0.1771 -0.2195 -0.0012
  495loPI   C5A 7915  13.999   5.104   8.538  0.1100  0.3242  0.0584
  495loPI   C6A 7916  14.318   5.471   8.454  0.0499  0.0099  0.3129
  495loPI   C1B 7917  13.689   5.477   9.905 -0.0529 -0.1325 -0.0454
  495loPI   C2B 7918  13.673   5.396   9.448 -0.2089 -0.2641  0.2061
  495loPI   C3B 7919  13.805   5.457   9.093  0.2308 -0.1595  0.3212
  495loPI   C4B 7920  13.860   5.550   8.646 -0.1220 -0.0590  0.1751
  496loPI    C1 7921   5.391   6.037  11.540 -0.1136 -0.0233  0.1782
  496loPI    C2 7922   5.588   5.712  11.663  0.1949  0.0961  0.0108
  496loPI    C3 7923   5.291   5.862  11.885  0.1275 -0.2293  0.1460
  496loPI   PO4 7924   5.334   5.897  11.210  0.2136  0.0461  0.0150
  496loPI   GL1 7925   5.179   5.663  10.927 -0.0622 -0.0195 -0.0106
  496loPI   GL2 7926   4.961   5.442  10.905 -0.0074  0.2794  0.3284
  496loPI   C1A 7927   5.274   5.756  10.405  0.2289 -0.0498 -0.3216
  496loPI   C2A 7928   5.314   5.794   9.911 -0.1004 -0.2979  0.1594
  496loPI   C3A 7929   5.375   5.857   9.400 -0.0717 -0.2105 -0.0538
  496loPI   C4A 7930   5.288   5.859   9.028  0.2312  0.0216  0.0669
  496loPI   C5A 7931   5.237   5.590   8.656  0.0842  0.0124  0.0413
  496loPI   C6A 7932   5.402   5.368   8.359  0.4333 -0.2177  0.1982
  496loPI   C1B 7933   4.856   5.439  10.468 -0.2119 -0.0070  0.1657
  496loPI   C2B 7934   4.976   5.398  10.023  0.1157 -0.0514  0.2686
  496loPI   C3B 7935   4.919   5.460   9.542  0.0801  0.1995 -0.0515
  496loPI   C4B 7936   4.959   5.429   9.087  0.1000  0.1028  0.3136
  497loPI    C1 7937   0.462   1.616  11.550 -0.0867  0.0268  0.0133
  497loPI    C2 7938   0.677   1.708  11.875  0.0573 -0.0918 -0.0467
  497loPI    C3 7939   0.323   1.526  11.914 -0.0067  0.0516  0.0502
  497loPI   PO4 7940   0.547   1.888  11.331  0.0596  0.0260  0.2626
  497loPI   GL1 7941   0.841   1.904  10.990  0.2331 -0.3007 -0.1457
  497loPI   GL2 7942   1.015   1.717  10.912  0.1051 -0.0884 -0.1867
  497loPI   C1A 7943   0.958   1.958  10.534  0.4575 -0.1178  0.0454
  497loPI   C2A 7944   1.054   2.025  10.104 -0.0433 -0.3586  0.0647
  497loPI   C3A 7945   1.107   2.023   9.627  0.0339 -0.1907 -0.0319
  497loPI   C4A 7946   0.955   2.105   9.357  0.0762 -0.0629  0.3598
  497loPI   C5A 7947   1.005   2.044   8.926 -0.0205  0.0126  0.0164
  497loPI   C6A 7948   0.901   1.810   8.599  0.0550  0.0921  0.2213
  497loPI   C1B 7949   1.084   1.504  10.489  0.1269 -0.0379 -0.0333
  497loPI   C2B 7950   1.100   1.542   9.984 -0.1772  0.0589  0.0996
  497loPI   C3B 7951   1.195   1.570   9.464  0.1544 -0.3495 -0.4010
  497loPI   C4B 7952   1.143   1.622   9.141  0.0802  0.0271 -0.0892
  498loPI    C1 7953   7.672   6.234  11.265  0.0386  0.1760 -0.0336
  498loPI    C2 7954   7.636   6.125  11.648 -0.2853  0.2789 -0.0322
  498loPI    C3 7955   7.799   6.478  11.555  0.0142  0.1509 -0.0018
  498loPI   PO4 7956   7.441   6.129  11.145 -0.0153 -0.0561 -0.0046
  498loPI   GL1 7957   7.141   6.159  10.732 -0.1952  0.2348  0.0652
  498loPI   GL2 7958   7.353   5.925  10.504 -0.0927 -0.0306  0.3286
  498loPI   C1A 7959   6.963   6.114  10.361 -0.1787 -0.2701  0.3150
  498loPI   C2A 7960   7.016   6.183   9.948 -0.4514 -0.2897 -0.0989
  498loPI   C3A 7961   6.985   6.104   9.469  0.0015 -0.0541 -0.0590
  498loPI   C4A 7962   7.016   6.109   9.077  0.4148  0.0215  0.0004
  498loPI   C5A 7963   7.038   6.210   8.623  0.0835 -0.1078 -0.0961
  498loPI   C6A 7964   7.091   6.126   8.273  0.0115 -0.1965  0.0653
  498loPI   C1B 7965   7.426   5.954   9.993 -0.1307 -0.0389  0.2334
  498loPI   C2B 7966   7.464   6.021   9.534 -0.0575  0.1034 -0.3237
  498loPI   C3B 7967   7.475   5.948   9.109 -0.5470  0.1734 -0.1362
  498loPI   C4B 7968   7.499   6.038   8.646 -0.0341  0.0691 -0.0046
  499loPI    C1 7969   3.269  10.890  11.167  0.0252  0.0543  0.2930
  499loPI    C2 7970   3.564  11.121  11.026 -0.0774  0.0740  0.1079
  499loPI    C3 7971   3.360  11.233  11.351  0.0983  0.0753  0.2188
  499loPI   PO4 7972   3.177  10.799  11.002 -0.2257 -0.0181  0.3006
  499loPI   GL1 7973   3.263  11.060  10.602  0.1766  0.3132 -0.1725
  499loPI   GL2 7974   3.386  11.294  10.614 -0.1522 -0.1382  0.4854
  499loPI   C1A 7975   2.982  10.981  10.204 -0.4149 -0.2569 -0.3575
  499loPI   C2A 7976   2.869  10.907   9.840 -0.1140  0.0004 -0.2078
  499loPI   C3A 7977   2.746  10.890   9.403 -0.0398 -0.2133  0.2008
  499loPI   C4A 7978   2.777  10.873   9.027  0.0312  0.3186  0.1128
  499loPI   C5A 7979   2.739  10.931   8.631  0.0754  0.1222 -0.2626
  499loPI   C6A 7980   2.358  10.775   8.489  0.0709 -0.1923  0.0715
  499loPI   C1B 7981   3.326  11.344  10.157 -0.1205 -0.0589  0.1640
  499loPI   C2B 7982   3.181  11.335   9.782  0.0417  0.2041  0.1100
  499loPI   C3B 7983   3.129  11.229   9.320 -0.1103  0.0836 -0.1656
  499loPI   C4B 7984   3.161  11.260   8.908 -0.1433  0.0095  0.0049
  500loPI    C1 7985   5.330  11.158  10.981 -0.0779  0.0326  0.1035
  500loPI    C2 7986   5.567  10.981  11.251 -0.2628  0.0063  0.2503
  500loPI    C3 7987   5.270  11.220  11.372 -0.1588  0.2355  0.0600
  500loPI   PO4 7988   5.319  10.983  10.785  0.0216 -0.2853 -0.0327
  500loPI   GL1 7989   5.592  11.012  10.460  0.0874 -0.1892  0.0875
  500loPI   GL2 7990   5.475  11.323  10.421 -0.3212  0.1760  0.0300
  500loPI   C1A 7991   5.529  10.882  10.083  0.2129 -0.0064  0.3166
  500loPI   C2A 7992   5.533  10.973   9.704  0.1476  0.1034  0.3144
  500loPI   C3A 7993   5.510  11.053   9.275  0.2109 -0.1201 -0.0948
  500loPI   C4A 7994   5.643  11.073   8.764 -0.1480  0.0586 -0.0272
  500loPI   C5A 7995   5.899  10.737   8.458  0.0728 -0.0761 -0.1659
  500loPI   C6A 7996   6.271  10.522   8.407  0.3148 -0.0624 -0.1322
  500loPI   C1B 7997   5.476  11.434  10.011  0.1001 -0.1152 -0.1195
  500loPI   C2B 7998   5.576  11.559   9.648  0.2047  0.0738  0.4004
  500loPI   C3B 7999   5.420  11.543   9.272 -0.0711 -0.1530 -0.0533
  500loPI   C4B 8000   5.376  11.531   8.833 -0.1007 -0.0965  0.3028
  501loPI    C1 8001  13.510  13.982  11.208  0.0127  0.0093  0.0882
  501loPI    C2 8002  13.689  14.291  11.028 -0.0051  0.0173  0.0844
  501loPI    C3 8003  13.537  14.333  11.396 -0.2101  0.0786 -0.0055
  501loPI   PO4 8004  13.458  13.820  10.930  0.2198  0.1762 -0.1489
  501loPI   GL1 8005  13.526  13.887  10.503 -0.1047  0.0535 -0.0369
  501loPI   GL2 8006  13.723  13.648  10.450 -0.0036 -0.0602  0.0648
  501loPI   C1A 8007  13.227  13.891  10.104  0.1901 -0.1215  0.2022
  501loPI   C2A 8008  13.251  13.913   9.595 -0.0632  0.2237  0.1554
  501loPI   C3A 8009  13.377  13.859   9.155  0.2863 -0.2398  0.1455
  501loPI   C4A 8010  13.581  13.863   8.688 -0.1188  0.2713 -0.1285
  501loPI   C5A 8011  13.800  13.737   8.348  0.2228  0.4081 -0.1403
  501loPI   C6A 8012  14.209  13.720   8.225 -0.0622 -0.0146 -0.0745
  501loPI   C1B 8013  13.624  13.602   9.954 -0.1002  0.3762  0.1513
  501loPI   C2B 8014  13.652  13.682   9.530  0.1130  0.1539 -0.2686
  501loPI   C3B 8015  13.909  13.645   9.097  0.3534 -0.0083  0.0790
  501loPI   C4B 8016  14.040  13.513   8.746  0.3553 -0.4256  0.2086
  502loPI    C1 8017   3.651  15.326  11.429  0.0883 -0.1218 -0.0370
  502loPI    C2 8018   3.831  15.483  11.750  0.0098 -0.3044  0.0977
  502loPI    C3 8019   3.435  15.429  11.749  0.0130 -0.3299 -0.0197
  502loPI   PO4 8020   3.677  15.475  11.201 -0.2187  0.0617  0.0656
  502loPI   GL1 8021   3.643  15.281  10.823  0.2937  0.0959 -0.4046
  502loPI   GL2 8022   3.787  14.982  10.643 -0.0471 -0.4689 -0.0479
  502loPI   C1A 8023   3.562  15.376  10.363 -0.0952 -0.0638  0.2157
  502loPI   C2A 8024   3.673  15.429  10.040  0.0329  0.1155 -0.0878
  502loPI   C3A 8025   3.712  15.431   9.678  0.2691  0.0009 -0.1567
  502loPI   C4A 8026   3.702  15.338   9.308  0.2092  0.0982 -0.0946
  502loPI   C5A 8027   3.769  15.503   8.971  0.0606 -0.2360 -0.0066
  502loPI   C6A 8028   3.783  15.669   8.536 -0.0036 -0.2582 -0.1173
  502loPI   C1B 8029   3.762  14.906  10.179 -0.3678 -0.1292  0.0476
  502loPI   C2B 8030   3.839  14.944   9.774  0.0803  0.3206  0.2073
  502loPI   C3B 8031   3.859  14.884   9.305  0.0940  0.0900 -0.1165
  502loPI   C4B 8032   3.914  15.036   8.873 -0.0477 -0.2216  0.1189
  503loPI    C1 8033  10.191   1.773  10.993 -0.1311 -0.1910 -0.0551
  503loPI    C2 8034  10.365   1.659  11.335  0.0090  0.1749  0.0003
  503loPI    C3 8035  10.128   1.981  11.329 -0.1510  0.0562 -0.2099
  503loPI   PO4 8036  10.103   1.514  10.865 -0.0733  0.0810  0.0300
  503loPI   GL1 8037  10.047   1.602  10.433 -0.1106 -0.0352  0.3229
  503loPI   GL2 8038  10.363   1.768  10.448 -0.2260 -0.2339 -0.1056
  503loPI   C1A 8039   9.883   1.565  10.010  0.1009 -0.0766  0.3986
  503loPI   C2A 8040   9.868   1.515   9.499 -0.3343  0.0886 -0.2526
  503loPI   C3A 8041   9.838   1.479   9.032  0.0784  0.1191 -0.2294
  503loPI   C4A 8042   9.599   1.473   8.624  0.1460 -0.1182  0.0792
  503loPI   C5A 8043   9.414   1.723   8.243  0.2156 -0.1350 -0.0024
  503loPI   C6A 8044   9.344   1.780   7.817 -0.0284  0.0483  0.1951
  503loPI   C1B 8045  10.307   1.913  10.103  0.0857  0.1579  0.3816
  503loPI   C2B 8046  10.266   1.765   9.720 -0.0824 -0.0640 -0.0682
  503loPI   C3B 8047  10.235   1.877   9.342 -0.0687 -0.1163 -0.1928
  503loPI   C4B 8048  10.260   1.814   8.871  0.0440  0.0030  0.0657
  504loPI    C1 8049   7.731   8.428  10.977  0.0357  0.1402 -0.0233
  504loPI    C2 8050   7.653   8.598  11.331  0.1622  0.2632 -0.0536
  504loPI    C3 8051   7.950   8.739  11.102  0.2363  0.0325 -0.1018
  504loPI   PO4 8052   7.534   8.434  10.863 -0.2260 -0.1953 -0.1627
  504loPI   GL1 8053   7.180   8.623  10.543  0.0743  0.2781  0.0706
  504loPI   GL2 8054   7.259   8.906  10.424  0.1513  0.0001  0.0271
  504loPI   C1A 8055   6.936   8.604  10.168  0.1616  0.3674 -0.2270
  504loPI   C2A 8056   6.935   8.654   9.721  0.1722 -0.1630 -0.0811
  504loPI   C3A 8057   6.994   8.500   9.334 -0.0862 -0.0587  0.0071
  504loPI   C4A 8058   6.919   8.405   8.953  0.1966 -0.2855  0.3150
  504loPI   C5A 8059   7.121   8.579   8.592  0.0508 -0.3408  0.1947
  504loPI   C6A 8060   7.197   8.739   8.265  0.3651  0.3595  0.0993
  504loPI   C1B 8061   7.321   8.951  10.004 -0.0432  0.1217  0.3485
  504loPI   C2B 8062   7.349   8.974   9.492  0.1208  0.6550  0.1417
  504loPI   C3B 8063   7.276   8.829   9.018 -0.4330 -0.3973 -0.0232
  504loPI   C4B 8064   7.486   8.915   8.709  0.3632 -0.1015 -0.0964
  505loPI    C1 8065   5.495   8.969  11.374  0.1845 -0.0645 -0.1468
  505loPI    C2 8066   5.371   8.697  11.640 -0.1019  0.3102  0.1132
  505loPI    C3 8067   5.661   8.955  11.737  0.1821  0.0929 -0.1389
  505loPI   PO4 8068   5.540   8.809  11.138 -0.2208 -0.1698  0.3137
  505loPI   GL1 8069   5.412   8.626  10.791  0.3067 -0.0283 -0.1394
  505loPI   GL2 8070   5.173   8.710  10.573  0.0826 -0.2461  0.3450
  505loPI   C1A 8071   5.713   8.547  10.383  0.1538  0.0825 -0.0051
  505loPI   C2A 8072   5.602   8.555   9.931 -0.0586  0.1593  0.1038
  505loPI   C3A 8073   5.620   8.595   9.471  0.1265  0.1440  0.0912
  505loPI   C4A 8074   5.613   8.639   9.110 -0.1364  0.0687 -0.4346
  505loPI   C5A 8075   5.592   8.451   8.762 -0.1157 -0.0885 -0.0681
  505loPI   C6A 8076   5.414   8.579   8.343 -0.2467 -0.1727 -0.0836
  505loPI   C1B 8077   5.173   8.649  10.170 -0.0610 -0.1515  0.0498
  505loPI   C2B 8078   5.141   8.650   9.669 -0.1074 -0.0564  0.0147
  505loPI   C3B 8079   5.111   8.689   9.254 -0.0509 -0.1416 -0.0409
  505loPI   C4B 8080   5.102   8.674   8.781  0.0636  0.0008  0.1431
  506loPI    C1 8081  11.166  12.813  10.970 -0.0292  0.1483  0.0930
  506loPI    C2 8082  10.999  12.982  11.292 -0.1206 -0.0295  0.1403
  506loPI    C3 8083  11.040  12.584  11.274 -0.0897 -0.0183 -0.0555
  506loPI   PO4 8084  11.055  12.843  10.778 -0.1543 -0.2372 -0.1130
  506loPI   GL1 8085  10.769  13.012  10.507 -0.2899 -0.2553 -0.0960
  506loPI   GL2 8086  10.489  12.853  10.536 -0.2050  0.0014 -0.0154
  506loPI   C1A 8087  10.939  12.858  10.131  0.0380  0.2029  0.2459
  506loPI   C2A 8088  11.047  12.954   9.693  0.0211  0.1571  0.1047
  506loPI   C3A 8089  11.143  13.016   9.253 -0.1892 -0.1764 -0.0872
  506loPI   C4A 8090  11.287  13.158   8.888  0.1036  0.0538  0.1299
  506loPI   C5A 8091  11.353  13.073   8.513  0.2070 -0.1690  0.2669
  506loPI   C6A 8092  11.582  13.057   8.209 -0.1782  0.2382  0.1478
  506loPI   C1B 8093  10.399  12.893  10.105  0.1542  0.0472 -0.0997
  506loPI   C2B 8094  10.269  12.804   9.599  0.1728 -0.1612  0.2189
  506loPI   C3B 8095  10.279  12.819   9.150 -0.1502  0.0025 -0.1486
  506loPI   C4B 8096  10.329  12.769   8.672 -0.2866  0.1370  0.0094
  507loPI    C1 8097   6.913  15.372  11.477 -0.1610  0.0547  0.0758
  507loPI    C2 8098   7.053  15.742  11.536 -0.1304  0.0494  0.0363
  507loPI    C3 8099   6.941  15.519  11.848 -0.2314  0.1238  0.0539
  507loPI   PO4 8100   6.791  15.325  11.280  0.2518  0.3068  0.1413
  507loPI   GL1 8101   6.673  15.345  10.837  0.5388 -0.0841 -0.1623
  507loPI   GL2 8102   6.408  15.323  10.599  0.2862  0.0280 -0.6313
  507loPI   C1A 8103   6.885  15.224  10.335  0.0103  0.1374  0.0802
  507loPI   C2A 8104   6.924  15.270   9.938 -0.0253 -0.3460 -0.4509
  507loPI   C3A 8105   6.971  15.262   9.575  0.0425 -0.2499 -0.0937
  507loPI   C4A 8106   6.969  15.267   9.191 -0.3722  0.1820  0.0464
  507loPI   C5A 8107   6.908  15.161   8.783 -0.0876 -0.1917 -0.2229
  507loPI   C6A 8108   6.803  14.778   8.628  0.1007  0.1690  0.2567
  507loPI   C1B 8109   6.373  15.446  10.207  0.1352 -0.0437  0.0771
  507loPI   C2B 8110   6.394  15.490   9.792 -0.1981  0.2236 -0.3497
  507loPI   C3B 8111   6.514  15.427   9.359 -0.0339 -0.3281 -0.0274
  507loPI   C4B 8112   6.510  15.465   8.891 -0.0245  0.0974 -0.0906
  508loPI    C1 8113   5.940   6.141  11.449  0.0012 -0.1192  0.0830
  508loPI    C2 8114   5.789   6.094  11.817 -0.0731  0.0009  0.0685
  508loPI    C3 8115   5.911   6.455  11.696 -0.0822 -0.0311 -0.0376
  508loPI   PO4 8116   5.856   6.009  11.290  0.1801 -0.0701  0.0758
  508loPI   GL1 8117   5.707   5.856  10.882  0.4834 -0.0352 -0.3600
  508loPI   GL2 8118   6.028   5.651  10.867  0.0518  0.2496 -0.3624
  508loPI   C1A 8119   5.581   6.110  10.553 -0.2631  0.0954  0.0617
  508loPI   C2A 8120   5.650   6.094  10.100  0.0591  0.2084  0.0472
  508loPI   C3A 8121   5.706   6.125   9.724  0.1746  0.0068  0.0371
  508loPI   C4A 8122   5.739   6.241   9.276 -0.0359 -0.2438 -0.0785
  508loPI   C5A 8123   5.711   6.250   8.855  0.1485 -0.0693  0.4111
  508loPI   C6A 8124   5.442   6.236   8.529  0.1796  0.0196  0.0862
  508loPI   C1B 8125   6.252   5.526  10.502  0.1711 -0.2437 -0.2491
  508loPI   C2B 8126   6.256   5.455  10.123  0.0741  0.3447  0.2968
  508loPI   C3B 8127   6.305   5.450   9.715  0.0399  0.2058 -0.0974
  508loPI   C4B 8128   6.246   5.505   9.231  0.0459  0.2859 -0.2359
  509loPI    C1 8129   7.959   4.769  11.137 -0.2271  0.2967  0.1340
  509loPI    C2 8130   8.139   4.917  11.462  0.0856  0.1161  0.0471
  509loPI    C3 8131   8.358   4.757  11.167 -0.2167 -0.0687 -0.0814
  509loPI   PO4 8132   7.784   4.953  11.075  0.3642 -0.2259 -0.2060
  509loPI   GL1 8133   7.835   4.996  10.696 -0.0535 -0.3774 -0.1167
  509loPI   GL2 8134   8.051   5.239  10.476  0.1758 -0.0336 -0.2287
  509loPI   C1A 8135   7.684   4.987  10.260 -0.0903 -0.1379  0.2151
  509loPI   C2A 8136   7.727   5.087   9.858  0.2688 -0.0549  0.2448
  509loPI   C3A 8137   7.716   5.014   9.352  0.0788  0.1132  0.0238
  509loPI   C4A 8138   7.756   5.022   8.925  0.3160  0.0114  0.0811
  509loPI   C5A 8139   7.610   5.110   8.525  0.0971 -0.0474  0.2159
  509loPI   C6A 8140   7.303   5.269   8.334 -0.0205  0.0199  0.1067
  509loPI   C1B 8141   8.097   5.364  10.051  0.2340 -0.1231  0.1747
  509loPI   C2B 8142   8.054   5.336   9.610  0.0501 -0.0005 -0.0818
  509loPI   C3B 8143   8.120   5.363   9.204  0.2637 -0.0949 -0.1332
  509loPI   C4B 8144   8.049   5.301   8.713  0.2243 -0.0747 -0.1469
  510loPI    C1 8145  11.130   3.881  10.951  0.0509  0.0954  0.0884
  510loPI    C2 8146  11.086   3.555  11.179 -0.2042  0.2468  0.2608
  510loPI    C3 8147  11.185   3.904  11.347 -0.0026  0.2761  0.0861
  510loPI   PO4 8148  11.291   3.891  10.781  0.0046 -0.2562 -0.0245
  510loPI   GL1 8149  11.268   3.647  10.466 -0.1328 -0.0372  0.0821
  510loPI   GL2 8150  10.943   3.605  10.547  0.2295  0.0994  0.1935
  510loPI   C1A 8151  11.319   3.424  10.125 -0.2715  0.0195 -0.2456
  510loPI   C2A 8152  11.336   3.411   9.650 -0.0674 -0.1451  0.0467
  510loPI   C3A 8153  11.320   3.344   9.236 -0.2209 -0.3822 -0.1806
  510loPI   C4A 8154  11.294   3.480   8.758  0.3328 -0.0944  0.1319
  510loPI   C5A 8155  11.369   3.210   8.469  0.0740  0.1638 -0.4842
  510loPI   C6A 8156  11.098   3.066   8.154  0.3974 -0.7879 -0.0568
  510loPI   C1B 8157  10.782   3.548  10.127  0.4403 -0.2333  0.1336
  510loPI   C2B 8158  10.838   3.574   9.757 -0.2372 -0.0257  0.1548
  510loPI   C3B 8159  10.785   3.495   9.359  0.2806  0.0656  0.1028
  510loPI   C4B 8160  10.786   3.496   8.872  0.2301  0.1196  0.1493
  511loPI    C1 8161   6.174  17.149  11.524 -0.2329  0.1763  0.2585
  511loPI    C2 8162   6.371  17.413  11.750  0.0054  0.0457  0.2069
  511loPI    C3 8163   6.136  17.139  11.922  0.2122 -0.0749  0.3011
  511loPI   PO4 8164   6.249  17.181  11.333  0.0538  0.0171 -0.2348
  511loPI   GL1 8165   5.976  17.365  11.021 -0.1688  0.0471  0.2851
  511loPI   GL2 8166   5.682  17.563  10.968 -0.0321  0.2603  0.1614
  511loPI   C1A 8167   6.017  17.480  10.605 -0.1049  0.0222  0.0760
  511loPI   C2A 8168   6.059  17.450  10.167 -0.1584 -0.1635 -0.5511
  511loPI   C3A 8169   6.034  17.487   9.706 -0.1123 -0.0867  0.1683
  511loPI   C4A 8170   6.098  17.449   9.189 -0.0492  0.2749 -0.1067
  511loPI   C5A 8171   6.053  17.449   8.867 -0.0482 -0.1717  0.3570
  511loPI   C6A 8172   6.236  17.096   8.747  0.0091  0.0386  0.4294
  511loPI   C1B 8173   5.465  17.662  10.661 -0.0626  0.0127 -0.3473
  511loPI   C2B 8174   5.597  17.635  10.310  0.2498 -0.2147 -0.1093
  511loPI   C3B 8175   5.573  17.619   9.870 -0.3160  0.0119 -0.0318
  511loPI   C4B 8176   5.610  17.607   9.416  0.0066 -0.1143 -0.0786
  512loPI    C1 8177   9.495   8.338  10.609 -0.1073  0.1930 -0.0811
  512loPI    C2 8178   9.639   8.200  10.955  0.1395  0.0640 -0.2321
  512loPI    C3 8179   9.331   8.456  10.954  0.0929  0.0134  0.0776
  512loPI   PO4 8180   9.551   8.058  10.437  0.1547  0.1026 -0.2125
  512loPI   GL1 8181   9.397   8.016  10.076  0.0909  0.0160  0.1303
  512loPI   GL2 8182   9.700   8.138   9.951 -0.0640  0.0895  0.0141
  512loPI   C1A 8183   9.107   8.008   9.751 -0.0199 -0.0654  0.0184
  512loPI   C2A 8184   9.005   8.049   9.398  0.1390  0.2853  0.0156
  512loPI   C3A 8185   8.985   7.902   8.961 -0.2673 -0.1612 -0.0163
  512loPI   C4A 8186   9.032   7.860   8.498  0.2261  0.0819  0.0134
  512loPI   C5A 8187   9.156   7.792   8.138 -0.2134  0.1843 -0.1370
  512loPI   C6A 8188   9.305   7.451   7.837  0.2185  0.0751 -0.1311
  512loPI   C1B 8189   9.779   8.285   9.510  0.0229  0.1050  0.1298
  512loPI   C2B 8190   9.882   8.347   9.150  0.0131 -0.1327  0.1415
  512loPI   C3B 8191   9.860   8.443   8.738 -0.1148 -0.0423 -0.1728
  512loPI   C4B 8192   9.870   8.552   8.262 -0.0220  0.1756  0.1663
  513loPI    C1 8193  10.365  13.852  11.014 -0.1463 -0.0209 -0.0262
  513loPI    C2 8194  10.203  13.991  11.352  0.0605 -0.1402  0.1242
  513loPI    C3 8195  10.571  13.833  11.357  0.0328 -0.2171 -0.1419
  513loPI   PO4 8196  10.384  14.090  10.869 -0.0501 -0.0251 -0.1773
  513loPI   GL1 8197  10.496  14.196  10.550 -0.4499 -0.4049 -0.0209
  513loPI   GL2 8198  10.475  14.612  10.495 -0.2172 -0.2924 -0.0998
  513loPI   C1A 8199  10.505  14.178  10.077  0.1984 -0.3299 -0.2660
  513loPI   C2A 8200  10.522  14.222   9.618  0.0981 -0.1904 -0.0802
  513loPI   C3A 8201  10.519  14.293   9.256 -0.0457 -0.0254  0.0216
  513loPI   C4A 8202  10.522  14.196   8.811  0.1070 -0.1639  0.2110
  513loPI   C5A 8203  10.611  13.880   8.627  0.1927 -0.0839  0.3335
  513loPI   C6A 8204  10.418  13.449   8.465 -0.1189 -0.2567 -0.0113
  513loPI   C1B 8205  10.441  14.679  10.053  0.0434  0.2194 -0.0828
  513loPI   C2B 8206  10.358  14.726   9.548 -0.1634 -0.2583  0.0371
  513loPI   C3B 8207  10.380  14.715   9.053 -0.0908  0.0048  0.3294
  513loPI   C4B 8208  10.537  14.708   8.708 -0.4436 -0.2563  0.0952
  514loPI    C1 8209  10.832  15.600  11.073 -0.2573 -0.0997  0.0679
  514loPI    C2 8210  10.699  15.596  11.451 -0.0165 -0.1628  0.1538
  514loPI    C3 8211  11.036  15.793  11.358 -0.0248 -0.2244 -0.0111
  514loPI   PO4 8212  10.866  15.434  10.997  0.1679 -0.1438 -0.3419
  514loPI   GL1 8213  10.628  15.508  10.555 -0.0940  0.0997  0.0230
  514loPI   GL2 8214  10.876  15.626  10.557 -0.0460  0.0867 -0.2668
  514loPI   C1A 8215  10.534  15.957  10.303  0.2614  0.2718  0.2175
  514loPI   C2A 8216  10.539  16.154   9.848  0.1017 -0.0798 -0.0173
  514loPI   C3A 8217  10.579  16.111   9.438  0.0432 -0.1329  0.2987
  514loPI   C4A 8218  10.582  16.111   8.992  0.0591  0.1177 -0.1424
  514loPI   C5A 8219  10.631  16.028   8.513  0.1131 -0.1137  0.1410
  514loPI   C6A 8220  10.583  16.280   8.113  0.1745 -0.0022 -0.0220
  514loPI   C1B 8221  10.627  15.555  10.079 -0.2523 -0.2499 -0.0524
  514loPI   C2B 8222  10.570  15.525   9.667  0.1684 -0.1095  0.2123
  514loPI   C3B 8223  10.640  15.570   9.275  0.1197 -0.0348 -0.3878
  514loPI   C4B 8224  10.745  15.568   8.842 -0.1919 -0.0449  0.0584
  515loPI    C1 8225   9.678   2.077  11.410  0.0760  0.2918  0.1238
  515loPI    C2 8226   9.384   2.200  11.651 -0.0129 -0.0889  0.2167
  515loPI    C3 8227   9.743   2.113  11.803 -0.0233 -0.1801  0.1892
  515loPI   PO4 8228   9.700   2.256  11.232  0.0357  0.0385 -0.0385
  515loPI   GL1 8229   9.916   2.265  10.918 -0.1546  0.0505 -0.0504
  515loPI   GL2 8230   9.730   1.988  10.674 -0.1029 -0.1884 -0.0457
  515loPI   C1A 8231   9.739   2.515  10.487  0.0906  0.0172 -0.0398
  515loPI   C2A 8232   9.626   2.460  10.090 -0.0253 -0.2382  0.1105
  515loPI   C3A 8233   9.669   2.544   9.627 -0.1074 -0.1913 -0.0158
  515loPI   C4A 8234   9.685   2.429   9.118 -0.1844  0.0451  0.1116
  515loPI   C5A 8235   9.491   2.498   8.716  0.0721 -0.0303  0.1872
  515loPI   C6A 8236   9.110   2.662   8.575  0.2000  0.0731  0.0419
  515loPI   C1B 8237   9.785   2.041  10.277 -0.0655  0.0986  0.0575
  515loPI   C2B 8238   9.909   2.070   9.840  0.3681 -0.0652  0.1443
  515loPI   C3B 8239   9.773   2.088   9.460  0.1436 -0.0840  0.1428
  515loPI   C4B 8240   9.813   1.991   9.038 -0.1543  0.1794  0.0512
  516loPI    C1 8241   6.780  12.123  11.171  0.0615 -0.1599 -0.0989
  516loPI    C2 8242   6.839  12.431  11.418  0.1434  0.0189 -0.3375
  516loPI    C3 8243   6.474  12.271  11.382  0.1367 -0.0274 -0.0820
  516loPI   PO4 8244   6.856  12.242  10.981 -0.0316 -0.0102 -0.0986
  516loPI   GL1 8245   6.948  12.289  10.562  0.1816 -0.1151  0.2380
  516loPI   GL2 8246   7.218  12.098  10.667 -0.2294 -0.0059  0.1758
  516loPI   C1A 8247   7.019  12.351  10.282 -0.0460  0.0109 -0.1676
  516loPI   C2A 8248   7.078  12.391   9.754 -0.0804 -0.0547 -0.0640
  516loPI   C3A 8249   7.040  12.399   9.275 -0.1402 -0.1713 -0.0329
  516loPI   C4A 8250   6.989  12.370   8.767 -0.0716  0.1596 -0.1118
  516loPI   C5A 8251   7.006  12.187   8.367  0.2880 -0.0253 -0.1075
  516loPI   C6A 8252   6.954  11.776   8.149  0.0671  0.0559 -0.3931
  516loPI   C1B 8253   7.200  11.926  10.215  0.0906  0.3482  0.1409
  516loPI   C2B 8254   7.191  11.889   9.754 -0.1325 -0.2140 -0.3241
  516loPI   C3B 8255   7.137  11.867   9.195  0.0753  0.2663  0.0035
  516loPI   C4B 8256   7.096  11.858   8.700 -0.2331  0.0023 -0.0718
  517loPI    C1 8257   5.347  14.046  11.210 -0.0887  0.2740  0.3093
  517loPI    C2 8258   4.980  14.003  11.363 -0.0530 -0.1356  0.2912
  517loPI    C3 8259   5.293  13.827  11.540  0.1060  0.0444  0.1931
  517loPI   PO4 8260   5.367  14.040  10.927  0.0586 -0.2507  0.3030
  517loPI   GL1 8261   5.284  14.297  10.581  0.0093 -0.0883  0.2454
  517loPI   GL2 8262   5.044  14.080  10.521 -0.0855 -0.0639  0.0562
  517loPI   C1A 8263   5.209  14.376  10.122  0.1331 -0.2191 -0.0866
  517loPI   C2A 8264   5.266  14.391   9.628 -0.3306 -0.1131 -0.2930
  517loPI   C3A 8265   5.360  14.382   9.248  0.1387 -0.0706 -0.1057
  517loPI   C4A 8266   5.399  14.558   8.849 -0.2698 -0.1010 -0.0339
  517loPI   C5A 8267   5.513  14.329   8.481  0.1876 -0.2503 -0.1020
  517loPI   C6A 8268   5.729  14.167   8.075 -0.0357  0.0404 -0.0371
  517loPI   C1B 8269   4.896  14.040  10.080 -0.0580 -0.2462  0.1783
  517loPI   C2B 8270   4.944  14.034   9.636  0.3520  0.1483  0.2139
  517loPI   C3B 8271   5.034  14.029   9.262  0.1896  0.0765 -0.2556
  517loPI   C4B 8272   5.080  14.145   8.786  0.1325  0.0236 -0.0943
  518loPI    C1 8273   7.995  16.501  11.534 -0.2350  0.0396 -0.0017
  518loPI    C2 8274   8.303  16.256  11.608 -0.2205  0.0296 -0.0933
  518loPI    C3 8275   7.933  16.150  11.717 -0.1630  0.1408  0.2209
  518loPI   PO4 8276   8.022  16.542  11.250  0.0268  0.1664 -0.1277
  518loPI   GL1 8277   7.888  16.572  10.888 -0.0447 -0.0296  0.1172
  518loPI   GL2 8278   8.308  16.704  10.741 -0.0580  0.1719  0.0411
  518loPI   C1A 8279   7.892  16.794  10.481  0.2944  0.0128 -0.1133
  518loPI   C2A 8280   8.125  16.806  10.142  0.3786 -0.2200  0.2926
  518loPI   C3A 8281   8.021  16.810   9.697 -0.0234  0.0805 -0.2790
  518loPI   C4A 8282   8.004  16.833   9.206 -0.0367 -0.0171 -0.0303
  518loPI   C5A 8283   8.144  16.800   8.757 -0.1257  0.0373 -0.2461
  518loPI   C6A 8284   7.974  17.092   8.564  0.0202  0.0832  0.1767
  518loPI   C1B 8285   8.538  16.670  10.324  0.1897  0.0069 -0.0870
  518loPI   C2B 8286   8.517  16.690   9.838 -0.3049  0.1472 -0.2210
  518loPI   C3B 8287   8.470  16.727   9.384 -0.0563  0.0684 -0.0633
  518loPI   C4B 8288   8.594  16.743   8.999  0.1131  0.1645  0.2136
  519loPI    C1 8289  11.773   6.213  10.712 -0.2532 -0.0947  0.2904
  519loPI    C2 8290  12.033   6.257  11.013 -0.2260 -0.1529  0.2757
  519loPI    C3 8291  11.716   6.499  10.986 -0.0143  0.1143  0.1262
  519loPI   PO4 8292  11.917   6.024  10.500 -0.1382  0.1193  0.2633
  519loPI   GL1 8293  11.982   6.123   9.959 -0.0198 -0.2333 -0.2843
  519loPI   GL2 8294  11.738   6.168   9.855 -0.0149 -0.0246 -0.1069
  519loPI   C1A 8295  12.242   6.063   9.619  0.3741  0.2067 -0.4008
  519loPI   C2A 8296  12.280   6.007   9.245  0.0454  0.1734 -0.2155
  519loPI   C3A 8297  12.247   5.967   8.848 -0.1195  0.2210  0.1848
  519loPI   C4A 8298  12.325   6.044   8.487 -0.1704  0.0070 -0.0718
  519loPI   C5A 8299  11.966   6.027   8.229  0.1435  0.1553  0.0771
  519loPI   C6A 8300  11.774   6.431   8.164  0.1081 -0.0494 -0.0810
  519loPI   C1B 8301  11.780   6.190   9.471 -0.3271 -0.0881  0.0848
  519loPI   C2B 8302  11.782   6.085   9.123  0.1954 -0.1843 -0.0975
  519loPI   C3B 8303  11.767   6.102   8.679  0.1501  0.3067 -0.1544
  519loPI   C4B 8304  12.028   6.452   8.564 -0.0659 -0.0977  0.0792
  520loPI    C1 8305  10.061   2.454  11.563  0.0642  0.0580 -0.1061
  520loPI    C2 8306  10.006   2.841  11.649  0.2977  0.1123 -0.1947
  520loPI    C3 8307   9.912   2.561  11.918  0.3399  0.2426 -0.0433
  520loPI   PO4 8308  10.270   2.476  11.283  0.0393  0.0425  0.0695
  520loPI   GL1 8309  10.205   2.648  10.827 -0.1154  0.1306  0.1038
  520loPI   GL2 8310  10.510   2.724  10.616 -0.0653  0.1219  0.0873
  520loPI   C1A 8311  10.075   2.884  10.334  0.0711  0.2045 -0.1201
  520loPI   C2A 8312  10.021   2.844   9.878  0.0055 -0.3527  0.2839
  520loPI   C3A 8313  10.018   2.892   9.483 -0.5805 -0.0986  0.0482
  520loPI   C4A 8314  10.060   2.814   9.067  0.0773 -0.1464  0.0702
  520loPI   C5A 8315   9.970   2.786   8.666 -0.0371 -0.0001 -0.1759
  520loPI   C6A 8316   9.841   2.478   8.372  0.1889 -0.0396 -0.1789
  520loPI   C1B 8317  10.570   2.719  10.166  0.1256 -0.0089  0.0518
  520loPI   C2B 8318  10.641   2.687   9.723  0.0108  0.0302 -0.0315
  520loPI   C3B 8319  10.536   2.708   9.357 -0.0456 -0.0942 -0.1337
  520loPI   C4B 8320  10.528   2.655   8.954 -0.1491  0.0915 -0.0316
  521loPI    C1 8321  11.501   8.994  10.595 -0.1949  0.2153 -0.0033
  521loPI    C2 8322  11.603   8.746  10.892 -0.2507 -0.0430 -0.1973
  521loPI    C3 8323  11.239   8.912  10.886 -0.1838  0.1127 -0.0216
  521loPI   PO4 8324  11.692   8.807  10.388 -0.0952  0.0410  0.1362
  521loPI   GL1 8325  11.395   8.810  10.009  0.0636  0.0149 -0.0313
  521loPI   GL2 8326  11.240   8.540  10.077  0.0550 -0.0188 -0.1253
  521loPI   C1A 8327  11.399   8.723   9.544  0.2056  0.0599  0.0425
  521loPI   C2A 8328  11.306   8.762   9.106  0.1488  0.0335 -0.3554
  521loPI   C3A 8329  11.321   8.725   8.640  0.3178 -0.0336  0.4058
  521loPI   C4A 8330  11.200   8.687   8.219 -0.2375 -0.1718  0.1757
  521loPI   C5A 8331  11.087   8.916   7.788 -0.0729  0.2250  0.0802
  521loPI   C6A 8332  11.252   9.299   7.639  0.0167  0.2534 -0.2213
  521loPI   C1B 8333  11.311   8.230   9.682 -0.1742 -0.0212  0.1997
  521loPI   C2B 8334  11.238   8.282   9.211 -0.1016 -0.0257 -0.0961
  521loPI   C3B 8335  11.188   8.264   8.746 -0.1533  0.0772 -0.1122
  521loPI   C4B 8336  11.120   8.101   8.332 -0.1670  0.2598  0.0523
  522loPI    C1 8337  15.021  15.800  11.356 -0.0716  0.1918 -0.0081
  522loPI    C2 8338  14.724  16.014  11.194 -0.0451  0.1664 -0.0912
  522loPI    C3 8339  14.840  16.086  11.570 -0.2690  0.0630 -0.0002
  522loPI   PO4 8340  15.136  15.752  11.145  0.1625 -0.1790 -0.2236
  522loPI   GL1 8341  15.025  15.983  10.782 -0.1557  0.4378  0.1196
  522loPI   GL2 8342  14.814  15.712  10.720 -0.2557  0.3123  0.0674
  522loPI   C1A 8343  15.037  16.040  10.339 -0.1978 -0.0305  0.0483
  522loPI   C2A 8344  15.219  15.987   9.953  0.1455 -0.2952 -0.0647
  522loPI   C3A 8345  15.221  15.984   9.432 -0.1399 -0.0665 -0.1930
  522loPI   C4A 8346  15.259  15.939   8.951 -0.1549  0.0488  0.0627
  522loPI   C5A 8347  15.402  15.605   8.555  0.2858 -0.0425 -0.0082
  522loPI   C6A 8348  15.501  15.569   8.116  0.0309  0.0997 -0.1808
  522loPI   C1B 8349  14.628  15.686  10.264  0.2272 -0.0232  0.1005
  522loPI   C2B 8350  14.779  15.713   9.834  0.0267 -0.0678  0.0940
  522loPI   C3B 8351  14.822  15.676   9.401  0.2795  0.0658  0.2024
  522loPI   C4B 8352  14.851  15.636   8.982  0.0801  0.1745 -0.0120
  523loPI    C1 8353  13.136   0.136  11.113 -0.2618  0.0353  0.0913
  523loPI    C2 8354  13.269  -0.093  10.813 -0.0233  0.0757  0.1641
  523loPI    C3 8355  13.202  -0.253  11.174 -0.2328  0.0435  0.1125
  523loPI   PO4 8356  12.876   0.369  11.000  0.2983 -0.0754  0.2082
  523loPI   GL1 8357  12.826   0.445  10.536  0.0960 -0.1273  0.1048
  523loPI   GL2 8358  12.996   0.126  10.443 -0.0136 -0.0715  0.0999
  523loPI   C1A 8359  12.839   0.542  10.098 -0.0781 -0.1648  0.0025
  523loPI   C2A 8360  12.896   0.600   9.562 -0.0335 -0.2812  0.1288
  523loPI   C3A 8361  12.942   0.502   9.072 -0.0710 -0.1475  0.0633
  523loPI   C4A 8362  12.823   0.414   8.620 -0.0063  0.0253  0.2395
  523loPI   C5A 8363  12.860   0.099   8.340  0.2075 -0.1908 -0.1427
  523loPI   C6A 8364  13.163  -0.197   8.228  0.5273  0.0927  0.1884
  523loPI   C1B 8365  12.901   0.033   9.995 -0.1154 -0.0903 -0.0840
  523loPI   C2B 8366  12.875  -0.014   9.617  0.1490 -0.0370 -0.0118
  523loPI   C3B 8367  12.993  -0.032   9.189  0.2469 -0.1706 -0.1294
  523loPI   C4B 8368  13.080   0.005   8.788  0.0474  0.1287  0.4196
  524loPI    C1 8369   8.389   5.311  11.057 -0.0094  0.1739 -0.0567
  524loPI    C2 8370   8.249   5.504  11.379  0.0191  0.0576  0.0261
  524loPI    C3 8371   8.550   5.243  11.417  0.0924  0.1207 -0.1118
  524loPI   PO4 8372   8.235   5.152  10.943 -0.0539 -0.2121  0.2781
  524loPI   GL1 8373   8.284   4.869  10.675  0.2254 -0.0309  0.0780
  524loPI   GL2 8374   8.558   4.828  10.596 -0.2155 -0.0162  0.1909
  524loPI   C1A 8375   8.265   4.882  10.225 -0.2096 -0.0210  0.2241
  524loPI   C2A 8376   8.200   4.824   9.821  0.1515 -0.0801 -0.3497
  524loPI   C3A 8377   8.194   4.876   9.342 -0.0179  0.0151  0.2076
  524loPI   C4A 8378   8.293   4.854   8.980 -0.2790 -0.2270 -0.2580
  524loPI   C5A 8379   8.369   4.777   8.504  0.4142 -0.0877 -0.2930
  524loPI   C6A 8380   8.676   4.856   8.296 -0.1191  0.1886 -0.0967
  524loPI   C1B 8381   8.702   4.754  10.157 -0.2176  0.1534 -0.0339
  524loPI   C2B 8382   8.721   4.672   9.710  0.1237 -0.0775 -0.2249
  524loPI   C3B 8383   8.759   4.693   9.224 -0.0212  0.1296 -0.1846
  524loPI   C4B 8384   8.798   4.646   8.781  0.1178 -0.5772  0.2328
  525loPI    C1 8385  10.110   3.391  11.325 -0.2446  0.3593  0.0949
  525loPI    C2 8386   9.995   3.372  11.708 -0.1318  0.1810  0.1210
  525loPI    C3 8387  10.384   3.356  11.615 -0.1533  0.3162  0.0039
  525loPI   PO4 8388   9.928   3.256  11.221 -0.2578 -0.1551 -0.0856
  525loPI   GL1 8389   9.806   3.380  10.791 -0.0967  0.2678  0.2119
  525loPI   GL2 8390   9.826   3.003  10.720 -0.2169  0.3184 -0.2187
  525loPI   C1A 8391  10.004   3.374  10.372  0.1902 -0.0051 -0.0005
  525loPI   C2A 8392   9.901   3.325   9.950  0.2392 -0.4069 -0.1942
  525loPI   C3A 8393   9.955   3.365   9.489 -0.0682  0.1460 -0.0784
  525loPI   C4A 8394   9.820   3.263   9.136  0.1639 -0.2908 -0.1097
  525loPI   C5A 8395   9.806   3.344   8.667 -0.0960  0.0457 -0.0802
  525loPI   C6A 8396   9.602   3.504   8.204  0.1323  0.0775 -0.0124
  525loPI   C1B 8397   9.609   3.063  10.292  0.0815  0.2843  0.0469
  525loPI   C2B 8398   9.584   2.948   9.882 -0.0180 -0.0353 -0.1290
  525loPI   C3B 8399   9.526   2.952   9.429 -0.1862  0.0992  0.0283
  525loPI   C4B 8400   9.528   2.940   8.956  0.1722 -0.0697 -0.0636
  526loPI    C1 8401  11.883   1.351  11.041 -0.0121 -0.0837  0.2415
  526loPI    C2 8402  11.858   1.709  11.218 -0.0159  0.0170  0.0405
  526loPI    C3 8403  12.209   1.517  11.203 -0.0032  0.0351  0.1043
  526loPI   PO4 8404  11.827   1.381  10.805  0.0533  0.1830  0.0386
  526loPI   GL1 8405  11.641   1.380  10.390 -0.3690 -0.1516  0.2286
  526loPI   GL2 8406  11.529   1.682  10.524 -0.0535  0.1914 -0.0142
  526loPI   C1A 8407  11.796   1.446   9.975  0.1148 -0.2352  0.0591
  526loPI   C2A 8408  11.717   1.422   9.560  0.1071 -0.1673  0.1195
  526loPI   C3A 8409  11.658   1.449   9.190 -0.0356  0.1905 -0.1174
  526loPI   C4A 8410  11.764   1.366   8.757 -0.0297 -0.1372  0.3349
  526loPI   C5A 8411  11.580   1.171   8.422  0.0970 -0.0851  0.0333
  526loPI   C6A 8412  11.339   0.846   8.322  0.4536  0.1541 -0.0816
  526loPI   C1B 8413  11.648   1.907  10.207  0.3268 -0.3039 -0.0997
  526loPI   C2B 8414  11.679   1.957   9.779  0.0700  0.0814  0.0000
  526loPI   C3B 8415  11.540   1.936   9.294 -0.0631  0.1364  0.2520
  526loPI   C4B 8416  11.556   1.852   8.939 -0.0459 -0.1317  0.1109
  527loPI    C1 8417  14.930   1.183  11.255  0.0454  0.0218 -0.0343
  527loPI    C2 8418  14.801   0.847  11.427  0.2225  0.0640  0.1853
  527loPI    C3 8419  15.179   0.965  11.479  0.2069  0.2112 -0.0265
  527loPI   PO4 8420  14.888   1.134  10.938 -0.3147  0.1407 -0.1451
  527loPI   GL1 8421  14.916   0.964  10.485 -0.0865  0.1154 -0.2573
  527loPI   GL2 8422  14.640   0.739  10.439  0.1698 -0.0206  0.1333
  527loPI   C1A 8423  15.119   1.121  10.152  0.0696 -0.2892  0.0213
  527loPI   C2A 8424  15.050   1.235   9.721  0.0128 -0.1225  0.2708
  527loPI   C3A 8425  14.984   1.269   9.246 -0.1508  0.0448 -0.2984
  527loPI   C4A 8426  15.141   1.376   8.857 -0.0948 -0.0631  0.2047
  527loPI   C5A 8427  14.944   1.631   8.598 -0.1851 -0.1479  0.0622
  527loPI   C6A 8428  14.730   1.935   8.416 -0.0216 -0.0694 -0.1516
  527loPI   C1B 8429  14.652   0.784   9.997 -0.1582 -0.0838  0.1450
  527loPI   C2B 8430  14.687   0.923   9.516  0.0103  0.2061  0.3761
  527loPI   C3B 8431  14.636   0.945   9.103 -0.0934  0.2033  0.0174
  527loPI   C4B 8432  14.720   1.030   8.710  0.0462 -0.1876  0.0504
  528loPI    C1 8433  15.179  16.346  11.320  0.0290  0.0332  0.0477
  528loPI    C2 8434  15.349  16.130  11.610  0.0135 -0.0183  0.0185
  528loPI    C3 8435  15.255  16.514  11.675 -0.0435 -0.0460  0.1011
  528loPI   PO4 8436  15.263  16.230  11.134  0.2249  0.0201 -0.1507
  528loPI   GL1 8437  15.510  16.327  10.870 -0.1043  0.0211  0.1698
  528loPI   GL2 8438  15.668  16.642  10.839  0.1356  0.0404  0.0798
  528loPI   C1A 8439  15.489  16.298  10.414 -0.2193 -0.1107  0.2526
  528loPI   C2A 8440  15.582  16.324  10.005 -0.0612  0.1185 -0.1142
  528loPI   C3A 8441  15.562  16.302   9.569 -0.2519 -0.3307  0.0066
  528loPI   C4A 8442  15.614  16.270   9.149 -0.0761 -0.1481  0.2398
  528loPI   C5A 8443  15.590  16.275   8.680 -0.1273  0.2505 -0.4477
  528loPI   C6A 8444  15.498  16.072   8.187  0.1574  0.2428  0.0895
  528loPI   C1B 8445  15.935  16.604  10.557 -0.0024  0.1750  0.1028
  528loPI   C2B 8446  15.951  16.684  10.158  0.0587  0.4213  0.0747
  528loPI   C3B 8447  15.936  16.677   9.771 -0.1608  0.0380  0.0933
  528loPI   C4B 8448  15.963  16.716   9.365  0.3148 -0.1937 -0.3399
  529loPI    C1 8449  17.222   6.014  11.722  0.2974  0.1783 -0.1209
  529loPI    C2 8450  17.214   5.975  12.120 -0.0175 -0.0010 -0.1413
  529loPI    C3 8451  17.201   6.339  11.955  0.0066  0.0695  0.0099
  529loPI   PO4 8452  17.441   5.790  11.704 -0.0540 -0.0894  0.1137
  529loPI   GL1 8453  17.450   5.624  11.334  0.0129  0.0275  0.2037
  529loPI   GL2 8454  17.738   5.463  11.370 -0.1640 -0.0900  0.2665
  529loPI   C1A 8455  17.337   5.724  10.793  0.0953 -0.0536  0.1531
  529loPI   C2A 8456  17.304   5.687  10.320  0.4041 -0.1703 -0.1656
  529loPI   C3A 8457  17.338   5.600   9.947 -0.0456 -0.4132  0.0972
  529loPI   C4A 8458  17.478   5.679   9.602  0.0190 -0.1871 -0.0786
  529loPI   C5A 8459  17.658   5.766   9.265  0.1592 -0.0322  0.1766
  529loPI   C6A 8460  17.425   5.796   8.844 -0.0131 -0.1691  0.2853
  529loPI   C1B 8461  18.019   5.598  10.962 -0.2532  0.0762 -0.2562
  529loPI   C2B 8462  17.794   5.571  10.567 -0.1919 -0.0715 -0.1067
  529loPI   C3B 8463  17.792   5.461  10.140 -0.3079  0.2479 -0.0200
  529loPI   C4B 8464  18.006   5.500   9.693  0.3293 -0.1189  0.0239
  530loPI    C1 8465  14.745   2.267  11.260  0.1344 -0.1582 -0.0541
  530loPI    C2 8466  14.470   2.117  11.509  0.1212  0.0514  0.0601
  530loPI    C3 8467  14.842   2.185  11.639  0.1070  0.1878  0.0312
  530loPI   PO4 8468  14.654   2.140  11.057 -0.1345  0.2961  0.2179
  530loPI   GL1 8469  14.712   2.179  10.613 -0.2081 -0.1773  0.0771
  530loPI   GL2 8470  14.438   1.964  10.684  0.0641  0.2387  0.1786
  530loPI   C1A 8471  14.789   2.314  10.201  0.0894 -0.3760 -0.0466
  530loPI   C2A 8472  14.791   2.373   9.739  0.0941  0.0611 -0.0381
  530loPI   C3A 8473  14.855   2.295   9.296 -0.3250  0.0189  0.0828
  530loPI   C4A 8474  14.880   2.242   8.873  0.2559  0.0285  0.3315
  530loPI   C5A 8475  15.141   2.051   8.648 -0.4677 -0.5292  0.0787
  530loPI   C6A 8476  15.298   1.874   8.278  0.0328 -0.2750  0.4064
  530loPI   C1B 8477  14.383   1.939  10.281  0.0135  0.0606 -0.4000
  530loPI   C2B 8478  14.363   2.041   9.765 -0.0736  0.0826  0.0611
  530loPI   C3B 8479  14.481   2.046   9.303 -0.1655  0.1584 -0.2685
  530loPI   C4B 8480  14.453   2.004   8.914  0.1243 -0.1317  0.1499
  531loPI    C1 8481   0.130   8.620  11.509 -0.0427  0.3086  0.1104
  531loPI    C2 8482   0.426   8.444  11.712 -0.1036  0.1223  0.0396
  531loPI    C3 8483   0.303   8.810  11.815  0.1990  0.2312  0.0244
  531loPI   PO4 8484   0.152   8.483  11.292  0.0306  0.0544 -0.0634
  531loPI   GL1 8485   0.390   8.569  10.898 -0.0884 -0.0301  0.2542
  531loPI   GL2 8486   0.436   8.903  10.874 -0.3436  0.1580  0.1205
  531loPI   C1A 8487   0.046   8.745  10.538  0.1475  0.2918 -0.1592
  531loPI   C2A 8488   0.096   8.873  10.156  0.5836  0.5925  0.1929
  531loPI   C3A 8489   0.089   8.994   9.705  0.0466  0.1154  0.0155
  531loPI   C4A 8490  -0.010   9.015   9.262  0.1157 -0.1941  0.0069
  531loPI   C5A 8491  -0.038   9.215   8.915  0.0843  0.1157  0.1587
  531loPI   C6A 8492  -0.041   9.567   8.775  0.1341 -0.0843 -0.2035
  531loPI   C1B 8493   0.546   8.760  10.427  0.0984  0.1644  0.3092
  531loPI   C2B 8494   0.539   8.730   9.955  0.0237 -0.1797  0.1025
  531loPI   C3B 8495   0.524   8.787   9.497  0.1178 -0.0102  0.1310
  531loPI   C4B 8496   0.380   8.785   9.054  0.1910  0.1131  0.1509
  532loPI    C1 8497  15.016   5.855  11.377  0.1732  0.0801 -0.2336
  532loPI    C2 8498  15.300   5.611  11.518  0.0578  0.1173  0.0705
  532loPI    C3 8499  14.964   5.458  11.365  0.0791  0.0809  0.0600
  532loPI   PO4 8500  15.116   6.000  11.242  0.0872  0.2496  0.1670
  532loPI   GL1 8501  15.282   6.079  10.875  0.0968  0.0279 -0.0443
  532loPI   GL2 8502  14.997   6.219  10.769 -0.1463  0.1066 -0.1253
  532loPI   C1A 8503  15.453   5.893  10.474 -0.0442  0.1744 -0.1341
  532loPI   C2A 8504  15.378   5.926  10.036 -0.1553  0.0112  0.0052
  532loPI   C3A 8505  15.546   5.757   9.611  0.1604 -0.0660 -0.1358
  532loPI   C4A 8506  15.597   5.914   9.104 -0.1157  0.1041 -0.0884
  532loPI   C5A 8507  15.565   5.777   8.668 -0.1471  0.0101  0.0262
  532loPI   C6A 8508  15.408   5.899   8.242 -0.0660  0.4833  0.1661
  532loPI   C1B 8509  14.974   5.991  10.409 -0.1318 -0.2245 -0.0228
  532loPI   C2B 8510  14.874   5.931   9.921  0.0734 -0.0826 -0.3873
  532loPI   C3B 8511  15.111   5.938   9.506 -0.0843 -0.0776  0.4947
  532loPI   C4B 8512  15.129   6.087   9.047  0.0064 -0.0884 -0.1913
  533loPI    C1 8513   5.222   5.131  11.161 -0.0072 -0.1590  0.1930
  533loPI    C2 8514   5.381   5.138  11.528 -0.1481 -0.0823  0.2532
  533loPI    C3 8515   5.165   5.448  11.397  0.1805  0.0383 -0.0209
  533loPI   PO4 8516   5.135   5.003  11.094  0.0226 -0.0798 -0.0802
  533loPI   GL1 8517   5.192   4.740  10.800 -0.2100  0.0826  0.0733
  533loPI   GL2 8518   5.612   4.764  10.723  0.2489 -0.2165  0.0174
  533loPI   C1A 8519   5.043   4.866  10.462 -0.1066 -0.3133  0.1162
  533loPI   C2A 8520   5.012   4.882  10.014 -0.4399  0.0044  0.3229
  533loPI   C3A 8521   4.982   4.931   9.540  0.1353  0.0641  0.0808
  533loPI   C4A 8522   4.964   4.955   9.084 -0.2901 -0.0958 -0.2573
  533loPI   C5A 8523   4.940   5.087   8.716  0.0102 -0.0266  0.2063
  533loPI   C6A 8524   4.903   5.327   8.377 -0.0513  0.2872  0.1539
  533loPI   C1B 8525   5.518   4.781  10.222  0.0190  0.0997 -0.2847
  533loPI   C2B 8526   5.487   4.875   9.787 -0.0674  0.0044 -0.3360
  533loPI   C3B 8527   5.387   4.770   9.354 -0.1425 -0.2308  0.1643
  533loPI   C4B 8528   5.679   4.724   8.932  0.2722  0.2749  0.4763
  534loPI    C1 8529   2.976  14.551  11.427 -0.0500 -0.0740 -0.1754
  534loPI    C2 8530   2.724  14.794  11.621  0.0473  0.1057 -0.2718
  534loPI    C3 8531   3.024  14.618  11.818  0.0290  0.1331 -0.2193
  534loPI   PO4 8532   2.902  14.551  11.141  0.0093 -0.1623  0.2299
  534loPI   GL1 8533   2.798  14.735  10.736  0.2597  0.1090  0.2395
  534loPI   GL2 8534   2.488  14.812  10.758 -0.0500 -0.2787 -0.2008
  534loPI   C1A 8535   2.891  14.681  10.274  0.0473 -0.0105  0.0620
  534loPI   C2A 8536   3.033  14.730   9.815  0.0598  0.0169 -0.0530
  534loPI   C3A 8537   2.975  14.743   9.449 -0.1313  0.3344 -0.0288
  534loPI   C4A 8538   2.822  14.749   9.075  0.1512  0.2476 -0.1021
  534loPI   C5A 8539   2.945  14.751   8.688  0.1712  0.3970  0.2483
  534loPI   C6A 8540   2.844  14.988   8.230  0.1438  0.0239  0.2529
  534loPI   C1B 8541   2.485  14.957  10.399 -0.2982 -0.1390  0.1306
  534loPI   C2B 8542   2.550  14.796   9.914  0.2285 -0.0175  0.1117
  534loPI   C3B 8543   2.475  14.875   9.510  0.1704 -0.1761  0.0416
  534loPI   C4B 8544   2.335  14.909   9.008  0.1664  0.2286 -0.3956
  535loPI    C1 8545   4.784   1.193  11.342 -0.2873 -0.0651 -0.0506
  535loPI    C2 8546   4.609   0.877  11.169 -0.1821 -0.1470 -0.0079
  535loPI    C3 8547   4.799   0.835  11.519 -0.1102 -0.0505 -0.0348
  535loPI   PO4 8548   4.606   1.396  11.242 -0.0165  0.2028 -0.1360
  535loPI   GL1 8549   4.346   1.306  10.908  0.1435 -0.1194 -0.0155
  535loPI   GL2 8550   4.272   1.610  10.907  0.1461  0.0518 -0.0937
  535loPI   C1A 8551   4.469   1.262  10.578  0.0862 -0.1184  0.0724
  535loPI   C2A 8552   4.277   1.311  10.213 -0.2716  0.1402 -0.0580
  535loPI   C3A 8553   4.322   1.342   9.763  0.3152  0.0209  0.2306
  535loPI   C4A 8554   4.261   1.345   9.293  0.0549  0.1514  0.0444
  535loPI   C5A 8555   4.282   1.234   8.835 -0.0928 -0.0151 -0.0192
  535loPI   C6A 8556   4.167   1.409   8.472 -0.1903  0.0863 -0.1824
  535loPI   C1B 8557   4.313   1.827  10.578 -0.2165  0.3490 -0.0266
  535loPI   C2B 8558   4.213   1.783  10.172 -0.0416  0.1719  0.0658
  535loPI   C3B 8559   4.138   1.801   9.780 -0.1595  0.1446 -0.0977
  535loPI   C4B 8560   4.159   1.880   9.400 -0.0538 -0.0420  0.3083
  536loPI    C1 8561   7.320   5.455  11.487 -0.1204  0.0488  0.1592
  536loPI    C2 8562   7.343   5.184  11.780 -0.0625 -0.0493  0.0649
  536loPI    C3 8563   7.493   5.550  11.835 -0.1377 -0.0366  0.1916
  536loPI   PO4 8564   7.450   5.333  11.251 -0.1106  0.0903 -0.1719
  536loPI   GL1 8565   7.338   5.109  10.834 -0.0365  0.1411 -0.2565
  536loPI   GL2 8566   7.436   5.326  10.603  0.2945  0.0505 -0.0627
  536loPI   C1A 8567   7.387   4.772  10.557 -0.0995  0.0305  0.0898
  536loPI   C2A 8568   7.371   4.635  10.062  0.2329 -0.0149  0.3191
  536loPI   C3A 8569   7.271   4.705   9.572 -0.3335 -0.1333 -0.1727
  536loPI   C4A 8570   7.397   4.730   9.149  0.0096 -0.4777 -0.3246
  536loPI   C5A 8571   7.504   4.509   8.839 -0.0399  0.0020 -0.0849
  536loPI   C6A 8572   7.967   4.595   8.695  0.2649  0.3545 -0.1143
  536loPI   C1B 8573   7.198   5.163  10.222  0.1517  0.1729  0.1104
  536loPI   C2B 8574   7.235   5.199   9.777 -0.0130 -0.2703 -0.3923
  536loPI   C3B 8575   7.210   5.140   9.360  0.1639  0.0906  0.1727
  536loPI   C4B 8576   7.261   5.174   8.927  0.3012 -0.0056 -0.3219
  537loPI    C1 8577  13.378   4.253  11.158 -0.1050  0.0583 -0.1207
  537loPI    C2 8578  13.657   4.188  10.879  0.0881  0.1310  0.0531
  537loPI    C3 8579  13.698   4.029  11.244 -0.1879 -0.0049  0.0278
  537loPI   PO4 8580  13.168   4.165  11.024 -0.1308 -0.2777 -0.0379
  537loPI   GL1 8581  13.133   4.076  10.653 -0.3580 -0.0033  0.3311
  537loPI   GL2 8582  13.266   4.337  10.544 -0.2125  0.1340 -0.1508
  537loPI   C1A 8583  13.021   4.207  10.179 -0.2063 -0.1701  0.0559
  537loPI   C2A 8584  13.050   4.177   9.738  0.0094  0.0148 -0.2524
  537loPI   C3A 8585  12.965   4.163   9.297 -0.1720  0.1833 -0.1445
  537loPI   C4A 8586  13.000   4.203   8.838 -0.3024 -0.3520  0.0304
  537loPI   C5A 8587  13.092   4.075   8.398 -0.3425  0.0465 -0.0975
  537loPI   C6A 8588  13.498   3.933   8.279 -0.0537  0.0764 -0.0319
  537loPI   C1B 8589  13.530   4.056  10.337 -0.0223 -0.0413  0.0610
  537loPI   C2B 8590  13.544   4.086   9.871 -0.3727  0.3845 -0.1420
  537loPI   C3B 8591  13.578   4.133   9.517  0.1032 -0.0155 -0.1826
  537loPI   C4B 8592  13.466   4.043   9.064 -0.1377  0.0570  0.0131
  538loPI    C1 8593  14.166  10.410  11.052  0.0528  0.0453  0.0317
  538loPI    C2 8594  14.335  10.334  11.407  0.2311 -0.0578 -0.0736
  538loPI    C3 8595  13.950  10.441  11.387  0.2132 -0.0768  0.1483
  538loPI   PO4 8596  14.392  10.479  10.914  0.2764  0.0334  0.3995
  538loPI   GL1 8597  14.657  10.728  10.711  0.2152 -0.0230  0.4091
  538loPI   GL2 8598  14.894  10.521  10.715  0.3403  0.0418 -0.1107
  538loPI   C1A 8599  14.448  10.569  10.259  0.1818  0.1757 -0.1584
  538loPI   C2A 8600  14.392  10.595   9.754 -0.0438 -0.1386 -0.3070
  538loPI   C3A 8601  14.408  10.515   9.278 -0.1149 -0.0677  0.1212
  538loPI   C4A 8602  14.422  10.487   8.832 -0.1226  0.0198 -0.0663
  538loPI   C5A 8603  14.246  10.164   8.655  0.0484  0.3387 -0.2336
  538loPI   C6A 8604  14.057   9.767   8.623 -0.0451  0.1750  0.0333
  538loPI   C1B 8605  14.966  10.402  10.194 -0.1646  0.0806  0.0864
  538loPI   C2B 8606  14.901  10.473   9.698  0.1429  0.0181  0.1324
  538loPI   C3B 8607  14.918  10.396   9.229 -0.1556 -0.1726  0.0657
  538loPI   C4B 8608  15.033  10.251   8.775  0.2946 -0.0722  0.0194
  539loPI    C1 8609   9.750   3.737  11.139 -0.2639  0.1820 -0.0753
  539loPI    C2 8610   9.426   3.515  11.214 -0.1550  0.1025  0.1690
  539loPI    C3 8611   9.646   3.656  11.517  0.0292  0.1711  0.0053
  539loPI   PO4 8612   9.703   3.922  10.994  0.0354  0.0196 -0.0051
  539loPI   GL1 8613   9.755   4.042  10.572  0.0816 -0.2051 -0.0038
  539loPI   GL2 8614   9.936   3.884  10.490  0.3061 -0.2844 -0.0488
  539loPI   C1A 8615   9.364   4.073  10.299  0.3530 -0.0216  0.1317
  539loPI   C2A 8616   9.418   4.006   9.808 -0.3989  0.2745 -0.3821
  539loPI   C3A 8617   9.348   3.908   9.456  0.0137 -0.1778  0.1034
  539loPI   C4A 8618   9.320   3.978   8.999 -0.3903  0.1327  0.1986
  539loPI   C5A 8619   8.954   4.096   8.699  0.1280 -0.0635  0.0483
  539loPI   C6A 8620   8.679   4.277   8.490 -0.1555 -0.2114  0.0172
  539loPI   C1B 8621   9.880   3.806  10.098  0.1260  0.2089  0.0696
  539loPI   C2B 8622   9.824   3.870   9.601 -0.1258 -0.2383 -0.1643
  539loPI   C3B 8623   9.789   3.784   9.240 -0.2071  0.3125  0.1390
  539loPI   C4B 8624   9.891   3.810   8.845 -0.0294  0.0936  0.1304
  540loPI    C1 8625   3.247  10.437  11.342  0.1286 -0.0550 -0.1041
  540loPI    C2 8626   3.547  10.449  11.606  0.0824  0.0788 -0.0571
  540loPI    C3 8627   3.254  10.721  11.623 -0.2240 -0.2524  0.1114
  540loPI   PO4 8628   3.385  10.320  11.143 -0.1698 -0.0552  0.3712
  540loPI   GL1 8629   3.287  10.411  10.770  0.0573  0.1079  0.1497
  540loPI   GL2 8630   3.386  10.616  10.473  0.0590 -0.1539  0.0545
  540loPI   C1A 8631   3.031  10.289  10.393 -0.1945 -0.2273  0.0455
  540loPI   C2A 8632   2.914  10.352   9.992  0.1689 -0.1097  0.1165
  540loPI   C3A 8633   2.934  10.311   9.472  0.2506  0.2143  0.2428
  540loPI   C4A 8634   2.700  10.265   9.108 -0.0466  0.0191  0.2094
  540loPI   C5A 8635   2.294  10.020   8.963  0.0073  0.0342  0.1617
  540loPI   C6A 8636   2.127   9.605   9.146  0.0535  0.0134  0.2462
  540loPI   C1B 8637   3.370  10.617  10.109  0.1734 -0.3526 -0.2519
  540loPI   C2B 8638   3.297  10.644   9.707 -0.1219  0.0186 -0.2878
  540loPI   C3B 8639   3.245  10.699   9.299  0.0124 -0.0675 -0.0557
  540loPI   C4B 8640   3.251  10.794   8.844 -0.5081 -0.2983  0.3223
  541loPI    C1 8641   3.770   4.994  11.664  0.1292 -0.0231  0.0639
  541loPI    C2 8642   4.103   5.054  11.877  0.0955 -0.2239  0.1759
  541loPI    C3 8643   3.748   5.038  12.061  0.0014  0.1627  0.0379
  541loPI   PO4 8644   3.766   4.839  11.486 -0.1964  0.0566 -0.0611
  541loPI   GL1 8645   3.551   4.807  11.152 -0.4351 -0.1821 -0.2016
  541loPI   GL2 8646   3.673   4.528  11.005 -0.0343  0.0570 -0.4533
  541loPI   C1A 8647   3.591   4.915  10.688 -0.1732 -0.0850  0.1943
  541loPI   C2A 8648   3.667   4.911  10.280 -0.5684  0.2028 -0.1339
  541loPI   C3A 8649   3.655   4.905   9.833  0.4459 -0.1185 -0.0706
  541loPI   C4A 8650   3.628   4.877   9.445 -0.1946 -0.0699 -0.0190
  541loPI   C5A 8651   3.679   5.043   9.027 -0.2553 -0.0444  0.0731
  541loPI   C6A 8652   3.632   5.031   8.581 -0.1343 -0.1124 -0.1685
  541loPI   C1B 8653   3.731   4.462  10.578 -0.1078 -0.1682 -0.1994
  541loPI   C2B 8654   3.800   4.381  10.156  0.0870  0.1315 -0.0086
  541loPI   C3B 8655   3.672   4.402   9.739 -0.2012 -0.1968 -0.3529
  541loPI   C4B 8656   3.721   4.429   9.403  0.0747  0.2130  0.1294
  542loPI    C1 8657   5.077   6.884  11.277 -0.2947  0.1009 -0.0859
  542loPI    C2 8658   5.114   7.142  11.581  0.0659 -0.1972  0.1329
  542loPI    C3 8659   4.925   6.794  11.636 -0.0539 -0.1619 -0.0458
  542loPI   PO4 8660   5.385   6.890  11.141  0.0435 -0.3009  0.1517
  542loPI   GL1 8661   5.578   6.816  10.775 -0.2683  0.2530  0.1321
  542loPI   GL2 8662   5.419   6.558  10.693 -0.1152 -0.1792 -0.1411
  542loPI   C1A 8663   5.462   7.135  10.486  0.0465 -0.0144  0.3497
  542loPI   C2A 8664   5.514   7.155  10.026 -0.1419 -0.2833 -0.1555
  542loPI   C3A 8665   5.449   7.127   9.620  0.0513  0.0232  0.0389
  542loPI   C4A 8666   5.496   7.172   9.230  0.2273  0.0870  0.2989
  542loPI   C5A 8667   5.399   7.324   8.799  0.1627 -0.1314  0.3412
  542loPI   C6A 8668   5.175   7.293   8.495 -0.1714  0.0271  0.1555
  542loPI   C1B 8669   5.515   6.553  10.291 -0.0819 -0.2048  0.1402
  542loPI   C2B 8670   5.577   6.604   9.847 -0.0244 -0.0234 -0.0535
  542loPI   C3B 8671   5.589   6.669   9.407 -0.1274 -0.3100  0.3677
  542loPI   C4B 8672   5.526   6.761   8.928  0.0942  0.0312 -0.2496
  543loPI    C1 8673   8.064   1.622  11.236  0.4012  0.1027  0.0167
  543loPI    C2 8674   8.090   1.545  11.627 -0.0399 -0.1353  0.0060
  543loPI    C3 8675   7.908   1.878  11.500  0.0345 -0.0966  0.0004
  543loPI   PO4 8676   8.261   1.573  11.097 -0.1350  0.0858 -0.1199
  543loPI   GL1 8677   8.184   1.503  10.641 -0.2196 -0.0887  0.0048
  543loPI   GL2 8678   8.238   1.233  10.511  0.0251  0.0290  0.0518
  543loPI   C1A 8679   8.074   1.621  10.163  0.3663  0.0716 -0.1312
  543loPI   C2A 8680   7.999   1.639   9.601  0.0357 -0.0641 -0.1563
  543loPI   C3A 8681   7.903   1.671   9.196 -0.1623 -0.0472  0.1156
  543loPI   C4A 8682   7.870   1.616   8.885  0.1296 -0.3493 -0.0839
  543loPI   C5A 8683   7.569   1.790   8.465 -0.2140 -0.0244 -0.1710
  543loPI   C6A 8684   7.628   2.069   8.114  0.1365  0.1525  0.0441
  543loPI   C1B 8685   8.179   1.069  10.271  0.0652  0.0964  0.4107
  543loPI   C2B 8686   8.048   1.146   9.845  0.2965 -0.0451  0.0734
  543loPI   C3B 8687   8.015   1.149   9.367  0.2152 -0.0130 -0.0945
  543loPI   C4B 8688   8.126   1.206   8.857 -0.1145  0.0449  0.0717
  544loPI    C1 8689   4.257  10.509  11.097  0.1876 -0.1041 -0.1305
  544loPI    C2 8690   4.548  10.777  11.032  0.0353  0.0389 -0.2303
  544loPI    C3 8691   4.450  10.675  11.406  0.2045 -0.0003 -0.1958
  544loPI   PO4 8692   4.341  10.370  10.869 -0.1204 -0.2461  0.2346
  544loPI   GL1 8693   4.141  10.333  10.586  0.2083  0.0596 -0.2641
  544loPI   GL2 8694   3.890  10.440  10.384 -0.0406  0.0377 -0.2431
  544loPI   C1A 8695   4.389  10.361  10.193  0.0291 -0.2737  0.0894
  544loPI   C2A 8696   4.370  10.440   9.715  0.0778 -0.1135 -0.0339
  544loPI   C3A 8697   4.326  10.383   9.309 -0.1993  0.0147 -0.1629
  544loPI   C4A 8698   4.205  10.532   8.902  0.0712 -0.0420  0.1807
  544loPI   C5A 8699   4.020  10.309   8.593 -0.0717  0.4464 -0.1434
  544loPI   C6A 8700   3.918  10.108   8.233  0.2406  0.3384 -0.1768
  544loPI   C1B 8701   3.929  10.522   9.968  0.1664 -0.1074  0.2669
  544loPI   C2B 8702   3.877  10.522   9.512 -0.1175  0.2260  0.0836
  544loPI   C3B 8703   3.705  10.579   9.100  0.1338 -0.2881  0.3336
  544loPI   C4B 8704   3.553  10.368   8.683 -0.2014 -0.0993 -0.3032
  545loPI    C1 8705  14.223   3.814  11.309 -0.0036 -0.2505  0.0500
  545loPI    C2 8706  14.223   4.177  11.477  0.0975 -0.1581 -0.1479
  545loPI    C3 8707  14.130   3.856  11.696  0.0146 -0.0142  0.0301
  545loPI   PO4 8708  14.055   3.850  11.056 -0.2120 -0.1381 -0.0035
  545loPI   GL1 8709  14.111   4.084  10.723 -0.1957  0.1347 -0.0433
  545loPI   GL2 8710  14.339   4.264  10.558 -0.0079  0.4960  0.2081
  545loPI   C1A 8711  14.047   3.899  10.288  0.2189 -0.0757 -0.1536
  545loPI   C2A 8712  14.073   3.993   9.852 -0.0919  0.4384 -0.0243
  545loPI   C3A 8713  14.041   4.003   9.486 -0.2891  0.1716 -0.0237
  545loPI   C4A 8714  14.050   3.932   9.056  0.1534  0.0170  0.2108
  545loPI   C5A 8715  13.854   4.030   8.698 -0.2441 -0.0839 -0.0124
  545loPI   C6A 8716  13.550   4.274   8.611  0.1641  0.3041  0.0670
  545loPI   C1B 8717  14.308   4.301  10.221  0.1131  0.1110 -0.1900
  545loPI   C2B 8718  14.514   4.303   9.774 -0.0388  0.1511 -0.2783
  545loPI   C3B 8719  14.471   4.332   9.360  0.0218 -0.0698 -0.1066
  545loPI   C4B 8720  14.365   4.322   8.970 -0.1935  0.0192 -0.1034
  546loPI    C1 8721   7.010   7.011  11.095  0.0666 -0.0356 -0.0154
  546loPI    C2 8722   7.295   7.252  11.241  0.1605 -0.1115 -0.0720
  546loPI    C3 8723   7.162   6.943  11.458  0.0612 -0.0272 -0.0115
  546loPI   PO4 8724   7.101   6.982  10.780  0.1232 -0.3101  0.0152
  546loPI   GL1 8725   7.354   6.644  10.462  0.2696  0.2399 -0.2673
  546loPI   GL2 8726   7.055   6.637  10.409  0.3894 -0.0471 -0.1292
  546loPI   C1A 8727   7.414   6.426  10.084  0.1207  0.1527  0.2425
  546loPI   C2A 8728   7.374   6.514   9.676 -0.2391  0.2229  0.0576
  546loPI   C3A 8729   7.409   6.613   9.170  0.0110 -0.2172  0.0079
  546loPI   C4A 8730   7.485   6.522   8.696  0.0290  0.1700  0.0577
  546loPI   C5A 8731   7.522   6.535   8.337  0.0076 -0.0969 -0.1608
  546loPI   C6A 8732   7.874   6.689   8.084  0.2158 -0.4115 -0.1889
  546loPI   C1B 8733   6.841   6.614   9.993 -0.2250 -0.0576  0.0839
  546loPI   C2B 8734   6.886   6.565   9.641  0.3609  0.1131 -0.3499
  546loPI   C3B 8735   6.919   6.726   9.186 -0.1319 -0.0171  0.3070
  546loPI   C4B 8736   6.985   6.701   8.728  0.1699 -0.0100 -0.0764
  547loPI    C1 8737   3.916   8.758  11.527 -0.3065 -0.0712 -0.0612
  547loPI    C2 8738   3.759   8.638  11.874 -0.0007 -0.1447  0.0546
  547loPI    C3 8739   3.828   9.026  11.810 -0.1907 -0.1162  0.0185
  547loPI   PO4 8740   3.762   8.690  11.314  0.1881  0.4078  0.1863
  547loPI   GL1 8741   3.435   8.809  11.091 -0.0091 -0.0080  0.0084
  547loPI   GL2 8742   3.208   9.029  11.182  0.0678 -0.2333 -0.1754
  547loPI   C1A 8743   3.262   8.612  10.727 -0.2272  0.2228  0.0562
  547loPI   C2A 8744   3.325   8.743  10.328  0.0081  0.1110 -0.2912
  547loPI   C3A 8745   3.320   8.790   9.920  0.1487 -0.0727  0.1362
  547loPI   C4A 8746   3.298   8.908   9.467  0.1361 -0.0394 -0.0206
  547loPI   C5A 8747   3.136   8.882   9.002 -0.0647 -0.0798  0.1262
  547loPI   C6A 8748   3.134   8.973   8.602 -0.0898 -0.1668  0.1248
  547loPI   C1B 8749   3.134   9.121  10.732 -0.1254 -0.0988 -0.0798
  547loPI   C2B 8750   3.225   9.204  10.359  0.2114 -0.2822  0.0809
  547loPI   C3B 8751   3.218   9.304   9.995 -0.1682  0.2421  0.3002
  547loPI   C4B 8752   3.186   9.450   9.520  0.1269 -0.2562 -0.2699
  548loPI    C1 8753  13.956   2.489  11.057 -0.0985 -0.0856  0.2203
  548loPI    C2 8754  14.355   2.507  11.037 -0.1041 -0.1380  0.0441
  548loPI    C3 8755  14.173   2.481  11.392  0.0363  0.1617  0.1417
  548loPI   PO4 8756  13.869   2.799  10.844 -0.0685 -0.0982 -0.2917
  548loPI   GL1 8757  14.153   2.920  10.519  0.2266  0.3298 -0.1852
  548loPI   GL2 8758  14.451   3.273  10.462  0.0117 -0.2131  0.0432
  548loPI   C1A 8759  14.165   2.947  10.076  0.0648 -0.0818  0.0603
  548loPI   C2A 8760  14.257   2.990   9.663 -0.0660  0.0068 -0.2688
  548loPI   C3A 8761  14.185   2.945   9.077 -0.1634  0.0188  0.1706
  548loPI   C4A 8762  13.998   2.616   8.730  0.0874 -0.1635 -0.1529
  548loPI   C5A 8763  13.575   2.343   8.677  0.0193 -0.4074 -0.2454
  548loPI   C6A 8764  13.199   2.141   8.510  0.2098 -0.1845  0.1976
  548loPI   C1B 8765  14.686   3.329  10.104 -0.0245 -0.1157  0.3858
  548loPI   C2B 8766  14.682   3.337   9.659 -0.1142 -0.2465  0.0357
  548loPI   C3B 8767  14.621   3.361   9.240  0.2404  0.0769  0.0151
  548loPI   C4B 8768  14.680   3.286   8.778 -0.1468  0.0263  0.1350
  549loPI    C1 8769  14.110   8.236  10.734  0.0610 -0.0953 -0.0414
  549loPI    C2 8770  14.066   7.950  11.011 -0.1340 -0.0840 -0.0595
  549loPI    C3 8771  14.054   7.856  10.622 -0.1263 -0.0619 -0.0652
  549loPI   PO4 8772  13.843   8.362  10.747 -0.1869 -0.2544  0.0365
  549loPI   GL1 8773  13.696   8.402  10.379  0.0822 -0.0604 -0.3352
  549loPI   GL2 8774  13.814   8.065  10.264  0.1834 -0.0007 -0.0864
  549loPI   C1A 8775  13.791   8.565  10.022  0.2429  0.1690 -0.1695
  549loPI   C2A 8776  13.846   8.565   9.522  0.1005 -0.3328  0.2076
  549loPI   C3A 8777  14.050   8.699   9.100 -0.1580 -0.3410 -0.2003
  549loPI   C4A 8778  14.090   8.910   8.621 -0.0847 -0.1084 -0.3295
  549loPI   C5A 8779  14.167   9.181   8.295  0.1369  0.2664  0.0913
  549loPI   C6A 8780  13.834   9.513   8.207  0.1692 -0.1379  0.2054
  549loPI   C1B 8781  14.110   8.052  10.105  0.0902  0.0175  0.2479
  549loPI   C2B 8782  14.121   8.125   9.662  0.2436 -0.1051 -0.1436
  549loPI   C3B 8783  14.151   8.226   9.200  0.3223 -0.0148  0.3679
  549loPI   C4B 8784  14.206   8.343   8.781 -0.2996 -0.0430  0.2480
  550loPI    C1 8785   6.831   0.221  11.265 -0.0416 -0.1900  0.0194
  550loPI    C2 8786   6.997   0.379  11.593  0.0140 -0.0465 -0.0767
  550loPI    C3 8787   6.606   0.297  11.587  0.0152 -0.0613  0.0294
  550loPI   PO4 8788   7.016   0.073  11.131 -0.0362 -0.0402  0.0928
  550loPI   GL1 8789   7.109  -0.059  10.769 -0.1089 -0.1707 -0.1519
  550loPI   GL2 8790   7.450  -0.067  10.642  0.0358 -0.0936  0.1006
  550loPI   C1A 8791   7.010   0.135  10.383  0.2903  0.2049  0.2979
  550loPI   C2A 8792   6.961   0.060   9.883 -0.0805  0.0648 -0.0387
  550loPI   C3A 8793   7.007   0.025   9.497 -0.2760  0.1379 -0.1204
  550loPI   C4A 8794   7.001   0.038   9.052  0.2652  0.2082  0.1354
  550loPI   C5A 8795   6.634   0.224   8.765 -0.0695 -0.1687 -0.0046
  550loPI   C6A 8796   6.175   0.293   8.658 -0.0808 -0.3325  0.2360
  550loPI   C1B 8797   7.443  -0.089  10.204 -0.0275 -0.1454  0.1468
  550loPI   C2B 8798   7.479  -0.124   9.732  0.1744 -0.0764  0.2589
  550loPI   C3B 8799   7.431  -0.093   9.340  0.0692  0.1704  0.4267
  550loPI   C4B 8800   7.442  -0.037   8.868 -0.3221  0.0660  0.0513
  551loPI    C1 8801   4.831   2.280  11.427  0.1127  0.0400  0.0145
  551loPI    C2 8802   5.029   2.585  11.596  0.0087  0.1532 -0.0660
  551loPI    C3 8803   4.639   2.533  11.670  0.0020  0.1020 -0.1357
  551loPI   PO4 8804   4.825   2.250  11.275  0.5065  0.0229  0.3582
  551loPI   GL1 8805   4.722   2.174  10.830 -0.1242  0.1540  0.0350
  551loPI   GL2 8806   4.630   2.489  10.842  0.2965  0.1992  0.0326
  551loPI   C1A 8807   4.628   2.156  10.302 -0.1079 -0.4255 -0.1652
  551loPI   C2A 8808   4.553   2.176   9.910 -0.0970 -0.1154  0.0420
  551loPI   C3A 8809   4.574   2.229   9.485  0.1124 -0.4135  0.1836
  551loPI   C4A 8810   4.546   2.266   9.094 -0.0663  0.2161 -0.1228
  551loPI   C5A 8811   4.738   2.051   8.798 -0.0397  0.1954  0.4067
  551loPI   C6A 8812   4.910   1.963   8.431  0.0588 -0.3601 -0.0156
  551loPI   C1B 8813   4.577   2.689  10.541  0.1490 -0.0522  0.2037
  551loPI   C2B 8814   4.555   2.743  10.196  0.0113 -0.0449 -0.0659
  551loPI   C3B 8815   4.544   2.674   9.715  0.1952  0.0519 -0.2875
  551loPI   C4B 8816   4.546   2.765   9.318 -0.0842  0.0959 -0.1772
  552loPI    C1 8817  12.865   5.178  10.827  0.0799  0.1016 -0.1319
  552loPI    C2 8818  13.224   5.154  11.003  0.1677  0.4583 -0.2549
  552loPI    C3 8819  12.932   5.370  11.172 -0.0749 -0.0332 -0.0247
  552loPI   PO4 8820  12.894   5.156  10.577 -0.0997  0.1357 -0.1634
  552loPI   GL1 8821  13.124   5.289  10.306  0.3191 -0.0053 -0.1354
  552loPI   GL2 8822  13.231   5.611  10.207  0.0984  0.1191  0.0792
  552loPI   C1A 8823  13.329   5.046   9.978 -0.3682  0.1843  0.1642
  552loPI   C2A 8824  13.315   5.080   9.507  0.2815 -0.1016 -0.0364
  552loPI   C3A 8825  13.305   5.161   9.120 -0.3228 -0.1415  0.3290
  552loPI   C4A 8826  13.462   5.124   8.655  0.1504  0.0619 -0.1435
  552loPI   C5A 8827  13.631   5.322   8.301 -0.1503  0.3291 -0.0234
  552loPI   C6A 8828  13.714   5.778   8.152 -0.1371 -0.0934  0.2315
  552loPI   C1B 8829  13.202   5.546   9.732 -0.2191  0.0908 -0.1342
  552loPI   C2B 8830  13.164   5.600   9.327 -0.2122  0.1668 -0.0312
  552loPI   C3B 8831  13.189   5.632   8.930 -0.0166  0.1303  0.3226
  552loPI   C4B 8832  13.381   5.740   8.526 -0.0655  0.0800 -0.1286
  553loPI    C1 8833   8.594  13.247  11.071  0.1358 -0.1136  0.0317
  553loPI    C2 8834   8.655  13.015  11.391 -0.1760 -0.0475  0.1429
  553loPI    C3 8835   8.357  13.281  11.390 -0.0124  0.1410 -0.1021
  553loPI   PO4 8836   8.638  13.079  10.887 -0.0301  0.0166 -0.2103
  553loPI   GL1 8837   8.711  13.222  10.492 -0.0461 -0.0975  0.1305
  553loPI   GL2 8838   8.388  13.303  10.432  0.0350  0.3816  0.1869
  553loPI   C1A 8839   8.734  13.183  10.012 -0.2167  0.0209 -0.5081
  553loPI   C2A 8840   8.685  13.270   9.659  0.0356 -0.1617  0.0679
  553loPI   C3A 8841   8.784  13.362   9.275 -0.0355  0.0272 -0.0460
  553loPI   C4A 8842   8.676  13.318   8.854 -0.0655 -0.0484 -0.4982
  553loPI   C5A 8843   8.884  13.645   8.616 -0.2951 -0.0775  0.2999
  553loPI   C6A 8844   8.856  14.081   8.696  0.3653 -0.2241  0.1446
  553loPI   C1B 8845   8.239  13.429   9.992 -0.0449 -0.0969  0.1865
  553loPI   C2B 8846   8.272  13.497   9.620 -0.1387 -0.0972  0.2640
  553loPI   C3B 8847   8.263  13.445   9.248 -0.0338  0.3915 -0.0945
  553loPI   C4B 8848   8.177  13.482   8.861  0.1371 -0.3394  0.0081
  554loPI    C1 8849   1.340   0.230  11.737  0.2280  0.3367  0.1252
  554loPI    C2 8850   1.490   0.084  12.078 -0.1537 -0.0434  0.1404
  554loPI    C3 8851   1.193   0.352  12.089 -0.1469 -0.0344  0.1061
  554loPI   PO4 8852   1.470   0.323  11.552  0.2174 -0.1399 -0.1091
  554loPI   GL1 8853   1.378   0.510  11.132 -0.0678 -0.0790 -0.1226
  554loPI   GL2 8854   1.266   0.807  11.065  0.1699 -0.2247 -0.1987
  554loPI   C1A 8855   1.319   0.495  10.692 -0.0035 -0.0802  0.0620
  554loPI   C2A 8856   1.349   0.536  10.230 -0.1433 -0.1923 -0.2859
  554loPI   C3A 8857   1.322   0.529   9.797  0.1428  0.1120 -0.2095
  554loPI   C4A 8858   1.269   0.521   9.405  0.0738 -0.1341  0.2317
  554loPI   C5A 8859   1.168   0.328   8.914  0.0415  0.2985 -0.0683
  554loPI   C6A 8860   1.555   0.204   8.675 -0.0856  0.1425  0.1514
  554loPI   C1B 8861   1.221   0.970  10.653  0.0549 -0.0678  0.1668
  554loPI   C2B 8862   1.200   1.039  10.213 -0.1392  0.0344 -0.1165
  554loPI   C3B 8863   1.261   1.024   9.820  0.0241  0.1686 -0.0921
  554loPI   C4B 8864   1.302   1.056   9.400 -0.0753  0.0470 -0.0445
  555loPI    C1 8865   3.700  14.091  11.531 -0.3453  0.0315 -0.3353
  555loPI    C2 8866   3.418  14.357  11.628 -0.1446  0.1370 -0.0264
  555loPI    C3 8867   3.779  14.377  11.799 -0.1246 -0.3313 -0.0028
  555loPI   PO4 8868   3.520  13.933  11.269 -0.1674 -0.2714  0.1487
  555loPI   GL1 8869   3.565  13.976  10.845 -0.2367  0.1268  0.1208
  555loPI   GL2 8870   3.365  13.786  10.815  0.0865  0.0486  0.2044
  555loPI   C1A 8871   3.501  14.016  10.399 -0.0466 -0.2254 -0.2666
  555loPI   C2A 8872   3.527  14.032   9.905 -0.0265  0.2094  0.2626
  555loPI   C3A 8873   3.512  14.124   9.455  0.1580  0.0097  0.0041
  555loPI   C4A 8874   3.510  14.134   8.969 -0.2029  0.2101 -0.0219
  555loPI   C5A 8875   3.707  14.028   8.625 -0.2438 -0.2389  0.1648
  555loPI   C6A 8876   3.725  13.665   8.524 -0.2280  0.4474 -0.3317
  555loPI   C1B 8877   3.191  13.655  10.468 -0.2393 -0.0839 -0.1908
  555loPI   C2B 8878   3.182  13.648  10.061 -0.3627 -0.1060  0.1411
  555loPI   C3B 8879   3.191  13.722   9.643 -0.2455 -0.0545 -0.0148
  555loPI   C4B 8880   3.092  13.691   9.251  0.0068  0.0173  0.1686
  556loPI    C1 8881   2.031   8.341  11.718 -0.0650  0.1882  0.0081
  556loPI    C2 8882   2.358   8.465  11.914  0.0395  0.0934 -0.1043
  556loPI    C3 8883   2.138   8.166  12.062 -0.1514  0.3349  0.1110
  556loPI   PO4 8884   2.137   8.288  11.510  0.0040  0.1711  0.1596
  556loPI   GL1 8885   2.367   8.151  11.121  0.0621 -0.0488  0.1637
  556loPI   GL2 8886   2.242   8.452  11.031 -0.3355 -0.0088  0.0772
  556loPI   C1A 8887   2.367   8.076  10.648  0.0320 -0.1836 -0.0092
  556loPI   C2A 8888   2.491   8.066  10.151 -0.1021 -0.0491  0.1928
  556loPI   C3A 8889   2.606   8.146   9.733  0.2873 -0.1648  0.1291
  556loPI   C4A 8890   2.592   8.166   9.359  0.0682 -0.0865  0.2764
  556loPI   C5A 8891   2.708   8.144   8.862  0.0857 -0.3396  0.1334
  556loPI   C6A 8892   2.725   7.954   8.549 -0.0623 -0.2578  0.0864
  556loPI   C1B 8893   2.288   8.596  10.651 -0.0114 -0.0980  0.1459
  556loPI   C2B 8894   2.440   8.553  10.135  0.0169 -0.2868 -0.0019
  556loPI   C3B 8895   2.427   8.603   9.710 -0.0560  0.0263 -0.1168
  556loPI   C4B 8896   2.444   8.639   9.286  0.1883  0.1906 -0.0982
  557loPI    C1 8897  13.480  11.051  11.070  0.4266  0.1500  0.3618
  557loPI    C2 8898  13.200  11.102  11.352 -0.0361  0.1392 -0.0801
  557loPI    C3 8899  13.380  10.747  11.310 -0.3835 -0.0309 -0.1643
  557loPI   PO4 8900  13.435  11.273  10.903  0.2046  0.0485  0.0536
  557loPI   GL1 8901  13.482  11.511  10.514  0.1681 -0.0065 -0.0581
  557loPI   GL2 8902  13.726  11.768  10.448 -0.0273  0.0236  0.2747
  557loPI   C1A 8903  13.318  11.476  10.190 -0.0900 -0.1832 -0.1812
  557loPI   C2A 8904  13.382  11.451   9.772  0.1418  0.1148  0.0635
  557loPI   C3A 8905  13.373  11.283   9.253 -0.1331  0.0085 -0.1605
  557loPI   C4A 8906  13.340  11.399   8.885 -0.2466 -0.2339  0.3418
  557loPI   C5A 8907  13.330  11.595   8.504  0.3952  0.2840  0.1245
  557loPI   C6A 8908  13.083  11.831   8.223 -0.0738 -0.3042  0.0546
  557loPI   C1B 8909  13.735  11.818   9.960 -0.3863 -0.0238 -0.1646
  557loPI   C2B 8910  13.726  11.846   9.574  0.3631  0.1641 -0.1052
  557loPI   C3B 8911  13.753  11.758   9.164 -0.2298 -0.2416 -0.2655
  557loPI   C4B 8912  13.770  11.651   8.790  0.0749 -0.2282 -0.0574
  558loPI    C1 8913   4.584  15.657  11.465 -0.3449 -0.0434 -0.1452
  558loPI    C2 8914   4.658  15.498  11.824 -0.1676  0.1198 -0.1077
  558loPI    C3 8915   4.357  15.757  11.779 -0.1563  0.1405 -0.0650
  558loPI   PO4 8916   4.830  15.614  11.377 -0.0011 -0.0692  0.0200
  558loPI   GL1 8917   4.932  15.750  10.943  0.0298 -0.1520  0.2164
  558loPI   GL2 8918   4.876  15.976  10.816  0.2071 -0.0117  0.0271
  558loPI   C1A 8919   4.948  15.449  10.567 -0.0552  0.2444  0.0345
  558loPI   C2A 8920   4.997  15.439  10.172 -0.1229 -0.3124  0.0175
  558loPI   C3A 8921   5.077  15.443   9.663  0.0504  0.0917 -0.2285
  558loPI   C4A 8922   5.116  15.516   9.180  0.1339 -0.3845  0.1419
  558loPI   C5A 8923   5.284  15.592   8.745 -0.1977  0.0050  0.1760
  558loPI   C6A 8924   5.650  15.693   8.528  0.1775  0.3546 -0.0279
  558loPI   C1B 8925   4.845  15.962  10.402 -0.0510  0.3203 -0.1141
  558loPI   C2B 8926   4.881  16.029   9.980  0.0850 -0.0263  0.2505
  558loPI   C3B 8927   4.997  15.917   9.561  0.0297 -0.0628  0.0874
  558loPI   C4B 8928   5.047  16.001   9.129 -0.1828 -0.4483 -0.0815
  559loPI    C1 8929   6.943  10.907  11.409 -0.2695 -0.1085  0.1727
  559loPI    C2 8930   7.080  10.632  11.666 -0.1139 -0.0623  0.1402
  559loPI    C3 8931   7.291  10.965  11.598 -0.2085 -0.0229  0.0356
  559loPI   PO4 8932   6.981  10.766  11.233  0.0322  0.0395 -0.0677
  559loPI   GL1 8933   6.929  10.608  10.842 -0.2082 -0.1978  0.1061
  559loPI   GL2 8934   6.645  10.556  10.665  0.1966 -0.3073  0.1639
  559loPI   C1A 8935   7.044  10.882  10.468  0.0133 -0.0994  0.1324
  559loPI   C2A 8936   7.023  11.081  10.020  0.0072  0.1786 -0.1845
  559loPI   C3A 8937   6.918  11.013   9.675  0.0090 -0.0155 -0.1571
  559loPI   C4A 8938   6.944  11.004   9.251  0.0186  0.0391 -0.1088
  559loPI   C5A 8939   6.862  10.864   8.871  0.2098  0.0527  0.3711
  559loPI   C6A 8940   6.701  10.916   8.490 -0.1058 -0.0227 -0.0993
  559loPI   C1B 8941   6.587  10.665  10.231 -0.2425 -0.1092  0.1175
  559loPI   C2B 8942   6.509  10.583   9.758 -0.1088  0.1081  0.1825
  559loPI   C3B 8943   6.553  10.619   9.260  0.1281 -0.2301 -0.0863
  559loPI   C4B 8944   6.474  10.561   8.852 -0.0009 -0.1091  0.1246
  560loPI    C1 8945  10.619  16.484  11.250 -0.0109 -0.1337  0.0473
  560loPI    C2 8946  10.356  16.335  11.512 -0.0723  0.1259  0.1362
  560loPI    C3 8947  10.695  16.502  11.642 -0.0261  0.1079  0.0402
  560loPI   PO4 8948  10.507  16.671  11.196 -0.1274  0.0912  0.0009
  560loPI   GL1 8949  10.442  16.815  10.723 -0.3092 -0.2295 -0.1104
  560loPI   GL2 8950  10.754  16.781  10.607 -0.2257  0.1546  0.0018
  560loPI   C1A 8951  10.324  17.030  10.417 -0.1625  0.2117  0.0747
  560loPI   C2A 8952  10.271  17.029  10.088 -0.4695 -0.2163  0.0252
  560loPI   C3A 8953  10.292  17.062   9.717  0.3861  0.1244  0.1156
  560loPI   C4A 8954  10.297  17.138   9.291 -0.2759  0.0444 -0.1233
  560loPI   C5A 8955  10.300  17.183   8.885  0.2644 -0.1042 -0.1782
  560loPI   C6A 8956  10.376  17.455   8.593 -0.2774  0.0400  0.0758
  560loPI   C1B 8957  10.834  16.898  10.266  0.0373  0.1588  0.2584
  560loPI   C2B 8958  10.783  16.911   9.814  0.1826 -0.4089  0.2379
  560loPI   C3B 8959  10.786  17.037   9.433 -0.0713  0.2854  0.2668
  560loPI   C4B 8960  10.849  16.989   8.925  0.0540 -0.2528  0.2991
  561loPI    C1 8961  10.719  11.290  10.885  0.0872 -0.0357 -0.0453
  561loPI    C2 8962  10.395  11.311  11.119  0.0135  0.0104 -0.1509
  561loPI    C3 8963  10.579  10.960  11.063  0.2016  0.0476  0.2042
  561loPI   PO4 8964  10.623  11.454  10.614 -0.1456 -0.1768  0.0493
  561loPI   GL1 8965  10.660  11.523  10.177 -0.0907  0.4527 -0.0790
  561loPI   GL2 8966  10.893  11.685  10.242  0.0324  0.0474  0.2543
  561loPI   C1A 8967  10.601  11.592   9.741 -0.0713 -0.0246  0.0088
  561loPI   C2A 8968  10.540  11.658   9.325 -0.0751  0.0963  0.0829
  561loPI   C3A 8969  10.435  11.819   8.827 -0.3359  0.0281  0.0300
  561loPI   C4A 8970  10.585  11.642   8.408 -0.1509  0.2059  0.1721
  561loPI   C5A 8971  10.694  11.222   8.189 -0.0476  0.0666 -0.1261
  561loPI   C6A 8972  10.417  10.797   8.289 -0.2120  0.1329 -0.0209
  561loPI   C1B 8973  11.043  11.775   9.853  0.4046  0.3064 -0.1428
  561loPI   C2B 8974  11.277  11.942   9.553 -0.0559  0.0147 -0.0614
  561loPI   C3B 8975  11.356  11.960   9.124 -0.4009  0.3117 -0.1942
  561loPI   C4B 8976  11.485  12.119   8.733 -0.2371  0.1519  0.2464
  562loPI    C1 8977   6.949   2.612  11.658 -0.2267  0.1130 -0.1457
  562loPI    C2 8978   6.744   2.271  11.701  0.0497 -0.0497 -0.0933
  562loPI    C3 8979   6.602   2.611  11.857 -0.1440 -0.1728  0.0029
  562loPI   PO4 8980   7.019   2.688  11.422 -0.1648  0.0110 -0.0911
  562loPI   GL1 8981   7.037   2.567  10.974 -0.4508 -0.3009 -0.0435
  562loPI   GL2 8982   7.417   2.550  11.036  0.0045 -0.1105 -0.0018
  562loPI   C1A 8983   6.940   2.438  10.451  0.2182 -0.2748  0.3362
  562loPI   C2A 8984   6.999   2.418   9.999 -0.2192  0.1286 -0.0866
  562loPI   C3A 8985   6.897   2.518   9.637 -0.0745  0.1496 -0.0387
  562loPI   C4A 8986   6.878   2.377   9.228 -0.1834  0.0687  0.4029
  562loPI   C5A 8987   6.911   2.604   8.836  0.2992  0.1953 -0.2974
  562loPI   C6A 8988   6.734   2.942   8.592 -0.0040 -0.2107 -0.1641
  562loPI   C1B 8989   7.384   2.652  10.635  0.0549 -0.1997  0.0888
  562loPI   C2B 8990   7.370   2.819  10.158  0.2982  0.0667  0.1272
  562loPI   C3B 8991   7.404   2.804   9.689 -0.0735  0.1014  0.1822
  562loPI   C4B 8992   7.240   2.810   9.385  0.2019  0.0756 -0.0501
  563loPI    C1 8993   5.219   7.927  11.355 -0.0260 -0.0490 -0.1107
  563loPI    C2 8994   5.565   7.736  11.417  0.0217  0.0294 -0.1347
  563loPI    C3 8995   5.229   7.602  11.589  0.0812  0.0095 -0.0334
  563loPI   PO4 8996   5.158   7.945  11.143  0.1872  0.2472 -0.0961
  563loPI   GL1 8997   4.769   7.783  10.918 -0.1050  0.1220  0.0238
  563loPI   GL2 8998   5.029   7.686  10.722  0.2441 -0.0819  0.1107
  563loPI   C1A 8999   4.582   7.936  10.578 -0.2557  0.0451 -0.1159
  563loPI   C2A 9000   4.473   8.041  10.146 -0.4425 -0.0221 -0.2390
  563loPI   C3A 9001   4.372   7.996   9.589 -0.3091  0.4466  0.0947
  563loPI   C4A 9002   4.434   8.079   9.262 -0.0760 -0.0349  0.1556
  563loPI   C5A 9003   4.188   7.991   8.828  0.1175  0.0722 -0.0966
  563loPI   C6A 9004   4.376   7.809   8.485 -0.1176  0.3719  0.0553
  563loPI   C1B 9005   4.920   7.809  10.289 -0.2966  0.1751 -0.0179
  563loPI   C2B 9006   4.867   7.796   9.734  0.2339 -0.0339  0.0510
  563loPI   C3B 9007   4.890   7.829   9.298  0.1353  0.0655  0.0903
  563loPI   C4B 9008   4.684   7.956   8.885  0.0562  0.3098  0.3390
  564loPI    C1 9009   1.282  12.319  11.319  0.0961  0.1655  0.1017
  564loPI    C2 9010   1.222  11.966  11.497 -0.0251  0.0659 -0.1314
  564loPI    C3 9011   1.226  12.302  11.714  0.2104 -0.0881  0.1089
  564loPI   PO4 9012   1.590  12.217  11.192 -0.2455 -0.0344 -0.2458
  564loPI   GL1 9013   1.784  12.199  10.832 -0.1925 -0.0841 -0.0325
  564loPI   GL2 9014   1.955  12.500  10.826  0.0092 -0.0571 -0.0904
  564loPI   C1A 9015   1.693  12.371  10.387 -0.1191 -0.0786 -0.0097
  564loPI   C2A 9016   1.609  12.323   9.894  0.1733 -0.0948 -0.2857
  564loPI   C3A 9017   1.659  12.375   9.488  0.1283  0.0346 -0.1529
  564loPI   C4A 9018   1.592  12.235   9.105  0.1328 -0.0185  0.0032
  564loPI   C5A 9019   1.574  11.899   8.837  0.0618 -0.0885 -0.0253
  564loPI   C6A 9020   1.608  11.408   8.916  0.2071 -0.4178 -0.0838
  564loPI   C1B 9021   2.074  12.746  10.379  0.4682  0.0218 -0.0774
  564loPI   C2B 9022   1.942  12.670   9.844  0.2772  0.3174  0.1506
  564loPI   C3B 9023   2.048  12.670   9.402  0.1762  0.0342 -0.2707
  564loPI   C4B 9024   1.964  12.691   9.145 -0.0698  0.1416  0.0180
  565loPI    C1 9025   8.859  12.540  11.101  0.0961  0.2006  0.0548
  565loPI    C2 9026   8.642  12.532  11.437 -0.0939  0.3565 -0.0619
  565loPI    C3 9027   9.021  12.659  11.447 -0.0065  0.0898  0.1420
  565loPI   PO4 9028   8.667  12.544  10.966 -0.0597  0.0573 -0.0234
  565loPI   GL1 9029   8.635  12.680  10.616  0.3170 -0.1248  0.2557
  565loPI   GL2 9030   8.976  12.796  10.521 -0.2732  0.2670 -0.0609
  565loPI   C1A 9031   8.412  12.855  10.224  0.1622 -0.1757  0.1341
  565loPI   C2A 9032   8.302  12.951   9.760  0.0747  0.1103  0.0567
  565loPI   C3A 9033   8.337  12.948   9.419 -0.1387  0.0475 -0.0451
  565loPI   C4A 9034   8.351  12.896   8.966  0.0313 -0.2002  0.0324
  565loPI   C5A 9035   8.263  13.109   8.572 -0.1390 -0.0123  0.0792
  565loPI   C6A 9036   8.128  13.107   8.043 -0.2689 -0.2031  0.0046
  565loPI   C1B 9037   8.905  12.660  10.137  0.1285  0.1229 -0.0540
  565loPI   C2B 9038   8.831  12.788   9.677 -0.3916 -0.0898  0.1530
  565loPI   C3B 9039   8.839  12.843   9.261 -0.2659  0.0603  0.0647
  565loPI   C4B 9040   8.782  12.810   8.772 -0.0412  0.2425 -0.1680
  566loPI    C1 9041  12.848   8.085  10.863 -0.0208  0.4319  0.4320
  566loPI    C2 9042  12.448   8.096  10.852 -0.0260  0.0943  0.1001
  566loPI    C3 9043  12.636   7.761  10.964  0.1663  0.2149  0.1436
  566loPI   PO4 9044  12.887   8.205  10.616  0.3597 -0.1899  0.2227
  566loPI   GL1 9045  12.726   8.358  10.161 -0.1788 -0.1518  0.0221
  566loPI   GL2 9046  12.539   8.200   9.937  0.1121 -0.1010 -0.1624
  566loPI   C1A 9047  12.867   8.474   9.800 -0.1355 -0.3786  0.2537
  566loPI   C2A 9048  13.048   8.449   9.456  0.2396  0.0789 -0.1816
  566loPI   C3A 9049  13.115   8.583   9.064  0.1591 -0.2260  0.0385
  566loPI   C4A 9050  13.174   8.667   8.722  0.1653  0.0847  0.0577
  566loPI   C5A 9051  13.235   8.480   8.316 -0.1230  0.5128 -0.1261
  566loPI   C6A 9052  13.264   8.082   8.151 -0.0653 -0.0574  0.0388
  566loPI   C1B 9053  12.582   8.190   9.507  0.1076  0.1358 -0.2019
  566loPI   C2B 9054  12.655   8.124   9.118 -0.0278  0.2440  0.1021
  566loPI   C3B 9055  12.848   8.280   8.811 -0.2041 -0.2519 -0.0028
  566loPI   C4B 9056  12.709   8.421   8.449 -0.0733  0.0251  0.1703
  567loPI    C1 9057   4.157   6.534  11.456  0.1113 -0.2051 -0.0013
  567loPI    C2 9058   4.424   6.790  11.607  0.0895 -0.0525 -0.2175
  567loPI    C3 9059   4.273   6.501  11.837  0.2016  0.0567 -0.0039
  567loPI   PO4 9060   4.215   6.488  11.233 -0.3195 -0.2292 -0.1432
  567loPI   GL1 9061   3.993   6.463  10.920  0.2547  0.3628  0.0234
  567loPI   GL2 9062   3.747   6.302  10.690  0.1076 -0.0601 -0.0750
  567loPI   C1A 9063   4.135   6.581  10.491  0.1403 -0.1039  0.2739
  567loPI   C2A 9064   4.159   6.492  10.101  0.0147 -0.0108  0.1374
  567loPI   C3A 9065   4.147   6.658   9.743 -0.0823  0.2999  0.0086
  567loPI   C4A 9066   4.310   6.688   9.361  0.2799 -0.2276 -0.1691
  567loPI   C5A 9067   4.234   6.427   8.939 -0.0806 -0.2009 -0.1710
  567loPI   C6A 9068   4.516   6.382   8.577 -0.1464  0.1105 -0.1122
  567loPI   C1B 9069   3.758   6.247  10.273 -0.0776  0.1219 -0.0617
  567loPI   C2B 9070   3.811   6.215   9.838  0.2512  0.1103 -0.2112
  567loPI   C3B 9071   3.876   6.294   9.455  0.1922 -0.0455  0.4590
  567loPI   C4B 9072   3.855   6.162   9.071  0.5764 -0.0114  0.0355
  568loPI    C1 9073   0.555   0.644  11.652 -0.2291 -0.0351  0.2433
  568loPI    C2 9074   0.519   0.433  11.989 -0.0357 -0.0771  0.2393
  568loPI    C3 9075   0.775   0.739  11.972 -0.1554  0.0203  0.1766
  568loPI   PO4 9076   0.626   0.392  11.470 -0.2783  0.0470 -0.3955
  568loPI   GL1 9077   0.632   0.207  10.980 -0.3727 -0.2378  0.1257
  568loPI   GL2 9078   0.853   0.475  11.063 -0.1523  0.0615  0.0467
  568loPI   C1A 9079   0.884   0.185  10.593  0.1133  0.1950  0.3207
  568loPI   C2A 9080   1.046   0.204  10.141 -0.0013 -0.0377  0.0312
  568loPI   C3A 9081   0.972   0.190   9.670  0.1408  0.1337  0.5485
  568loPI   C4A 9082   0.782   0.191   9.219 -0.0119  0.2375 -0.0741
  568loPI   C5A 9083   0.818  -0.045   8.896  0.0923  0.2078 -0.2909
  568loPI   C6A 9084   0.751  -0.113   8.485 -0.2659 -0.0932  0.3057
  568loPI   C1B 9085   0.733   0.642  10.730 -0.2375 -0.4835  0.1410
  568loPI   C2B 9086   0.843   0.708  10.395 -0.0112 -0.0456  0.0712
  568loPI   C3B 9087   0.891   0.643   9.967 -0.0574 -0.1094 -0.1504
  568loPI   C4B 9088   0.825   0.653   9.589  0.0128  0.1205  0.0459
  569loPI    C1 9089  13.571  17.200  10.943  0.0667 -0.1936  0.0602
  569loPI    C2 9090  13.882  17.002  11.099  0.0018 -0.0612  0.3644
  569loPI    C3 9091  13.516  16.951  11.251 -0.1343 -0.2391 -0.0114
  569loPI   PO4 9092  13.607  17.131  10.661 -0.0851  0.3053 -0.2258
  569loPI   GL1 9093  14.107  17.098  10.609 -0.2096  0.2680  0.1489
  569loPI   GL2 9094  13.976  16.779  10.533  0.1051 -0.0512 -0.0742
  569loPI   C1A 9095  14.019  17.353  10.250  0.1026  0.0312 -0.0012
  569loPI   C2A 9096  13.972  17.429   9.729 -0.0620 -0.0454 -0.1294
  569loPI   C3A 9097  13.994  17.379   9.164  0.0086  0.2546 -0.0004
  569loPI   C4A 9098  14.047  17.336   8.775  0.2488 -0.0214 -0.1160
  569loPI   C5A 9099  14.028  17.390   8.251 -0.0663  0.2894 -0.0585
  569loPI   C6A 9100  13.623  17.428   8.009  0.0520 -0.1489 -0.0720
  569loPI   C1B 9101  14.074  16.776  10.162  0.3382 -0.0678  0.0723
  569loPI   C2B 9102  14.070  16.816   9.759  0.0539 -0.0932 -0.0798
  569loPI   C3B 9103  14.118  16.777   9.311 -0.0455  0.4528 -0.2230
  569loPI   C4B 9104  14.111  16.838   8.948  0.1638  0.1415  0.0065
  570loPI    C1 9105   5.371   0.980  11.249 -0.0098 -0.1097  0.1401
  570loPI    C2 9106   5.208   1.089  11.597 -0.0141 -0.3229  0.2067
  570loPI    C3 9107   5.489   0.805  11.589  0.2835 -0.0323  0.0816
  570loPI   PO4 9108   5.142   0.874  11.089 -0.2508  0.0514  0.0328
  570loPI   GL1 9109   4.878   0.805  10.740 -0.0453 -0.0946  0.1803
  570loPI   GL2 9110   4.877   1.153  10.816  0.0948 -0.1056  0.2107
  570loPI   C1A 9111   4.966   0.676  10.280  0.0684 -0.2318 -0.3395
  570loPI   C2A 9112   4.917   0.624   9.773  0.2180  0.2811 -0.2469
  570loPI   C3A 9113   4.988   0.636   9.366 -0.0794  0.1433  0.0697
  570loPI   C4A 9114   5.002   0.559   9.008  0.2344 -0.4336  0.1763
  570loPI   C5A 9115   4.890   0.527   8.588 -0.1475  0.0012 -0.0546
  570loPI   C6A 9116   4.793   0.436   8.210  0.0075  0.0778 -0.0070
  570loPI   C1B 9117   4.961   1.183  10.378 -0.4550 -0.0862 -0.1124
  570loPI   C2B 9118   4.792   1.040  10.017  0.2544  0.0375  0.1562
  570loPI   C3B 9119   4.753   1.142   9.545 -0.3488  0.2805 -0.0606
  570loPI   C4B 9120   4.839   1.196   9.122  0.1226  0.2204 -0.0379
  571loPI    C1 9121   4.147   3.472  11.492  0.1494  0.1371  0.0367
  571loPI    C2 9122   4.249   3.579  11.864  0.1345 -0.0517  0.0960
  571loPI    C3 9123   4.017   3.259  11.804  0.2323 -0.0911 -0.0824
  571loPI   PO4 9124   4.283   3.746  11.376  0.2387 -0.0057  0.2440
  571loPI   GL1 9125   4.296   3.986  10.966 -0.1817 -0.0311  0.0963
  571loPI   GL2 9126   4.170   4.238  10.927 -0.1222 -0.2118  0.1970
  571loPI   C1A 9127   4.302   3.885  10.628 -0.0402  0.0782 -0.0541
  571loPI   C2A 9128   4.332   3.797  10.285  0.2619 -0.0305 -0.1834
  571loPI   C3A 9129   4.329   3.756   9.862  0.0650 -0.2543 -0.0140
  571loPI   C4A 9130   4.285   3.700   9.428  0.0592 -0.2766  0.1795
  571loPI   C5A 9131   4.199   3.697   8.986 -0.3697 -0.1078  0.1433
  571loPI   C6A 9132   3.813   3.463   8.875  0.1239 -0.1655 -0.0554
  571loPI   C1B 9133   4.201   4.343  10.443 -0.3394  0.0872  0.0356
  571loPI   C2B 9134   4.294   4.267   9.973 -0.0523 -0.1290 -0.0137
  571loPI   C3B 9135   4.209   4.238   9.572 -0.1481  0.2380  0.0542
  571loPI   C4B 9136   4.119   4.235   9.118  0.2252  0.0082 -0.1534
  572loPI    C1 9137  15.375   2.857  11.156  0.0620 -0.0798 -0.1182
  572loPI    C2 9138  15.565   2.762  11.495 -0.0501  0.0297 -0.0232
  572loPI    C3 9139  15.187   2.890  11.508 -0.1379 -0.2029 -0.2117
  572loPI   PO4 9140  15.444   2.733  11.009 -0.0273  0.1704  0.1149
  572loPI   GL1 9141  15.724   2.587  10.615  0.2112  0.2494  0.0841
  572loPI   GL2 9142  15.978   2.850  10.594  0.0924 -0.0589 -0.3222
  572loPI   C1A 9143  15.712   2.490  10.192 -0.2777 -0.2021 -0.1865
  572loPI   C2A 9144  15.762   2.496   9.749 -0.2349  0.2334  0.1712
  572loPI   C3A 9145  15.779   2.432   9.386 -0.0504 -0.0186  0.1592
  572loPI   C4A 9146  15.850   2.435   9.021  0.3346 -0.0236 -0.1337
  572loPI   C5A 9147  16.091   2.396   8.676  0.2502  0.2279  0.1203
  572loPI   C6A 9148  16.078   2.228   8.307  0.1263 -0.0174  0.2909
  572loPI   C1B 9149  16.186   2.823  10.213 -0.1512  0.0672  0.0337
  572loPI   C2B 9150  16.180   2.867   9.799 -0.3088  0.4843  0.2308
  572loPI   C3B 9151  16.205   2.857   9.306 -0.4134  0.2732  0.0357
  572loPI   C4B 9152  16.216   2.875   8.829 -0.3024  0.0838 -0.2204
  573POPI    C1 9153   5.385  10.487  11.163  0.0513 -0.1911 -0.1134
  573POPI    C2 9154   5.751  10.369  11.273  0.0918  0.0181 -0.0197
  573POPI    C3 9155   5.431  10.247  11.480  0.1331  0.0696  0.0755
  573POPI   PO4 9156   5.327  10.442  10.957  0.1948  0.0070 -0.2031
  573POPI   GL1 9157   5.342  10.212  10.602 -0.0923  0.0688 -0.0260
  573POPI   GL2 9158   5.520  10.517  10.493  0.2355 -0.0565  0.0990
  573POPI   C1A 9159   5.276  10.049  10.216 -0.0596 -0.1678 -0.2333
  573POPI   D2A 9160   5.324  10.109   9.812 -0.2155  0.0895 -0.1362
  573POPI   C3A 9161   5.267  10.043   9.357 -0.0062 -0.0377 -0.2233
  573POPI   C4A 9162   5.228  10.243   8.956  0.0332  0.0909  0.0579
  573POPI   C1B 9163   5.678  10.387  10.097  0.1289  0.0798 -0.2064
  573POPI   C2B 9164   5.676  10.523   9.664  0.1368  0.0764 -0.1882
  573POPI   C3B 9165   5.555  10.433   9.332  0.1811 -0.1811  0.1280
  573POPI   C4B 9166   5.665  10.553   8.893  0.1232  0.1945 -0.0002
  574POPI    C1 9167   3.050   3.107  11.577  0.2135  0.0238  0.0871
  574POPI    C2 9168   3.234   3.440  11.701  0.0694  0.1536 -0.0437
  574POPI    C3 9169   2.920   3.297  11.904 -0.0105  0.2257 -0.1158
  574POPI   PO4 9170   3.193   3.059  11.310  0.0967 -0.3549 -0.0308
  574POPI   GL1 9171   3.133   3.366  10.960  0.1748 -0.0657  0.0769
  574POPI   GL2 9172   3.262   3.623  10.971  0.1205  0.3014  0.1784
  574POPI   C1A 9173   3.023   3.289  10.483  0.1433  0.1303  0.1591
  574POPI   D2A 9174   3.051   3.230  10.005 -0.0592 -0.0651  0.0584
  574POPI   C3A 9175   3.060   3.278   9.574 -0.0351 -0.0170 -0.3265
  574POPI   C4A 9176   3.011   3.303   9.117  0.1363 -0.1138  0.2574
  574POPI   C1B 9177   3.433   3.569  10.551  0.0684 -0.0486 -0.1237
  574POPI   C2B 9178   3.386   3.569  10.145 -0.2039 -0.2848  0.0576
  574POPI   C3B 9179   3.409   3.565   9.738 -0.1093  0.4699 -0.1703
  574POPI   C4B 9180   3.398   3.563   9.283  0.1951  0.0399 -0.2875
  575POPI    C1 9181  11.668   7.012  10.498 -0.0950 -0.1167  0.0282
  575POPI    C2 9182  11.748   7.388  10.609 -0.0867 -0.1217  0.0394
  575POPI    C3 9183  11.376   7.245  10.639 -0.0884 -0.1167  0.0419
  575POPI   PO4 9184  11.788   7.030  10.237  0.0041 -0.1730 -0.2091
  575POPI   GL1 9185  11.933   7.152   9.820 -0.3966 -0.0109  0.1276
  575POPI   GL2 9186  12.121   7.295   9.894  0.0528  0.0951  0.2475
  575POPI   C1A 9187  11.877   7.339   9.379 -0.0161  0.1756  0.2818
  575POPI   D2A 9188  11.765   7.526   8.941 -0.2648 -0.1464  0.1900
  575POPI   C3A 9189  11.824   7.348   8.597  0.4661  0.1164  0.0707
  575POPI   C4A 9190  11.942   6.922   8.368 -0.1397  0.0789 -0.0955
  575POPI   C1B 9191  12.403   7.182   9.516 -0.3413  0.1029  0.1980
  575POPI   C2B 9192  12.325   7.235   9.157 -0.0715 -0.0422  0.0480
  575POPI   C3B 9193  12.298   7.343   8.807  0.0965 -0.1741  0.1015
  575POPI   C4B 9194  12.178   7.615   8.467 -0.1089  0.3113  0.1636
  576POPI    C1 9195   6.517  14.973  11.348 -0.0261  0.1837 -0.0823
  576POPI    C2 9196   6.699  14.984  11.704  0.0432  0.1906 -0.1178
  576POPI    C3 9197   6.443  15.274  11.602 -0.0800  0.1177 -0.0192
  576POPI   PO4 9198   6.468  14.755  11.264  0.3960  0.0649  0.0091
  576POPI   GL1 9199   6.544  14.579  10.836  0.0841  0.2736 -0.0580
  576POPI   GL2 9200   6.423  14.902  10.823 -0.2354  0.1856  0.2252
  576POPI   C1A 9201   6.753  14.394  10.400 -0.2542 -0.0745 -0.3218
  576POPI   D2A 9202   6.612  14.372   9.987  0.2875 -0.0633  0.2069
  576POPI   C3A 9203   6.678  14.453   9.564 -0.2681  0.0368 -0.2911
  576POPI   C4A 9204   6.737  14.454   9.172 -0.0773  0.0061 -0.1068
  576POPI   C1B 9205   6.515  14.830  10.403  0.0814 -0.2070 -0.1620
  576POPI   C2B 9206   6.540  14.922   9.974 -0.0156  0.1089 -0.3914
  576POPI   C3B 9207   6.587  14.975   9.543  0.1620 -0.2458 -0.2794
  576POPI   C4B 9208   6.584  14.905   9.059  0.3380 -0.0154 -0.4448
  577POPI    C1 9209  15.789   9.346  11.262  0.1320 -0.1696  0.0497
  577POPI    C2 9210  16.061   9.278  10.977  0.2474  0.0917  0.0948
  577POPI    C3 9211  16.140   9.179  11.356  0.1462 -0.1348  0.0584
  577POPI   PO4 9212  15.532   9.293  11.065 -0.1918  0.1408  0.0068
  577POPI   GL1 9213  15.652   9.086  10.682 -0.3142 -0.3309  0.0014
  577POPI   GL2 9214  15.452   8.906  10.683 -0.1615  0.0399 -0.0478
  577POPI   C1A 9215  15.841   8.846  10.342  0.1420  0.0532  0.0999
  577POPI   D2A 9216  15.858   8.681   9.908 -0.0488  0.0158  0.2131
  577POPI   C3A 9217  15.866   8.671   9.458 -0.1020 -0.0246  0.0343
  577POPI   C4A 9218  15.914   8.639   9.000  0.0250 -0.1808 -0.0098
  577POPI   C1B 9219  15.408   8.802  10.166 -0.2549 -0.1041 -0.3215
  577POPI   C2B 9220  15.333   8.778   9.743 -0.0936  0.1803  0.3321
  577POPI   C3B 9221  15.280   8.801   9.318  0.1194  0.0697  0.1549
  577POPI   C4B 9222  15.462   8.755   8.926 -0.0665  0.0710 -0.0877
  578POPI    C1 9223  13.402   6.044  10.813  0.1322 -0.1570  0.1544
  578POPI    C2 9224  13.281   5.772  11.081 -0.0605 -0.0183  0.2103
  578POPI    C3 9225  13.292   6.160  11.180 -0.0413  0.0236  0.0472
  578POPI   PO4 9226  13.308   5.983  10.604  0.0219 -0.0318  0.0460
  578POPI   GL1 9227  13.656   5.915  10.273 -0.2757 -0.1474 -0.0835
  578POPI   GL2 9228  13.836   5.867  10.420  0.1084  0.0630  0.0788
  578POPI   C1A 9229  13.622   5.901   9.768 -0.1118  0.0827  0.1181
  578POPI   D2A 9230  13.711   5.857   9.365 -0.0059 -0.0644  0.2994
  578POPI   C3A 9231  13.731   5.939   8.891  0.0320 -0.1720  0.0111
  578POPI   C4A 9232  13.692   6.119   8.483  0.0601 -0.1310 -0.0625
  578POPI   C1B 9233  14.146   5.793  10.010 -0.0671  0.3927  0.3089
  578POPI   C2B 9234  14.092   5.653   9.584 -0.0703 -0.0820 -0.0595
  578POPI   C3B 9235  14.223   5.730   9.189  0.0910  0.1344  0.1601
  578POPI   C4B 9236  14.208   5.888   8.796  0.1076 -0.0722 -0.0635
  579POPI    C1 9237  15.541  15.455  11.310 -0.1094  0.0102 -0.1294
  579POPI    C2 9238  15.189  15.364  11.478 -0.1084  0.2255 -0.0062
  579POPI    C3 9239  15.434  15.625  11.656  0.2782 -0.1955  0.0988
  579POPI   PO4 9240  15.594  15.520  10.972  0.1705  0.3124 -0.0602
  579POPI   GL1 9241  15.474  15.784  10.692  0.3210 -0.0419 -0.1263
  579POPI   GL2 9242  15.327  15.585  10.539 -0.1368 -0.5295  0.2752
  579POPI   C1A 9243  15.596  15.865  10.229  0.0628  0.1113  0.0152
  579POPI   D2A 9244  15.648  15.842   9.732 -0.0556  0.2343  0.2984
  579POPI   C3A 9245  15.715  15.821   9.317 -0.1904 -0.1061  0.0325
  579POPI   C4A 9246  15.746  15.844   8.901  0.0901  0.0338 -0.1188
  579POPI   C1B 9247  15.124  15.536  10.268  0.0939  0.1744  0.1899
  579POPI   C2B 9248  15.192  15.527   9.830 -0.2402  0.1668 -0.1940
  579POPI   C3B 9249  15.383  15.518   9.438  0.0144  0.0360 -0.0242
  579POPI   C4B 9250  15.321  15.445   9.026 -0.0565 -0.1974 -0.0573
  580POPI    C1 9251  16.393   9.891  11.299  0.0352  0.0084 -0.1084
  580POPI    C2 9252  16.013   9.803  11.387  0.1298 -0.5276 -0.2061
  580POPI    C3 9253  16.304   9.707  11.643  0.1953 -0.0142 -0.0784
  580POPI   PO4 9254  16.381   9.733  11.018 -0.1391  0.0879  0.0104
  580POPI   GL1 9255  16.325   9.542  10.614  0.3525  0.0636  0.0682
  580POPI   GL2 9256  15.953   9.494  10.542 -0.3314  0.1513  0.3426
  580POPI   C1A 9257  16.488   9.412  10.293  0.0624 -0.0386  0.2090
  580POPI   D2A 9258  16.465   9.504   9.950 -0.0675  0.1262 -0.1438
  580POPI   C3A 9259  16.600   9.414   9.477 -0.0158 -0.0592 -0.4706
  580POPI   C4A 9260  16.668   9.364   8.970  0.2721 -0.2743 -0.2774
  580POPI   C1B 9261  15.953   9.545  10.118  0.0702  0.1246  0.0007
  580POPI   C2B 9262  15.986   9.505   9.669 -0.0242  0.0508  0.0820
  580POPI   C3B 9263  16.125   9.562   9.389  0.1529  0.1189 -0.1621
  580POPI   C4B 9264  16.172   9.498   8.906 -0.0863  0.0085  0.2453
  581POPI    C1 9265  17.234  15.478  11.364 -0.0400  0.2609  0.1066
  581POPI    C2 9266  17.100  15.179  11.593  0.0481  0.0578 -0.1020
  581POPI    C3 9267  16.894  15.521  11.569 -0.1253 -0.0356  0.0327
  581POPI   PO4 9268  17.351  15.346  11.147 -0.3324  0.1806 -0.0712
  581POPI   GL1 9269  17.201  15.236  10.742 -0.0197 -0.1471 -0.1767
  581POPI   GL2 9270  17.224  15.573  10.724  0.1873  0.0048  0.1657
  581POPI   C1A 9271  17.050  15.400  10.307 -0.0998  0.1909 -0.0688
  581POPI   D2A 9272  17.114  15.399   9.828  0.1970  0.0456  0.1540
  581POPI   C3A 9273  17.183  15.395   9.387  0.2230  0.2901 -0.0760
  581POPI   C4A 9274  17.191  15.312   8.969  0.1232 -0.0624  0.0193
  581POPI   C1B 9275  17.518  15.711  10.368  0.3674 -0.0210 -0.2018
  581POPI   C2B 9276  17.636  15.708   9.937  0.2607 -0.2824  0.0371
  581POPI   C3B 9277  17.533  15.654   9.598 -0.2983  0.0050  0.0071
  581POPI   C4B 9278  17.588  15.704   9.119  0.3410  0.1456  0.2010
  582POPI    C1 9279   2.035   0.497  11.439  0.0717  0.0208  0.0623
  582POPI    C2 9280   1.921   0.272  11.749 -0.0691 -0.0289 -0.0245
  582POPI    C3 9281   2.301   0.393  11.719 -0.0000 -0.2255  0.0414
  582POPI   PO4 9282   1.868   0.399  11.195  0.1960 -0.0805 -0.0466
  582POPI   GL1 9283   1.963   0.187  10.901 -0.3003  0.1059 -0.0196
  582POPI   GL2 9284   1.940  -0.191  10.882 -0.0348  0.0046 -0.1552
  582POPI   C1A 9285   1.799   0.271  10.546 -0.0427 -0.1063  0.1776
  582POPI   D2A 9286   1.823   0.277  10.099  0.0779  0.4305 -0.1084
  582POPI   C3A 9287   1.804   0.311   9.672 -0.0913 -0.0106  0.0455
  582POPI   C4A 9288   1.776   0.354   9.221  0.1419 -0.0394  0.0783
  582POPI   C1B 9289   1.963  -0.207  10.399  0.4410  0.0321  0.1751
  582POPI   C2B 9290   1.964  -0.233   9.942  0.3275  0.0335 -0.0687
  582POPI   C3B 9291   1.889  -0.166   9.507 -0.3891  0.0153  0.2137
  582POPI   C4B 9292   1.738  -0.205   9.098 -0.0095 -0.2011  0.0615
  583POPI    C1 9293  15.766   1.631  11.121 -0.0139 -0.0869 -0.1811
  583POPI    C2 9294  15.596   1.353  11.354  0.0240  0.0951  0.0678
  583POPI    C3 9295  15.979   1.316  11.243  0.0580  0.0973  0.1834
  583POPI   PO4 9296  15.667   1.642  10.937  0.0339  0.0766 -0.0321
  583POPI   GL1 9297  15.446   1.477  10.642  0.0566  0.2923 -0.0975
  583POPI   GL2 9298  15.284   1.225  10.644 -0.3358  0.2003 -0.2555
  583POPI   C1A 9299  15.331   1.542  10.251  0.2090 -0.0344  0.0325
  583POPI   D2A 9300  15.378   1.686   9.861  0.0445  0.0676  0.3046
  583POPI   C3A 9301  15.395   1.584   9.365 -0.1401  0.1086 -0.1045
  583POPI   C4A 9302  15.527   1.686   8.969  0.2208 -0.2089 -0.1265
  583POPI   C1B 9303  15.598   1.041  10.339  0.3215  0.0298 -0.2763
  583POPI   C2B 9304  15.562   1.021   9.889  0.3210 -0.0434 -0.0155
  583POPI   C3B 9305  15.588   1.093   9.441  0.0873 -0.0419 -0.0569
  583POPI   C4B 9306  15.578   1.189   9.054  0.1960 -0.1762 -0.0311
  584POPI    C1 9307   2.185  11.384  11.465 -0.0599 -0.0133 -0.0965
  584POPI    C2 9308   1.816  11.286  11.583 -0.0406 -0.0430 -0.0606
  584POPI    C3 9309   2.133  11.146  11.783 -0.0100 -0.0165 -0.0907
  584POPI   PO4 9310   2.161  11.460  11.230  0.1754 -0.1121  0.0670
  584POPI   GL1 9311   1.921  11.668  10.897 -0.3098 -0.1859  0.2246
  584POPI   GL2 9312   2.277  11.506  10.736  0.5668 -0.4425  0.0497
  584POPI   C1A 9313   1.827  11.769  10.553 -0.0037  0.4974  0.1794
  584POPI   D2A 9314   1.802  11.873  10.190 -0.0573  0.0838 -0.2012
  584POPI   C3A 9315   1.777  11.818   9.794 -0.2787  0.2127  0.0816
  584POPI   C4A 9316   1.739  11.789   9.296 -0.2463  0.0278  0.2690
  584POPI   C1B 9317   2.305  11.657  10.353  0.3288 -0.1665  0.2329
  584POPI   C2B 9318   2.253  11.665   9.907  0.4169 -0.0804  0.0143
  584POPI   C3B 9319   2.222  11.757   9.491 -0.1595 -0.0397  0.1588
  584POPI   C4B 9320   2.100  11.679   8.971  0.0894 -0.1145 -0.0912
  585POPI    C1 9321   1.203  11.256  11.689  0.1274 -0.1163  0.1042
  585POPI    C2 9322   1.078  10.899  11.558 -0.2104  0.0741 -0.1090
  585POPI    C3 9323   1.004  11.012  11.935  0.2210 -0.2247  0.0731
  585POPI   PO4 9324   1.271  11.333  11.402 -0.2783 -0.1134 -0.1155
  585POPI   GL1 9325   1.169  11.360  10.999  0.2726  0.1396  0.1391
  585POPI   GL2 9326   0.937  11.503  10.963 -0.1501 -0.3565 -0.3195
  585POPI   C1A 9327   1.395  11.440  10.598 -0.1458  0.1341 -0.2736
  585POPI   D2A 9328   1.357  11.438  10.243  0.1680 -0.2507  0.3050
  585POPI   C3A 9329   1.374  11.473   9.826 -0.1300 -0.2407 -0.2200
  585POPI   C4A 9330   1.435  11.328   9.404 -0.4364  0.0717 -0.1758
  585POPI   C1B 9331   0.913  11.637  10.581  0.1261 -0.0711  0.0386
  585POPI   C2B 9332   0.928  11.655  10.124  0.0514  0.1935  0.0712
  585POPI   C3B 9333   0.889  11.581   9.782 -0.2376  0.2132  0.0512
  585POPI   C4B 9334   0.803  11.495   9.311  0.0263 -0.2132 -0.2060
  586POPI    C1 9335  10.699   5.487  11.041 -0.1708  0.0496 -0.0203
  586POPI    C2 9336  10.688   5.745  11.346 -0.1841  0.0219  0.0028
  586POPI    C3 9337  11.028   5.692  11.142 -0.1267 -0.0916  0.1268
  586POPI   PO4 9338  10.471   5.536  10.800  0.1248 -0.0157 -0.1183
  586POPI   GL1 9339  10.418   5.447  10.292  0.1503 -0.0741  0.1388
  586POPI   GL2 9340  10.710   5.371  10.103  0.1942 -0.1613 -0.1316
  586POPI   C1A 9341  10.185   5.231   9.920  0.0914 -0.0028  0.0097
  586POPI   D2A 9342   9.972   5.195   9.491  0.0586 -0.1038 -0.1375
  586POPI   C3A 9343  10.073   5.104   9.011 -0.2701 -0.0908 -0.1863
  586POPI   C4A 9344  10.176   5.188   8.619 -0.0352 -0.1070  0.1364
  586POPI   C1B 9345  10.630   5.210   9.636 -0.1653 -0.0431 -0.2548
  586POPI   C2B 9346  10.456   5.026   9.382 -0.0422 -0.2820  0.2206
  586POPI   C3B 9347  10.589   4.999   8.946  0.0180  0.0396  0.0540
  586POPI   C4B 9348  10.609   4.954   8.493 -0.2911 -0.2566  0.2067
  587POPI    C1 9349  11.151   5.248  11.128  0.0620  0.2236  0.0522
  587POPI    C2 9350  10.842   5.025  11.249  0.3708 -0.3166 -0.1218
  587POPI    C3 9351  10.997   5.302  11.493 -0.1406 -0.1499  0.0261
  587POPI   PO4 9352  11.166   5.309  10.863  0.3411  0.3465  0.3196
  587POPI   GL1 9353  11.175   5.229  10.304 -0.5008 -0.0033  0.2071
  587POPI   GL2 9354  11.273   5.559  10.155  0.1809  0.2909 -0.2239
  587POPI   C1A 9355  11.010   4.995   9.868 -0.0865  0.1480  0.2319
  587POPI   D2A 9356  10.964   4.851   9.344 -0.1501 -0.4193 -0.4582
  587POPI   C3A 9357  11.049   4.881   8.948  0.0403  0.1850 -0.1129
  587POPI   C4A 9358  11.121   4.960   8.446  0.0497 -0.0817  0.2700
  587POPI   C1B 9359  11.016   5.523   9.765  0.0277 -0.1665  0.1395
  587POPI   C2B 9360  10.984   5.405   9.293  0.2114  0.2050 -0.2718
  587POPI   C3B 9361  10.933   5.371   8.805 -0.1145  0.0034  0.1275
  587POPI   C4B 9362  11.053   5.479   8.410 -0.2329  0.0544  0.0675
  588DPPI    C1 9363   0.513  11.643  11.186  0.1556 -0.0629  0.0623
  588DPPI    C2 9364   0.471  11.680  11.581  0.0453  0.0168  0.0433
  588DPPI    C3 9365   0.837  11.664  11.420  0.0906  0.0132  0.1456
  588DPPI   PO4 9366   0.292  11.867  11.061  0.0950 -0.1287 -0.3006
  588DPPI   GL1 9367   0.033  11.866  10.655  0.0353 -0.1096  0.1062
  588DPPI   GL2 9368  -0.022  12.117  10.689  0.0987 -0.0228 -0.0628
  588DPPI   C1A 9369   0.020  11.585  10.246  0.0628  0.1635  0.3726
  588DPPI   C2A 9370   0.112  11.458   9.842  0.0492  0.0666 -0.1245
  588DPPI   C3A 9371  -0.029  11.277   9.494  0.2732 -0.2233  0.1100
  588DPPI   C4A 9372  -0.095  11.390   9.083 -0.0989 -0.0440  0.1145
  588DPPI   C1B 9373   0.149  12.292  10.410  0.0513  0.2261  0.0379
  588DPPI   C2B 9374   0.309  12.260  10.038 -0.2248 -0.0332 -0.1546
  588DPPI   C3B 9375   0.248  12.173   9.597  0.2394  0.1040 -0.2804
  588DPPI   C4B 9376   0.159  12.258   9.205  0.2337  0.2678  0.1781
  589DPPI    C1 9377  12.811  16.555  10.882 -0.0307 -0.0414  0.1256
  589DPPI    C2 9378  13.125  16.631  11.118  0.2020 -0.4324 -0.0493
  589DPPI    C3 9379  12.764  16.570  11.279  0.2652 -0.2370  0.1713
  589DPPI   PO4 9380  12.896  16.478  10.697 -0.2983 -0.1449  0.1298
  589DPPI   GL1 9381  12.785  16.352  10.294 -0.1870 -0.0979  0.1352
  589DPPI   GL2 9382  12.493  16.137  10.193 -0.2342 -0.0476 -0.0494
  589DPPI   C1A 9383  12.838  16.409   9.826  0.0312  0.0511  0.0973
  589DPPI   C2A 9384  12.796  16.427   9.360 -0.2398 -0.0047 -0.0126
  589DPPI   C3A 9385  12.732  16.238   8.932 -0.0760  0.0664 -0.1126
  589DPPI   C4A 9386  12.759  16.260   8.446  0.0634  0.2362 -0.1304
  589DPPI   C1B 9387  12.453  16.124   9.827 -0.4054 -0.1609  0.0468
  589DPPI   C2B 9388  12.440  16.057   9.381  0.1554  0.2254  0.0445
  589DPPI   C3B 9389  12.316  15.949   8.932 -0.0198 -0.1916  0.1443
  589DPPI   C4B 9390  12.039  16.044   8.519  0.1847  0.1258  0.0189
  590DPPI    C1 9391   3.702   2.604  11.452  0.2751 -0.0166 -0.0460
  590DPPI    C2 9392   3.640   2.587  11.847 -0.2011 -0.3470 -0.1263
  590DPPI    C3 9393   4.013   2.616  11.704 -0.0343 -0.0436  0.3470
  590DPPI   PO4 9394   3.614   2.772  11.272 -0.1696  0.1537  0.0370
  590DPPI   GL1 9395   3.811   2.877  10.749 -0.1065  0.2941  0.0007
  590DPPI   GL2 9396   3.641   3.142  10.737 -0.0107 -0.1535  0.0214
  590DPPI   C1A 9397   4.080   2.849  10.452  0.0510 -0.1468 -0.0446
  590DPPI   C2A 9398   4.097   2.896   9.926  0.2567 -0.0465  0.0140
  590DPPI   C3A 9399   3.999   2.849   9.461 -0.0298  0.0607  0.0022
  590DPPI   C4A 9400   3.923   2.973   9.053  0.4944 -0.1219  0.3622
  590DPPI   C1B 9401   3.550   3.137  10.246  0.0816  0.0125 -0.1403
  590DPPI   C2B 9402   3.565   3.137   9.829  0.0774 -0.2088 -0.0120
  590DPPI   C3B 9403   3.517   3.082   9.283  0.2043  0.2317  0.1159
  590DPPI   C4B 9404   3.405   2.986   8.876  0.0832  0.1331  0.1723
  591DPPI    C1 9405  15.778   6.727  11.122 -0.0176 -0.1449 -0.0010
  591DPPI    C2 9406  15.950   6.406  11.286 -0.0243 -0.1835 -0.0694
  591DPPI    C3 9407  15.701   6.363  10.976 -0.1294 -0.1247  0.0065
  591DPPI   PO4 9408  15.981   6.896  11.050 -0.2738  0.1870  0.0860
  591DPPI   GL1 9409  16.291   6.816  10.769 -0.1031 -0.1791 -0.1623
  591DPPI   GL2 9410  16.197   6.426  10.854 -0.0825  0.0549 -0.2003
  591DPPI   C1A 9411  16.249   6.611  10.333  0.3716  0.0317 -0.0448
  591DPPI   C2A 9412  16.261   6.485   9.950  0.2096 -0.1526 -0.0721
  591DPPI   C3A 9413  16.291   6.436   9.491  0.1331 -0.1581  0.4610
  591DPPI   C4A 9414  16.313   6.562   9.144  0.1522 -0.0921 -0.1119
  591DPPI   C1B 9415  15.909   6.285  10.497  0.1814  0.5644  0.0826
  591DPPI   C2B 9416  15.857   6.125  10.142 -0.3185 -0.0592 -0.0187
  591DPPI   C3B 9417  15.905   6.160   9.648  0.0935  0.0762  0.1566
  591DPPI   C4B 9418  15.916   6.273   9.209 -0.4165 -0.0843  0.0288
  592DPPI    C1 9419   9.692   1.210  11.269  0.0733 -0.1844  0.2933
  592DPPI    C2 9420   9.295   1.185  11.314  0.0058  0.1031 -0.0890
  592DPPI    C3 9421   9.530   1.231  11.634 -0.2544 -0.2033  0.1530
  592DPPI   PO4 9422   9.623   1.198  10.963  0.0706 -0.5455 -0.1703
  592DPPI   GL1 9423   9.557   1.443  10.527 -0.1627  0.2743 -0.1073
  592DPPI   GL2 9424   9.354   1.647  10.355  0.0097 -0.1682  0.2268
  592DPPI   C1A 9425   9.497   1.154  10.150 -0.3591  0.1867  0.1746
  592DPPI   C2A 9426   9.515   1.239   9.711  0.0568 -0.3338  0.0422
  592DPPI   C3A 9427   9.449   1.157   9.267 -0.0964 -0.0683 -0.2604
  592DPPI   C4A 9428   9.275   1.135   8.834  0.0446  0.0498 -0.1844
  592DPPI   C1B 9429   9.395   1.725   9.863  0.2878 -0.3377  0.0861
  592DPPI   C2B 9430   9.391   1.719   9.522 -0.0472  0.2722  0.1684
  592DPPI   C3B 9431   9.269   1.628   9.005  0.0476 -0.3841  0.2298
  592DPPI   C4B 9432   9.089   1.547   8.650 -0.1823 -0.0558 -0.2616
  593DPPI    C1 9433  16.162   2.303  11.334  0.2609  0.0349  0.0124
  593DPPI    C2 9434  15.803   2.293  11.510  0.1330 -0.0088 -0.2463
  593DPPI    C3 9435  16.135   2.259  11.731 -0.0141  0.2215  0.0170
  593DPPI   PO4 9436  16.098   2.106  11.165  0.1207  0.0771 -0.2058
  593DPPI   GL1 9437  15.958   2.071  10.755 -0.0690 -0.0329  0.0483
  593DPPI   GL2 9438  16.122   2.346  10.732  0.3050 -0.0294 -0.0092
  593DPPI   C1A 9439  15.840   2.082  10.421  0.0738  0.0853  0.3117
  593DPPI   C2A 9440  15.750   2.040   9.967  0.0927  0.1327  0.1111
  593DPPI   C3A 9441  15.738   1.908   9.542  0.0303 -0.0390 -0.0739
  593DPPI   C4A 9442  16.003   1.965   9.251 -0.1783 -0.1462  0.0444
  593DPPI   C1B 9443  16.248   2.309  10.329  0.0348  0.0412  0.0250
  593DPPI   C2B 9444  16.188   2.371   9.872 -0.2747 -0.0995  0.2437
  593DPPI   C3B 9445  16.294   2.343   9.521  0.1209  0.0324 -0.1249
  593DPPI   C4B 9446  16.345   2.244   9.051 -0.1068  0.1578  0.2164
  594DPPI    C1 9447   3.467   7.227  11.531 -0.0922 -0.1441  0.0250
  594DPPI    C2 9448   3.768   7.369  11.753  0.0490  0.1002 -0.3140
  594DPPI    C3 9449   3.390   7.436  11.863  0.1157  0.0270 -0.0317
  594DPPI   PO4 9450   3.545   7.084  11.361  0.1039  0.0066  0.0684
  594DPPI   GL1 9451   3.653   7.110  10.992  0.2877  0.1941 -0.3069
  594DPPI   GL2 9452   3.602   6.759  10.886  0.0525  0.1578  0.0774
  594DPPI   C1A 9453   3.580   7.198  10.657  0.1880  0.2856  0.0249
  594DPPI   C2A 9454   3.508   7.233  10.198 -0.2018  0.1731 -0.1065
  594DPPI   C3A 9455   3.553   7.270   9.777 -0.0369 -0.4233 -0.2156
  594DPPI   C4A 9456   3.633   7.383   9.361  0.1722 -0.0653 -0.0998
  594DPPI   C1B 9457   3.687   6.780  10.444  0.2099 -0.4220  0.0705
  594DPPI   C2B 9458   3.640   6.729  10.026  0.0987 -0.0005  0.0996
  594DPPI   C3B 9459   3.666   6.808   9.637 -0.3494  0.0894  0.0758
  594DPPI   C4B 9460   3.833   6.782   9.258 -0.1667  0.0951  0.0442
  595DPPI    C1 9461  13.431  12.039  11.240  0.0249  0.0251 -0.0482
  595DPPI    C2 9462  13.233  12.333  11.426 -0.1331 -0.1899  0.1304
  595DPPI    C3 9463  13.633  12.326  11.432 -0.1327 -0.0819  0.2868
  595DPPI   PO4 9464  13.235  12.008  10.979  0.1685  0.0961 -0.0963
  595DPPI   GL1 9465  13.072  12.222  10.606  0.2036  0.1604  0.2412
  595DPPI   GL2 9466  13.211  12.032  10.455  0.1245 -0.3489  0.1397
  595DPPI   C1A 9467  12.896  12.400  10.189  0.0342  0.0158 -0.1998
  595DPPI   C2A 9468  13.114  12.430   9.801 -0.0403 -0.1511  0.3397
  595DPPI   C3A 9469  13.207  12.326   9.380  0.3444 -0.0116  0.0968
  595DPPI   C4A 9470  13.206  12.452   8.971 -0.0379 -0.2679 -0.2815
  595DPPI   C1B 9471  13.237  11.965  10.068 -0.1146  0.3995 -0.2716
  595DPPI   C2B 9472  13.241  11.920   9.720 -0.0678 -0.1332  0.0930
  595DPPI   C3B 9473  13.201  11.763   9.322 -0.2027 -0.0833  0.3128
  595DPPI   C4B 9474  13.350  11.897   8.921 -0.0884 -0.0875 -0.0291
  596DPPI    C1 9475   1.952   7.418  11.673  0.1886  0.2356 -0.0733
  596DPPI    C2 9476   1.853   7.806  11.675 -0.0592  0.1745  0.1213
  596DPPI    C3 9477   1.635   7.543  11.883 -0.0424 -0.1082 -0.2090
  596DPPI   PO4 9478   1.928   7.337  11.435  0.0383 -0.1541 -0.1056
  596DPPI   GL1 9479   1.816   7.531  11.159 -0.1190  0.1809  0.1404
  596DPPI   GL2 9480   1.649   7.393  11.013  0.1570 -0.0350 -0.2496
  596DPPI   C1A 9481   2.018   7.691  10.828  0.2814 -0.1528 -0.0570
  596DPPI   C2A 9482   2.060   7.761  10.402 -0.2248  0.1592 -0.0394
  596DPPI   C3A 9483   2.076   7.755   9.953 -0.1953 -0.1831 -0.0421
  596DPPI   C4A 9484   2.218   7.770   9.542  0.3478  0.0223  0.0636
  596DPPI   C1B 9485   1.785   7.338  10.610  0.0919  0.0710  0.0338
  596DPPI   C2B 9486   1.716   7.403  10.191 -0.1004 -0.0095  0.1098
  596DPPI   C3B 9487   1.761   7.417   9.738  0.0159 -0.2260 -0.0396
  596DPPI   C4B 9488   1.793   7.579   9.362  0.2895 -0.2587  0.1342
  597PYPI    C1 9489  10.791  13.450  10.764 -0.2432  0.0484  0.0686
  597PYPI    C2 9490  10.811  13.448  11.163 -0.0332 -0.1515  0.0592
  597PYPI    C3 9491  11.135  13.537  10.947 -0.1744  0.0644 -0.0672
  597PYPI   PO4 9492  10.562  13.485  10.731 -0.1074  0.2619  0.1910
  597PYPI   GL1 9493  10.313  13.331  10.412  0.2925  0.1505 -0.0021
  597PYPI   GL2 9494  10.562  13.370  10.220  0.0557  0.2271  0.0649
  597PYPI   C1A 9495  10.096  13.321   9.941 -0.0937 -0.1903 -0.0385
  597PYPI   C2A 9496  10.142  13.288   9.516  0.4266  0.1855 -0.3755
  597PYPI   D3A 9497  10.303  13.451   9.132 -0.3378  0.0129  0.1017
  597PYPI   C4A 9498  10.590  13.752   9.184 -0.0856 -0.1608 -0.0961
  597PYPI   C1B 9499  10.669  13.243   9.854  0.1397 -0.2047  0.2662
  597PYPI   C2B 9500  10.675  13.164   9.446 -0.1361  0.1236  0.0805
  597PYPI   C3B 9501  10.735  13.210   8.997  0.2603 -0.2800  0.2255
  597PYPI   C4B 9502  10.874  13.432   8.659 -0.1683 -0.0218  0.1289
  598PYPI    C1 9503   0.337  15.322  11.426 -0.1644  0.0886  0.0339
  598PYPI    C2 9504  -0.006  15.196  11.588  0.0151 -0.1743  0.2187
  598PYPI    C3 9505   0.252  14.931  11.436  0.2093  0.0079  0.2269
  598PYPI   PO4 9506   0.320  15.497  11.187 -0.1465 -0.2116  0.0750
  598PYPI   GL1 9507   0.206  15.554  10.692  0.1374 -0.0878 -0.3237
  598PYPI   GL2 9508   0.035  15.304  10.560 -0.1795  0.1749  0.5418
  598PYPI   C1A 9509   0.371  15.594  10.282  0.0852 -0.1916  0.1066
  598PYPI   C2A 9510   0.428  15.528   9.866 -0.1013 -0.1244  0.0833
  598PYPI   D3A 9511   0.347  15.525   9.446 -0.1322 -0.0109  0.2481
  598PYPI   C4A 9512   0.525  15.629   9.102  0.1632 -0.1327 -0.0449
  598PYPI   C1B 9513  -0.094  15.249  10.111  0.1032  0.1032 -0.0619
  598PYPI   C2B 9514  -0.015  15.154   9.725 -0.0458 -0.2240 -0.2540
  598PYPI   C3B 9515   0.004  15.192   9.276 -0.0367 -0.1415 -0.0545
  598PYPI   C4B 9516   0.235  15.244   8.793 -0.0724  0.2460 -0.5006
  599PYPI    C1 9517   8.318   0.321  11.092 -0.0985 -0.0144  0.0730
  599PYPI    C2 9518   8.489   0.254  11.448  0.1730  0.0321 -0.0455
  599PYPI    C3 9519   8.092   0.298  11.421  0.1520  0.0438  0.2526
  599PYPI   PO4 9520   8.451   0.486  10.908  0.0707 -0.2501 -0.0914
  599PYPI   GL1 9521   8.265   0.517  10.567 -0.2024  0.0651  0.2883
  599PYPI   GL2 9522   8.069   0.770  10.724 -0.1259  0.1071 -0.0419
  599PYPI   C1A 9523   8.171   0.535  10.109  0.2617 -0.0620  0.1652
  599PYPI   C2A 9524   8.119   0.582   9.719 -0.2854 -0.0441 -0.1321
  599PYPI   D3A 9525   8.130   0.525   9.232  0.1113  0.0436  0.1214
  599PYPI   C4A 9526   8.274   0.673   8.855 -0.2618 -0.0228 -0.2462
  599PYPI   C1B 9527   7.789   0.676  10.401  0.0203  0.1924  0.2030
  599PYPI   C2B 9528   7.694   0.744   9.985  0.1667  0.4289  0.0496
  599PYPI   C3B 9529   7.678   0.805   9.498 -0.0130 -0.4049  0.2549
  599PYPI   C4B 9530   7.759   0.797   9.024  0.0482 -0.0797 -0.2811
  600PYPI    C1 9531   8.105   8.185  10.766 -0.0125 -0.0378 -0.0401
  600PYPI    C2 9532   7.991   8.006  11.106 -0.1585  0.1443  0.0089
  600PYPI    C3 9533   8.223   8.332  11.119  0.0867 -0.0234 -0.0790
  600PYPI   PO4 9534   7.883   8.216  10.552  0.3265 -0.0595  0.0877
  600PYPI   GL1 9535   8.029   8.139  10.113 -0.2639  0.0024  0.4314
  600PYPI   GL2 9536   8.147   8.437  10.211  0.2973  0.4358  0.0110
  600PYPI   C1A 9537   7.970   8.258   9.757 -0.0560  0.0752  0.1104
  600PYPI   C2A 9538   7.979   8.227   9.333 -0.2718 -0.0610 -0.0585
  600PYPI   D3A 9539   8.008   8.193   8.901  0.1607 -0.2030  0.1692
  600PYPI   C4A 9540   8.120   8.273   8.564  0.1166  0.1008  0.3813
  600PYPI   C1B 9541   7.866   8.710  10.010 -0.0721  0.0414 -0.1051
  600PYPI   C2B 9542   7.842   8.760   9.554  0.0956  0.0841 -0.1094
  600PYPI   C3B 9543   7.900   8.702   9.104 -0.3040 -0.0533  0.0159
  600PYPI   C4B 9544   7.971   8.727   8.643  0.2226 -0.2453 -0.0114
  601PYPI    C1 9545   8.537   3.270  11.470 -0.0660  0.0385  0.1892
  601PYPI    C2 9546   8.598   3.659  11.542 -0.1801  0.1181 -0.1287
  601PYPI    C3 9547   8.393   3.437  11.804 -0.0787  0.2609  0.0744
  601PYPI   PO4 9548   8.412   3.260  11.277 -0.2278  0.2471 -0.1112
  601PYPI   GL1 9549   8.258   3.526  10.853 -0.0521 -0.0369  0.0389
  601PYPI   GL2 9550   8.194   3.214  10.836  0.1681 -0.1538  0.1036
  601PYPI   C1A 9551   8.284   3.511  10.428  0.1755 -0.0264 -0.1101
  601PYPI   C2A 9552   8.113   3.435   9.971  0.0446 -0.0167  0.3185
  601PYPI   D3A 9553   8.178   3.525   9.617 -0.1494  0.0526 -0.1583
  601PYPI   C4A 9554   8.074   3.500   9.231  0.0876  0.1011  0.0729
  601PYPI   C1B 9555   8.252   2.982  10.510  0.2161 -0.1172 -0.1989
  601PYPI   C2B 9556   8.230   2.942  10.069  0.0569 -0.3225 -0.2036
  601PYPI   C3B 9557   8.256   2.955   9.683  0.1310  0.1941 -0.2782
  601PYPI   C4B 9558   8.198   2.980   9.244 -0.0431  0.0602 -0.0295
  602PYPI    C1 9559  12.714  11.264  10.776 -0.1105  0.1280 -0.1053
  602PYPI    C2 9560  12.405  11.247  11.029  0.0237 -0.2346  0.0404
  602PYPI    C3 9561  12.774  11.313  11.168  0.0644 -0.1834 -0.0904
  602PYPI   PO4 9562  12.633  11.321  10.528 -0.1660  0.2649 -0.1505
  602PYPI   GL1 9563  12.372  11.265  10.215  0.0059  0.1217  0.2609
  602PYPI   GL2 9564  12.412  11.558  10.112  0.1321 -0.0275 -0.0497
  602PYPI   C1A 9565  12.513  11.192   9.748 -0.0462  0.0394  0.0228
  602PYPI   C2A 9566  12.415  11.095   9.275 -0.0698 -0.1183 -0.3016
  602PYPI   D3A 9567  12.436  11.085   8.846  0.1562 -0.0935  0.0456
  602PYPI   C4A 9568  12.140  11.037   8.538  0.1247 -0.1853  0.2156
  602PYPI   C1B 9569  12.486  11.699   9.658  0.1368  0.1237 -0.0328
  602PYPI   C2B 9570  12.449  11.626   9.255 -0.1900 -0.0216  0.1658
  602PYPI   C3B 9571  12.413  11.767   8.887 -0.1124  0.0427 -0.4093
  602PYPI   C4B 9572  12.320  11.618   8.529  0.1030  0.0745 -0.2113
  603ERGO   ROH 9573  10.414   4.946  10.262  0.1237 -0.1680  0.1479
  603ERGO    R1 9574  10.573   4.783  10.094 -0.0245 -0.3571  0.1884
  603ERGO    R2 9575  10.467   4.581   9.938 -0.2703 -0.0455 -0.0582
  603ERGO    R3 9576  10.596   4.712   9.738  0.1813 -0.1414  0.1556
  603ERGO    R4 9577  10.499   4.465   9.614 -0.1925  0.1269 -0.1142
  603ERGO    R5 9578  10.704   4.539   9.613 -0.0356 -0.2673  0.1365
  603ERGO    C1 9579  10.638   4.520   9.237  0.2766  0.1374  0.0539
  603ERGO    C2 9580  10.666   4.448   8.896  0.0562  0.0795 -0.1793
  604ERGO   ROH 9581  16.553   8.269   7.038  0.1337 -0.0086 -0.0157
  604ERGO    R1 9582  16.618   8.303   7.311  0.0373  0.0097  0.0062
  604ERGO    R2 9583  16.491   8.164   7.514  0.1059 -0.1315 -0.0431
  604ERGO    R3 9584  16.745   8.094   7.581  0.1521  0.0783  0.0058
  604ERGO    R4 9585  16.587   8.044   7.823  0.1122 -0.2146 -0.0777
  604ERGO    R5 9586  16.768   8.165   7.808  0.0004 -0.0282  0.0553
  604ERGO    C1 9587  16.882   7.908   8.067  0.1590 -0.0660 -0.0520
  604ERGO    C2 9588  16.961   7.789   8.358  0.2116 -0.3034 -0.0794
  605ERGO   ROH 9589   0.344   0.306  10.629 -0.3176  0.1864  0.0610
  605ERGO    R1 9590   0.328   0.379  10.356 -0.3509  0.0626  0.0291
  605ERGO    R2 9591   0.542   0.355  10.183 -0.2623  0.3186  0.0988
  605ERGO    R3 9592   0.366   0.211  10.035 -0.0090 -0.0049  0.1010
  605ERGO    R4 9593   0.537   0.344   9.837 -0.2467  0.3054  0.0990
  605ERGO    R5 9594   0.319   0.350   9.845 -0.2635 -0.0868  0.1007
  605ERGO    C1 9595   0.368   0.202   9.497  0.0001 -0.0059  0.1013
  605ERGO    C2 9596   0.367   0.275   9.056 -0.0137 -0.0015  0.0239
  606ERGO   ROH 9597   7.333  15.543  10.388 -0.1170 -0.1304 -0.1460
  606ERGO    R1 9598   7.260  15.582  10.118 -0.0615  0.0165 -0.1410
  606ERGO    R2 9599   7.354  15.795   9.968  0.1291 -0.0099 -0.0664
  606ERGO    R3 9600   7.433  15.598   9.798 -0.0181 -0.0244 -0.1190
  606ERGO    R4 9601   7.334  15.811   9.623  0.0331  0.0460 -0.0583
  606ERGO    R5 9602   7.271  15.602   9.622 -0.0680  0.0780 -0.0696
  606ERGO    C1 9603   7.397  15.636   9.263 -0.1611  0.0650 -0.1028
  606ERGO    C2 9604   7.363  15.566   8.927  0.5019  0.0945  0.4998
  607ERGO   ROH 9605  17.368   7.838  10.753 -0.3078 -0.1644  0.2610
  607ERGO    R1 9606  17.464   7.804  10.489 -0.2236 -0.0049  0.2700
  607ERGO    R2 9607  17.547   7.559  10.390  0.0976  0.1099  0.2437
  607ERGO    R3 9608  17.366   7.613  10.195  0.0576 -0.0838  0.2251
  607ERGO    R4 9609  17.612   7.545  10.051  0.0997  0.0211  0.2475
  607ERGO    R5 9610  17.493   7.725  10.026 -0.0192 -0.0659  0.1794
  607ERGO    C1 9611  17.480   7.587   9.670  0.0633 -0.2124  0.2322
  607ERGO    C2 9612  17.404   7.646   9.343 -0.1046  0.2538 -0.1183
  608ERGO   ROH 9613  17.447  16.096  10.690 -0.1274  0.2267 -0.0276
  608ERGO    R1 9614  17.394  16.217  10.440 -0.0858  0.1422 -0.0775
  608ERGO    R2 9615  17.593  16.271  10.256 -0.0516  0.1037 -0.0520
  608ERGO    R3 9616  17.433  16.127  10.089 -0.0015  0.0349 -0.0410
  608ERGO    R4 9617  17.603  16.285   9.910  0.0034  0.0139 -0.0546
  608ERGO    R5 9618  17.385  16.276   9.909  0.0051 -0.0202 -0.0886
  608ERGO    C1 9619  17.458  16.158   9.553  0.0822 -0.1027 -0.0458
  608ERGO    C2 9620  17.448  16.240   9.197 -0.0740 -0.2656 -0.0629
  609ERGO   ROH 9621   1.581   9.543  11.012 -0.1199  0.0436 -0.0826
  609ERGO    R1 9622   1.768   9.501  10.804 -0.0392  0.2089 -0.0448
  609ERGO    R2 9623   1.761   9.279  10.641  0.2215  0.1758 -0.0125
  609ERGO    R3 9624   1.757   9.465  10.442  0.0601  0.1434 -0.0421
  609ERGO    R4 9625   1.776   9.207  10.303  0.2702  0.1304 -0.0013
  609ERGO    R5 9626   1.908   9.378  10.278  0.1292  0.2400 -0.0326
  609ERGO    C1 9627   1.782   9.340   9.920  0.1471  0.0737 -0.0223
  609ERGO    C2 9628   1.793   9.293   9.492  0.0398  0.1462 -0.0763
  610ERGO   ROH 9629   2.048  11.072  10.816  0.1135  0.0623  0.0461
  610ERGO    R1 9630   1.898  11.069  10.576  0.1020 -0.1069  0.0542
  610ERGO    R2 9631   1.839  11.299  10.434 -0.2123 -0.1619  0.0861
  610ERGO    R3 9632   1.952  11.162  10.228 -0.0387  0.0119  0.0636
  610ERGO    R4 9633   1.820  11.392  10.102 -0.0782  0.0193  0.1276
  610ERGO    R5 9634   1.794  11.182  10.050  0.0487  0.0383 -0.0094
  610ERGO    C1 9635   1.916  11.318   9.715  0.1628  0.2882  0.1306
  610ERGO    C2 9636   1.996  11.385   9.328 -0.0646  0.1376  0.4610
  611ERGO   ROH 9637  12.032  11.413   9.799 -0.2683 -0.2895  0.1194
  611ERGO    R1 9638  12.116  11.395   9.529 -0.0608  0.0574  0.1541
  611ERGO    R2 9639  11.999  11.222   9.348  0.4148 -0.0927 -0.0300
  611ERGO    R3 9640  11.966  11.449   9.202  0.0147 -0.0600  0.1004
  611ERGO    R4 9641  11.960  11.232   9.005  0.2503  0.0345 -0.0083
  611ERGO    R5 9642  12.088  11.408   9.000 -0.0113  0.2286  0.0244
  611ERGO    C1 9643  11.906  11.451   8.668 -0.2211  0.1392  0.1267
  611ERGO    C2 9644  11.755  11.271   8.385  0.0945 -0.0235 -0.0663
  612ERGO   ROH 9645  13.329   6.478   9.818 -0.1552 -0.0258 -0.1244
  612ERGO    R1 9646  13.529   6.505   9.619 -0.1497 -0.0686 -0.1243
  612ERGO    R2 9647  13.555   6.327   9.409 -0.2657 -0.0049 -0.1904
  612ERGO    R3 9648  13.538   6.552   9.259 -0.1395  0.0612 -0.1081
  612ERGO    R4 9649  13.547   6.334   9.064 -0.3072  0.1178 -0.1876
  612ERGO    R5 9650  13.677   6.508   9.069 -0.1910  0.0343 -0.1424
  612ERGO    C1 9651  13.527   6.550   8.721 -0.2130  0.2514 -0.1088
  612ERGO    C2 9652  13.641   6.622   8.317 -0.1098  0.2942 -0.2902
  613ERGO   ROH 9653  12.413  15.700  10.360  0.0834 -0.2341  0.0603
  613ERGO    R1 9654  12.356  15.567  10.116  0.1707 -0.1309 -0.0163
  613ERGO    R2 9655  12.252  15.698   9.896  0.1276 -0.0642  0.0513
  613ERGO    R3 9656  12.467  15.589   9.771  0.1890  0.1074  0.0011
  613ERGO    R4 9657  12.280  15.649   9.555  0.0113 -0.1727  0.0558
  613ERGO    R5 9658  12.374  15.457   9.595  0.2345 -0.0669  0.0974
  613ERGO    C1 9659  12.498  15.518   9.239  0.0012 -0.0748  0.0112
  613ERGO    C2 9660  12.570  15.489   8.875  0.0855 -0.3679 -0.0274
  614ERGO   ROH 9661   5.967  15.000  10.672 -0.0270 -0.0618  0.1078
  614ERGO    R1 9662   5.918  14.969  10.395 -0.0381 -0.0420  0.1085
  614ERGO    R2 9663   5.875  15.183  10.226  0.1543 -0.0195  0.0920
  614ERGO    R3 9664   6.078  15.071  10.084  0.0671 -0.2036  0.1075
  614ERGO    R4 9665   5.909  15.203   9.883  0.3771  0.2520  0.1250
  614ERGO    R5 9666   5.974  14.994   9.883  0.0554  0.1436 -0.0288
  614ERGO    C1 9667   6.120  15.109   9.550  0.4249  0.2373  0.1587
  614ERGO    C2 9668   6.181  15.140   9.188  0.2675 -0.0859 -0.0150
  615ERGO   ROH 9669   3.220   2.913  10.815  0.4488  0.1831 -0.0052
  615ERGO    R1 9670   3.299   2.846  10.552  0.2208 -0.2042  0.0194
  615ERGO    R2 9671   3.177   2.645  10.406 -0.4131  0.0743  0.1453
  615ERGO    R3 9672   3.146   2.842  10.222  0.1626  0.0844  0.0387
  615ERGO    R4 9673   3.169   2.596  10.064 -0.6674 -0.1195  0.1747
  615ERGO    R5 9674   3.288   2.777  10.040 -0.0794 -0.4921  0.0292
  615ERGO    C1 9675   3.135   2.753   9.692 -0.2749 -0.2229  0.0918
  615ERGO    C2 9676   3.097   2.789   9.277  0.2108 -0.0445 -0.1569
  616ERGO   ROH 9677   8.926  14.519  10.826 -0.1430  0.0175  0.0606
  616ERGO    R1 9678   8.982  14.655  10.584 -0.1380  0.0280  0.0682
  616ERGO    R2 9679   9.121  14.536  10.376 -0.0381  0.0750  0.1109
  616ERGO    R3 9680   8.903  14.610  10.231 -0.0308 -0.0216  0.0493
  616ERGO    R4 9681   9.106  14.541  10.031  0.1282  0.2566  0.1040
  616ERGO    R5 9682   8.993  14.727  10.044 -0.0325  0.1610  0.1582
  616ERGO    C1 9683   8.892  14.613   9.694  0.2319  0.2716  0.0421
  616ERGO    C2 9684   8.851  14.676   9.416 -0.1088  0.1766  0.1047
  617ERGO   ROH 9685   8.793   0.293  10.481  0.1237 -0.3540  0.0017
  617ERGO    R1 9686   8.709   0.418  10.241  0.0469 -0.1969  0.1088
  617ERGO    R2 9687   8.885   0.482  10.037 -0.0073 -0.0012  0.1216
  617ERGO    R3 9688   8.711   0.337   9.886  0.0013  0.0657  0.0465
  617ERGO    R4 9689   8.829   0.529   9.699  0.0051  0.1558  0.1407
  617ERGO    R5 9690   8.617   0.497   9.734  0.0043  0.1354  0.1169
  617ERGO    C1 9691   8.634   0.421   9.361  0.0203  0.3100  0.0812
  617ERGO    C2 9692   8.642   0.485   9.115 -0.3708  0.1252 -0.0286
  618ERGO   ROH 9693   5.197   3.736  10.940 -0.2573 -0.1040 -0.1239
  618ERGO    R1 9694   5.188   3.871  10.691  0.0476 -0.0846 -0.1276
  618ERGO    R2 9695   5.402   3.877  10.517  0.1457 -0.3655 -0.0160
  618ERGO    R3 9696   5.220   3.780  10.340  0.1060 -0.1193 -0.1146
  618ERGO    R4 9697   5.362   3.990  10.193  0.2272 -0.0525  0.0789
  618ERGO    R5 9698   5.147   3.973  10.219  0.2122  0.0326  0.0508
  618ERGO    C1 9699   5.168   3.965   9.838  0.2373  0.3608  0.0415
  618ERGO    C2 9700   5.192   3.913   9.528 -0.2483  0.2805  0.0146
  619ERGO   ROH 9701  10.919  16.356  10.299  0.2582  0.1647  0.1020
  619ERGO    R1 9702  10.960  16.506  10.062  0.0078  0.1072  0.0199
  619ERGO    R2 9703  11.147  16.435   9.872  0.0695  0.2690  0.0198
  619ERGO    R3 9704  10.934  16.446   9.704  0.0177 -0.1046  0.0530
  619ERGO    R4 9705  11.166  16.408   9.528  0.0827  0.4229  0.0075
  619ERGO    R5 9706  11.015  16.565   9.512 -0.2438  0.1307  0.0814
  619ERGO    C1 9707  10.976  16.402   9.170  0.0417  0.1618  0.0314
  619ERGO    C2 9708  10.932  16.421   8.864 -0.3512 -0.1714 -0.1817
  620ERGO   ROH 9709  10.486  11.001  10.180  0.0234 -0.1496 -0.0741
  620ERGO    R1 9710  10.632  11.063   9.946  0.1645 -0.1109  0.0227
  620ERGO    R2 9711  10.640  10.894   9.727  0.1544  0.0028 -0.0684
  620ERGO    R3 9712  10.558  11.116   9.594  0.3495  0.1296  0.0184
  620ERGO    R4 9713  10.657  10.936   9.384 -0.0624  0.0112 -0.0786
  620ERGO    R5 9714  10.718  11.142   9.418  0.2469 -0.0735 -0.1070
  620ERGO    C1 9715  10.589  11.169   9.060 -0.0055  0.1349 -0.0033
  620ERGO    C2 9716  10.457  11.235   8.687  0.1750  0.2914  0.1279
  621ERGO   ROH 9717   5.978  11.433  10.470 -0.3371 -0.1899 -0.0611
  621ERGO    R1 9718   6.076  11.368  10.213 -0.2251 -0.3610  0.0242
  621ERGO    R2 9719   5.928  11.224  10.029 -0.3326 -0.0793 -0.1096
  621ERGO    R3 9720   5.982  11.437   9.868  0.2091 -0.1654 -0.0635
  621ERGO    R4 9721   5.926  11.215   9.684 -0.4823  0.0200 -0.1132
  621ERGO    R5 9722   6.103  11.342   9.685 -0.1088 -0.4646 -0.1343
  621ERGO    C1 9723   5.975  11.409   9.332 -0.0609 -0.0029 -0.0721
  621ERGO    C2 9724   5.891  11.342   9.116 -0.2449  0.0937  0.2094
  622ERGO   ROH 9725  14.660   5.370   6.464  0.2103 -0.0695 -0.0744
  622ERGO    R1 9726  14.538   5.366   6.719  0.1304  0.1296 -0.1079
  622ERGO    R2 9727  14.480   5.132   6.853 -0.1507  0.2262 -0.0556
  622ERGO    R3 9728  14.625   5.247   7.052 -0.0896  0.1348 -0.0465
  622ERGO    R4 9729  14.386   5.141   7.185  0.0164 -0.0552  0.0024
  622ERGO    R5 9730  14.460   5.346   7.196 -0.0555 -0.0319  0.1132
  622ERGO    C1 9731  14.467   5.254   7.566  0.1710 -0.3050  0.0447
  622ERGO    C2 9732  14.436   5.117   7.801  0.3079 -0.0373  0.0440
  623ERGO   ROH 9733   0.239   7.464   6.937  0.1364  0.2328  0.0284
  623ERGO    R1 9734   0.212   7.630   7.165  0.1325  0.0653  0.1516
  623ERGO    R2 9735   0.036   7.572   7.371  0.1335 -0.0902  0.1095
  623ERGO    R3 9736   0.260   7.595   7.524  0.1321 -0.1978  0.1288
  623ERGO    R4 9737   0.038   7.606   7.715  0.1207 -0.1354  0.1142
  623ERGO    R5 9738   0.199   7.751   7.695  0.1800 -0.1954  0.1446
  623ERGO    C1 9739   0.249   7.647   8.059  0.1119 -0.2628  0.1351
  623ERGO    C2 9740   0.346   7.574   8.334 -0.2569  0.1575  0.0720
  624ERGO   ROH 9741  11.739  16.682  10.307 -0.2410 -0.0057 -0.0684
  624ERGO    R1 9742  11.762  16.570  10.048 -0.2080 -0.0213 -0.0604
  624ERGO    R2 9743  11.553  16.568   9.867 -0.1274  0.1581 -0.1678
  624ERGO    R3 9744  11.733  16.689   9.705  0.0577  0.0130 -0.0718
  624ERGO    R4 9745  11.576  16.519   9.526  0.0332  0.1235 -0.1511
  624ERGO    R5 9746  11.793  16.521   9.545  0.0229 -0.0386 -0.0273
  624ERGO    C1 9747  11.759  16.605   9.175  0.3005 -0.0330 -0.0512
  624ERGO    C2 9748  11.837  16.516   8.844  0.1518 -0.1885  0.1018
  625ERGO   ROH 9749  17.344  14.274  10.612 -0.0560 -0.0948 -0.1147
  625ERGO    R1 9750  17.275  14.360  10.352 -0.0936 -0.1149 -0.1116
  625ERGO    R2 9751  17.457  14.482  10.182 -0.1404 -0.0481 -0.1153
  625ERGO    R3 9752  17.381  14.284  10.012 -0.0759 -0.0731 -0.1151
  625ERGO    R4 9753  17.466  14.503   9.837 -0.1192 -0.0590 -0.1154
  625ERGO    R5 9754  17.275  14.399   9.831 -0.0909 -0.1078 -0.1274
  625ERGO    C1 9755  17.400  14.330   9.477 -0.0462 -0.0888 -0.1155
  625ERGO    C2 9756  17.436  14.310   9.073 -0.1118  0.1961 -0.0031
  626ERGO   ROH 9757  14.138  13.915  10.362 -0.0558 -0.1393 -0.1315
  626ERGO    R1 9758  14.066  13.869  10.092 -0.0941 -0.0335 -0.1412
  626ERGO    R2 9759  14.048  14.072   9.906 -0.0612  0.0357 -0.0780
  626ERGO    R3 9760  14.219  13.914   9.766 -0.1119  0.0358 -0.1383
  626ERGO    R4 9761  14.086  14.077   9.562 -0.0327  0.1689 -0.0723
  626ERGO    R5 9762  14.100  13.860   9.565 -0.1131  0.1674 -0.1689
  626ERGO    C1 9763  14.269  13.932   9.231 -0.0637  0.2468 -0.1256
  626ERGO    C2 9764  14.316  13.916   8.891  0.0330  0.0051 -0.0760
  627ERGO   ROH 9765  12.094   9.157   9.957 -0.1259 -0.1178  0.0251
  627ERGO    R1 9766  12.242   9.283   9.751  0.2275 -0.3366  0.1344
  627ERGO    R2 9767  12.415   9.145   9.586 -0.1248 -0.6816  0.0290
  627ERGO    R3 9768  12.266   9.257   9.389  0.1632 -0.1116  0.1140
  627ERGO    R4 9769  12.499   9.148   9.251 -0.0990 -0.5747  0.0363
  627ERGO    R5 9770  12.426   9.352   9.239  0.4158 -0.3687  0.2178
  627ERGO    C1 9771  12.407   9.254   8.871  0.1865  0.0225  0.1203
  627ERGO    C2 9772  12.598   9.337   8.558  0.2463  0.1601  0.0759
  628ERGO   ROH 9773   9.220  13.754  10.519  0.0151 -0.1999 -0.0586
  628ERGO    R1 9774   9.295  13.636  10.273 -0.2638 -0.2464 -0.1261
  628ERGO    R2 9775   9.112  13.571  10.077 -0.4394  0.2400 -0.1432
  628ERGO    R3 9776   9.273  13.724   9.921 -0.1223 -0.0182 -0.0797
  628ERGO    R4 9777   9.085  13.598   9.734 -0.1435  0.1617 -0.1746
  628ERGO    R5 9778   9.303  13.594   9.722 -0.1374 -0.1228 -0.0114
  628ERGO    C1 9779   9.220  13.757   9.387  0.3266 -0.1263 -0.1334
  628ERGO    C2 9780   9.041  13.756   9.113 -0.0144 -0.0146  0.0495
  629ERGO   ROH 9781   7.102  10.181  10.586 -0.0564  0.1309  0.0523
  629ERGO    R1 9782   7.026  10.376  10.395  0.1057  0.1610  0.0187
  629ERGO    R2 9783   7.206  10.488  10.217  0.1553 -0.1956 -0.1575
  629ERGO    R3 9784   7.026  10.403  10.032 -0.1075 -0.0042  0.0029
  629ERGO    R4 9785   7.196  10.591   9.887  0.0739 -0.2935 -0.1868
  629ERGO    R5 9786   6.979  10.597   9.900  0.0803  0.0260 -0.0291
  629ERGO    C1 9787   7.021  10.572   9.522 -0.2203 -0.1708 -0.0534
  629ERGO    C2 9788   7.099  10.455   9.169  0.0877  0.0298 -0.3806
  630ERGO   ROH 9789  15.945   1.597  10.524 -0.0267 -0.0781 -0.0259
  630ERGO    R1 9790  15.979   1.444  10.288  0.1637 -0.0117 -0.0430
  630ERGO    R2 9791  15.787   1.432  10.089  0.1827 -0.2177 -0.0478
  630ERGO    R3 9792  15.994   1.509   9.930  0.0970  0.0471 -0.0359
  630ERGO    R4 9793  15.779   1.438   9.744  0.1585 -0.1361 -0.0462
  630ERGO    R5 9794  15.983   1.361   9.742  0.2461  0.0808 -0.0747
  630ERGO    C1 9795  15.969   1.515   9.393  0.0639  0.1600 -0.0340
  630ERGO    C2 9796  16.003   1.515   9.034 -0.1040 -0.0317  0.0427
  631ERGO   ROH 9797   4.550   7.409  10.711 -0.2047 -0.2686 -0.0299
  631ERGO    R1 9798   4.437   7.376  10.454 -0.2272 -0.0814 -0.0455
  631ERGO    R2 9799   4.381   7.590  10.287 -0.0121  0.0256  0.0138
  631ERGO    R3 9800   4.533   7.451  10.111 -0.1390 -0.0729 -0.0188
  631ERGO    R4 9801   4.364   7.621   9.944 -0.0089  0.0983  0.0207
  631ERGO    R5 9802   4.386   7.405   9.928 -0.1900  0.0810 -0.0171
  631ERGO    C1 9803   4.497   7.509   9.578 -0.1263  0.0482 -0.0059
  631ERGO    C2 9804   4.402   7.580   9.307  0.2052  0.0457  0.0210
  632ERGO   ROH 9805   6.604   0.156  10.754  0.0377 -0.2640  0.0576
  632ERGO    R1 9806   6.492   0.073  10.507 -0.1031 -0.0798  0.0589
  632ERGO    R2 9807   6.386   0.251  10.324  0.2924  0.1111  0.0145
  632ERGO    R3 9808   6.559   0.129  10.154  0.0658 -0.2862  0.0543
  632ERGO    R4 9809   6.373   0.272   9.979  0.2445 -0.0913  0.0018
  632ERGO    R5 9810   6.424   0.060   9.969 -0.0957 -0.1925  0.1291
  632ERGO    C1 9811   6.529   0.169   9.619  0.0040 -0.5821  0.0319
  632ERGO    C2 9812   6.495   0.116   9.274 -0.0625  0.2104 -0.1264
  633ERGO   ROH 9813  15.688  17.600  10.589  0.0351 -0.1146 -0.1774
  633ERGO    R1 9814  15.762  17.709  10.339 -0.0962 -0.0373 -0.1822
  633ERGO    R2 9815  15.873  17.556  10.137 -0.0075  0.0695 -0.2048
  633ERGO    R3 9816  15.669  17.660   9.991 -0.1125 -0.0870 -0.1733
  633ERGO    R4 9817  15.894  17.641   9.803 -0.0795  0.1844 -0.1816
  633ERGO    R5 9818  15.775  17.819   9.846 -0.2586  0.0625 -0.1275
  633ERGO    C1 9819  15.714  17.787   9.470 -0.2202  0.1047 -0.1384
  633ERGO    C2 9820  15.710  17.673   9.219 -0.0726 -0.2827  0.0955
  634PSPI    C1 9821   4.522   6.957   6.068  0.0842  0.0809  0.0687
  634PSPI    C2 9822   4.637   7.260   5.833 -0.1864  0.1114 -0.0276
  634PSPI    C3 9823   4.571   6.898   5.675 -0.2711  0.1069  0.0174
  634PSPI   PO4 9824   4.391   7.075   6.241 -0.0904 -0.2170  0.1366
  634PSPI   GL1 9825   4.255   7.297   6.614 -0.1167  0.1122  0.2381
  634PSPI   GL2 9826   3.959   7.428   6.867  0.4117  0.0070  0.2020
  634PSPI   C1A 9827   4.656   7.288   6.846  0.0660 -0.1828  0.1635
  634PSPI   C2A 9828   4.797   7.383   7.254  0.2242 -0.0200  0.0134
  634PSPI   C3A 9829   4.918   7.463   7.635 -0.0476 -0.0893 -0.2526
  634PSPI   C4A 9830   4.912   7.375   8.033  0.2454  0.0221  0.1233
  634PSPI   C1B 9831   4.113   7.172   7.215 -0.1030  0.0339  0.1878
  634PSPI   C2B 9832   4.194   7.035   7.570  0.1049 -0.0460 -0.1597
  634PSPI   C3B 9833   4.558   7.082   7.841  0.1056  0.0925  0.0787
  634PSPI   C4B 9834   4.708   6.857   8.204  0.2434  0.1759  0.3258
  635PSPI    C1 9835   0.163  16.426   6.030 -0.0894 -0.1904 -0.1545
  635PSPI    C2 9836   0.558  16.362   6.020 -0.0461  0.0178  0.1207
  635PSPI    C3 9837   0.416  16.725   6.112 -0.3023 -0.0311 -0.0697
  635PSPI   PO4 9838   0.049  16.215   6.192  0.0507  0.0015 -0.0923
  635PSPI   GL1 9839   0.181  15.830   6.429 -0.0492 -0.1982 -0.1491
  635PSPI   GL2 9840   0.013  16.088   6.684  0.3230  0.0043  0.0167
  635PSPI   C1A 9841   0.472  15.727   6.793 -0.2825  0.1842 -0.2811
  635PSPI   C2A 9842   0.690  15.688   7.155  0.1178  0.2780 -0.1282
  635PSPI   C3A 9843   0.693  15.584   7.688  0.0274  0.0150  0.2498
  635PSPI   C4A 9844   0.753  15.294   8.108  0.0154  0.0614  0.0363
  635PSPI   C1B 9845   0.229  16.240   6.977  0.0814 -0.1003  0.0842
  635PSPI   C2B 9846   0.153  16.349   7.398  0.1766 -0.0292 -0.1050
  635PSPI   C3B 9847   0.227  16.396   7.848  0.1547  0.1811 -0.2510
  635PSPI   C4B 9848   0.175  16.385   8.314  0.1076  0.4152 -0.0188
  636PSPI    C1 9849  12.969  12.302   5.732  0.2262  0.0837 -0.0106
  636PSPI    C2 9850  12.894  11.972   5.519  0.1174  0.1160 -0.0228
  636PSPI    C3 9851  12.661  12.294   5.477 -0.0001  0.0699  0.2589
  636PSPI   PO4 9852  13.117  12.263   5.931  0.2127  0.0581  0.1683
  636PSPI   GL1 9853  13.255  12.109   6.336 -0.1609 -0.1385 -0.1085
  636PSPI   GL2 9854  13.067  11.829   6.507  0.2155 -0.0007 -0.0148
  636PSPI   C1A 9855  13.303  12.434   6.660 -0.1843 -0.2382 -0.2848
  636PSPI   C2A 9856  13.180  12.299   7.088 -0.0882 -0.3097  0.0487
  636PSPI   C3A 9857  13.103  12.376   7.443 -0.0034  0.0768 -0.0629
  636PSPI   C4A 9858  13.237  12.586   7.894  0.0880  0.1613  0.0579
  636PSPI   C1B 9859  13.320  11.826   6.843 -0.1425  0.0332 -0.0453
  636PSPI   C2B 9860  13.305  11.880   7.287 -0.2282  0.0600 -0.2127
  636PSPI   C3B 9861  13.370  11.893   7.651  0.2776  0.1863  0.1634
  636PSPI   C4B 9862  13.366  12.100   7.930 -0.0942  0.0005  0.0089
  637PSPI    C1 9863   3.011  12.851   6.099 -0.2036  0.0948  0.2060
  637PSPI    C2 9864   3.258  13.118   5.932 -0.1582 -0.1240 -0.0846
  637PSPI    C3 9865   2.866  13.132   5.854 -0.1562 -0.1401 -0.0975
  637PSPI   PO4 9866   3.070  12.840   6.302 -0.0631  0.0754 -0.0695
  637PSPI   GL1 9867   3.065  12.984   6.799 -0.2032 -0.3734  0.2102
  637PSPI   GL2 9868   2.662  13.054   6.666  0.2215  0.0703  0.2160
  637PSPI   C1A 9869   2.875  12.739   7.038 -0.0172 -0.0213 -0.0746
  637PSPI   C2A 9870   2.628  12.884   7.450  0.3137  0.1366 -0.1508
  637PSPI   C3A 9871   2.728  13.038   7.831 -0.0162 -0.0745  0.4155
  637PSPI   C4A 9872   2.597  13.348   8.059 -0.1196  0.0861  0.3158
  637PSPI   C1B 9873   2.729  13.241   7.115  0.1324 -0.3818 -0.1663
  637PSPI   C2B 9874   2.987  13.288   7.502  0.1085 -0.2723  0.0605
  637PSPI   C3B 9875   3.034  13.475   7.952 -0.1612 -0.0136  0.0042
  637PSPI   C4B 9876   3.521  13.527   8.068 -0.1347  0.0238 -0.0566
  638PSPI    C1 9877   1.644  10.281   6.322 -0.0224 -0.2096 -0.1262
  638PSPI    C2 9878   1.708  10.265   5.928 -0.1590 -0.4333 -0.1408
  638PSPI    C3 9879   1.360  10.139   6.080 -0.1873 -0.1537  0.0323
  638PSPI   PO4 9880   1.744  10.187   6.502  0.1978 -0.0705 -0.1641
  638PSPI   GL1 9881   1.693  10.288   6.938 -0.0756 -0.0756  0.2605
  638PSPI   GL2 9882   1.574  10.540   6.935 -0.3670 -0.1511 -0.0621
  638PSPI   C1A 9883   1.756  10.214   7.327  0.2005 -0.0429  0.1055
  638PSPI   C2A 9884   1.615  10.294   7.776 -0.2208 -0.1482  0.1223
  638PSPI   C3A 9885   1.596  10.553   8.178  0.3095  0.0180  0.0367
  638PSPI   C4A 9886   1.451  10.764   8.537  0.3070  0.1056  0.0859
  638PSPI   C1B 9887   1.360  10.511   7.333  0.2620 -0.1243  0.1248
  638PSPI   C2B 9888   0.994  10.350   7.582 -0.3379 -0.3522 -0.1694
  638PSPI   C3B 9889   0.873  10.384   7.965 -0.1664 -0.2840  0.2085
  638PSPI   C4B 9890   1.063  10.465   8.364 -0.0480 -0.1586 -0.1948
  639PSPI    C1 9891   5.783   9.926   6.021 -0.1031 -0.0347 -0.0087
  639PSPI    C2 9892   5.663  10.168   6.317  0.1717  0.1616 -0.0536
  639PSPI    C3 9893   5.491  10.192   5.957  0.0307  0.1186  0.0102
  639PSPI   PO4 9894   6.048   9.946   6.064 -0.1107 -0.2062 -0.0518
  639PSPI   GL1 9895   6.144   9.876   6.387 -0.2541  0.4553 -0.1514
  639PSPI   GL2 9896   6.201  10.293   6.409 -0.3230  0.0121 -0.0512
  639PSPI   C1A 9897   5.804   9.872   6.778 -0.2720  0.1167 -0.0682
  639PSPI   C2A 9898   5.622  10.065   7.142 -0.2189 -0.1353  0.0725
  639PSPI   C3A 9899   5.419   9.889   7.495  0.3014 -0.1474 -0.2929
  639PSPI   C4A 9900   5.748   9.845   7.823 -0.1640 -0.1075  0.1201
  639PSPI   C1B 9901   6.486  10.515   6.821 -0.0991 -0.2419 -0.2312
  639PSPI   C2B 9902   6.913  10.376   6.997 -0.4265 -0.1323  0.0635
  639PSPI   C3B 9903   7.056  10.293   7.422  0.1307 -0.2052  0.0001
  639PSPI   C4B 9904   7.073  10.480   7.840  0.1008  0.0176 -0.2350
  640PSPI    C1 9905  15.559  15.373   6.010 -0.4131  0.0726  0.0691
  640PSPI    C2 9906  15.590  15.287   5.620 -0.0074  0.1239  0.0856
  640PSPI    C3 9907  15.231  15.291   5.796 -0.1561 -0.3111 -0.1922
  640PSPI   PO4 9908  15.765  15.156   6.122  0.2308  0.1639 -0.1180
  640PSPI   GL1 9909  15.774  15.047   6.508  0.1246  0.2512  0.1621
  640PSPI   GL2 9910  15.999  15.099   6.552 -0.2676  0.1129  0.1288
  640PSPI   C1A 9911  15.380  15.066   6.805  0.1213  0.2185 -0.0484
  640PSPI   C2A 9912  15.378  15.138   7.216  0.1826 -0.0882  0.0099
  640PSPI   C3A 9913  15.235  15.115   7.615 -0.2681  0.3530 -0.3141
  640PSPI   C4A 9914  15.165  15.317   7.911 -0.1438  0.0481  0.1141
  640PSPI   C1B 9915  15.901  15.230   6.970  0.0488  0.4455 -0.2728
  640PSPI   C2B 9916  15.813  15.358   7.457  0.1415  0.4202 -0.1043
  640PSPI   C3B 9917  15.727  15.179   7.809 -0.3424 -0.1181 -0.1291
  640PSPI   C4B 9918  15.937  14.939   8.271 -0.1611 -0.2307  0.2063
  641PSPI    C1 9919   9.775  15.877   5.952  0.0481  0.1289  0.0422
  641PSPI    C2 9920   9.909  16.232   5.828 -0.0332  0.1359 -0.0270
  641PSPI    C3 9921   9.752  15.976   5.565 -0.0981  0.1030  0.0435
  641PSPI   PO4 9922   9.951  15.824   6.143  0.0075  0.2754  0.1695
  641PSPI   GL1 9923  10.087  15.894   6.640  0.0028  0.0099 -0.0878
  641PSPI   GL2 9924  10.034  15.616   6.566 -0.0460  0.0103  0.1051
  641PSPI   C1A 9925  10.147  15.811   6.994 -0.2832 -0.3643  0.0232
  641PSPI   C2A 9926  10.115  15.868   7.366 -0.0285 -0.1490 -0.2648
  641PSPI   C3A 9927  10.147  15.925   7.796  0.0966 -0.2675 -0.0422
  641PSPI   C4A 9928  10.001  16.028   8.293 -0.0156 -0.0277 -0.0941
  641PSPI   C1B 9929  10.031  15.337   6.752 -0.2009  0.0388  0.0487
  641PSPI   C2B 9930  10.032  15.406   7.226 -0.1405  0.0935  0.0786
  641PSPI   C3B 9931   9.948  15.484   7.693  0.1149 -0.0816  0.1258
  641PSPI   C4B 9932   9.910  15.506   8.159  0.2431  0.1689 -0.0790
  642PSPI    C1 9933   6.353   3.323   6.115 -0.1794  0.0587  0.0979
  642PSPI    C2 9934   6.228   3.202   5.755  0.1055 -0.1496  0.0649
  642PSPI    C3 9935   6.209   3.589   5.854 -0.0937 -0.1093 -0.1237
  642PSPI   PO4 9936   6.657   3.295   6.191  0.2718  0.2512  0.2255
  642PSPI   GL1 9937   6.596   3.184   6.582  0.0876  0.0560  0.0822
  642PSPI   GL2 9938   6.777   3.427   6.808  0.0306  0.1270 -0.3256
  642PSPI   C1A 9939   6.535   2.925   6.919  0.1239 -0.0601 -0.1617
  642PSPI   C2A 9940   6.592   2.754   7.327 -0.1544  0.1510  0.2518
  642PSPI   C3A 9941   6.696   2.767   7.732 -0.0444 -0.0753  0.1279
  642PSPI   C4A 9942   6.833   2.677   8.123  0.1752 -0.1457 -0.4399
  642PSPI   C1B 9943   6.991   3.296   7.225 -0.0913  0.1035  0.1007
  642PSPI   C2B 9944   6.848   3.273   7.611 -0.2498  0.0148  0.2236
  642PSPI   C3B 9945   6.603   3.203   7.943  0.1423  0.3893 -0.1972
  642PSPI   C4B 9946   6.518   3.283   8.406  0.0122 -0.3716 -0.2263
  643PSPI    C1 9947  16.588  11.060   6.193 -0.3172 -0.0563 -0.0724
  643PSPI    C2 9948  16.556  10.676   6.083 -0.1619 -0.1250  0.1166
  643PSPI    C3 9949  16.878  10.888   5.978 -0.3736  0.0365 -0.2244
  643PSPI   PO4 9950  16.425  11.097   6.400 -0.2064  0.0508  0.1580
  643PSPI   GL1 9951  16.328  10.976   6.722 -0.0668 -0.3807  0.1821
  643PSPI   GL2 9952  16.708  10.868   6.800 -0.2526  0.0487  0.0349
  643PSPI   C1A 9953  16.313  10.797   7.170  0.1718  0.0702  0.1044
  643PSPI   C2A 9954  16.281  10.916   7.646  0.0778 -0.1640  0.0567
  643PSPI   C3A 9955  16.410  11.113   8.013 -0.1064  0.0619 -0.0825
  643PSPI   C4A 9956  16.866  11.117   8.095 -0.5102  0.0428  0.2654
  643PSPI   C1B 9957  16.846  10.871   7.230  0.3514  0.0562  0.2389
  643PSPI   C2B 9958  16.713  11.116   7.533  0.0034  0.0336 -0.2531
  643PSPI   C3B 9959  16.688  11.553   7.525  0.2454 -0.3381  0.0022
  643PSPI   C4B 9960  16.870  11.888   7.511 -0.1142 -0.0683  0.0201
  644PSPI    C1 9961   1.367  11.642   6.534 -0.2478 -0.0810 -0.2680
  644PSPI    C2 9962   1.428  11.248   6.502 -0.2455 -0.1181  0.1367
  644PSPI    C3 9963   1.716  11.484   6.649 -0.2196  0.0486 -0.1722
  644PSPI   PO4 9964   1.127  11.672   6.551  0.3428 -0.2975 -0.1743
  644PSPI   GL1 9965   1.049  11.718   6.954  0.0736  0.1913 -0.0278
  644PSPI   GL2 9966   0.803  11.557   7.021 -0.0782 -0.1353  0.1561
  644PSPI   C1A 9967   1.301  11.730   7.338  0.2436  0.1256 -0.1833
  644PSPI   C2A 9968   1.492  11.699   7.708 -0.0758  0.0132  0.2098
  644PSPI   C3A 9969   1.542  11.632   8.115 -0.2250  0.2550  0.2388
  644PSPI   C4A 9970   1.403  11.313   8.421 -0.2700 -0.1919 -0.0738
  644PSPI   C1B 9971   0.889  11.428   7.453 -0.2538  0.0144 -0.0143
  644PSPI   C2B 9972   1.050  11.455   7.989  0.3671 -0.0856 -0.1687
  644PSPI   C3B 9973   0.869  11.342   8.318  0.0038  0.1079 -0.1010
  644PSPI   C4B 9974   0.505  11.258   8.457  0.3911  0.0744  0.1519
  645PSPI    C1 9975   0.439   0.733   6.348 -0.2486  0.0401  0.1750
  645PSPI    C2 9976   0.496   0.743   5.953  0.0950 -0.3777  0.2059
  645PSPI    C3 9977   0.143   0.628   6.102  0.0485 -0.4771  0.0226
  645PSPI   PO4 9978   0.606   0.534   6.462  0.0542  0.3053 -0.0970
  645PSPI   GL1 9979   0.518   0.245   6.840 -0.2027 -0.1383  0.1883
  645PSPI   GL2 9980   0.727   0.357   6.906 -0.0113 -0.0956 -0.1054
  645PSPI   C1A 9981   0.340  -0.023   7.178 -0.1240  0.3066  0.0659
  645PSPI   C2A 9982   0.258  -0.172   7.591 -0.1127  0.1529 -0.1833
  645PSPI   C3A 9983   0.087  -0.272   7.983  0.1771  0.0254  0.3125
  645PSPI   C4A 9984   0.381  -0.305   8.192  0.2060 -0.0560 -0.1856
  645PSPI   C1B 9985   0.770   0.363   7.351 -0.0764  0.0411 -0.1419
  645PSPI   C2B 9986   0.852   0.379   7.731  0.0293 -0.0852 -0.1378
  645PSPI   C3B 9987   0.772   0.564   8.104  0.0203  0.0249 -0.0949
  645PSPI   C4B 9988   0.627   0.823   8.455 -0.0681 -0.0628  0.1461
  646PSPI    C1 9989   4.611  11.827   6.067 -0.0814 -0.2728 -0.2346
  646PSPI    C2 9990   4.308  12.070   5.970  0.0457 -0.1016 -0.2084
  646PSPI    C3 9991   4.567  11.951   5.689 -0.0360 -0.2360 -0.2279
  646PSPI   PO4 9992   4.630  11.842   6.353 -0.1713  0.1516 -0.0257
  646PSPI   GL1 9993   4.636  12.051   6.770  0.4047 -0.0443 -0.2113
  646PSPI   GL2 9994   5.008  11.985   6.662  0.0183  0.0683 -0.0882
  646PSPI   C1A 9995   4.482  11.691   7.050  0.2033 -0.3761 -0.1758
  646PSPI   C2A 9996   4.448  11.796   7.449  0.0701  0.3020 -0.4244
  646PSPI   C3A 9997   4.309  11.951   7.899 -0.2898  0.0478  0.2322
  646PSPI   C4A 9998   4.529  11.995   8.223 -0.0430 -0.0296 -0.0890
  646PSPI   C1B 9999   4.910  11.958   7.145 -0.3097  0.3079  0.0220
  646PSPI   C2B10000   4.628  12.238   7.293  0.0312  0.1862 -0.0941
  646PSPI   C3B10001   4.286  12.356   7.496 -0.1497  0.2219  0.2612
  646PSPI   C4B10002   3.925  12.481   7.650  0.2131 -0.1530  0.1234
  647PSPI    C110003   7.252   8.414   6.098 -0.0399 -0.2039 -0.0741
  647PSPI    C210004   6.927   8.374   6.328 -0.1402 -0.1100 -0.1979
  647PSPI    C310005   7.011   8.099   6.051 -0.1821 -0.0712 -0.2494
  647PSPI   PO410006   7.481   8.438   6.210 -0.1144 -0.1385  0.2714
  647PSPI   GL110007   7.597   8.314   6.545 -0.0963  0.1908  0.0261
  647PSPI   GL210008   7.258   8.386   6.706  0.2561 -0.3269 -0.0766
  647PSPI   C1A10009   7.858   8.186   6.905  0.0402 -0.0825  0.2133
  647PSPI   C2A10010   7.766   7.964   7.285 -0.0572 -0.0886 -0.2194
  647PSPI   C3A10011   7.799   8.017   7.700  0.0321 -0.2055  0.0297
  647PSPI   C4A10012   7.671   8.092   8.022  0.1900 -0.2800 -0.2967
  647PSPI   C1B10013   7.487   8.301   7.229 -0.1386 -0.4249  0.2200
  647PSPI   C2B10014   7.587   8.491   7.567  0.2727  0.3179 -0.2192
  647PSPI   C3B10015   7.758   8.604   7.938 -0.1762  0.1606 -0.2624
  647PSPI   C4B10016   8.087   8.610   8.210  0.0038  0.2432  0.4331
  648PSPI    C110017   7.115  14.892   6.164 -0.3766  0.0583  0.0144
  648PSPI    C210018   7.257  14.543   6.298  0.1653  0.2682  0.0124
  648PSPI    C310019   7.075  14.561   5.943  0.1226 -0.0124  0.0177
  648PSPI   PO410020   7.164  15.053   6.367 -0.0800 -0.2641 -0.0309
  648PSPI   GL110021   7.020  15.063   6.794  0.0239  0.0205  0.0243
  648PSPI   GL210022   7.207  15.398   6.825 -0.3025 -0.1010  0.1539
  648PSPI   C1A10023   7.148  14.884   7.164  0.0017 -0.1743 -0.2651
  648PSPI   C2A10024   7.432  14.566   7.263 -0.0092  0.1499  0.2437
  648PSPI   C3A10025   7.437  14.284   7.624 -0.2237  0.0428 -0.0955
  648PSPI   C4A10026   7.567  13.887   7.847 -0.0953 -0.0492  0.2034
  648PSPI   C1B10027   7.399  15.329   7.178 -0.3130 -0.0142 -0.0989
  648PSPI   C2B10028   7.441  15.082   7.569  0.0703 -0.1224  0.0858
  648PSPI   C3B10029   7.426  14.765   7.874  0.0900 -0.0194 -0.0331
  648PSPI   C4B10030   7.460  14.372   8.230 -0.1476 -0.0530 -0.0814
  649PSPI    C110031   1.130   6.844   6.561  0.0936 -0.0454 -0.0357
  649PSPI    C210032   0.909   7.142   6.410 -0.1199  0.0626  0.4700
  649PSPI    C310033   0.751   6.776   6.450  0.0610 -0.0628  0.0850
  649PSPI   PO410034   1.310   7.050   6.708  0.0249 -0.1025  0.2773
  649PSPI   GL110035   1.335   7.304   7.145 -0.0635  0.1307  0.1669
  649PSPI   GL210036   1.642   7.241   7.088 -0.0824  0.3036  0.0322
  649PSPI   C1A10037   1.218   7.536   7.465 -0.2545 -0.0758 -0.0161
  649PSPI   C2A10038   1.164   7.589   7.905  0.0151 -0.3976 -0.1415
  649PSPI   C3A10039   1.067   7.389   8.311 -0.1524 -0.2665 -0.2686
  649PSPI   C4A10040   0.836   7.127   8.571  0.2522 -0.0531 -0.0737
  649PSPI   C1B10041   1.693   7.274   7.490  0.2802 -0.2285  0.2595
  649PSPI   C2B10042   1.628   7.354   7.968 -0.1792 -0.0008 -0.1671
  649PSPI   C3B10043   1.848   7.508   8.396  0.1077 -0.1110  0.2131
  649PSPI   C4B10044   2.168   7.748   8.547  0.0589  0.0736  0.2023
  650PSPI    C110045   9.902   9.426   5.602 -0.1664 -0.1896  0.0305
  650PSPI    C210046   9.527   9.479   5.472 -0.0461  0.1002 -0.2088
  650PSPI    C310047   9.835   9.616   5.257  0.1809  0.1926  0.1658
  650PSPI   PO410048   9.789   9.444   5.919 -0.1816  0.0957  0.2404
  650PSPI   GL110049   9.461   9.352   6.300  0.3657  0.0399 -0.0303
  650PSPI   GL210050   9.253   9.364   6.235  0.1554  0.2315  0.0532
  650PSPI   C1A10051   9.466   9.264   6.797 -0.0820 -0.1009  0.1819
  650PSPI   C2A10052   9.520   9.320   7.212  0.2927  0.0841  0.0916
  650PSPI   C3A10053   9.822   9.337   7.499  0.0672 -0.1182  0.3228
  650PSPI   C4A10054   9.899   9.282   7.887  0.0473 -0.2063 -0.0828
  650PSPI   C1B10055   9.184   9.634   6.625  0.1731  0.0574 -0.1853
  650PSPI   C2B10056   9.498   9.789   7.029  0.3228  0.1016 -0.1057
  650PSPI   C3B10057   9.714   9.800   7.440 -0.1372 -0.1982 -0.1808
  650PSPI   C4B10058   9.925   9.875   7.872 -0.1685 -0.2334 -0.1097
  651PSPI    C110059  17.218   9.863   6.137  0.2071 -0.0426 -0.2920
  651PSPI    C210060  16.932   9.584   6.127  0.1558 -0.0070  0.0477
  651PSPI    C310061  16.841   9.967   6.056  0.1162  0.0060  0.1667
  651PSPI   PO410062  17.281   9.786   6.395 -0.3449 -0.1772  0.1938
  651PSPI   GL110063  17.144   9.669   6.831 -0.0401 -0.1656 -0.0379
  651PSPI   GL210064  17.264   9.444   7.037  0.1059 -0.1358 -0.0846
  651PSPI   C1A10065  17.237   9.908   7.277 -0.2084 -0.2789 -0.0214
  651PSPI   C2A10066  17.135  10.205   7.510 -0.0307 -0.0543  0.0594
  651PSPI   C3A10067  17.048  10.347   7.869  0.4764 -0.0318  0.2737
  651PSPI   C4A10068  17.081  10.562   8.227  0.0385 -0.0443  0.1973
  651PSPI   C1B10069  17.272   9.469   7.561  0.0289 -0.3442 -0.0701
  651PSPI   C2B10070  17.212   9.623   7.996 -0.0747 -0.2356  0.1195
  651PSPI   C3B10071  17.374   9.474   8.345  0.1911  0.3839 -0.0899
  651PSPI   C4B10072  17.481   9.087   8.436 -0.2412 -0.1294  0.3252
  652PSPI    C110073  17.248  16.318   6.345  0.4477 -0.1913  0.0277
  652PSPI    C210074  17.211  16.383   5.952  0.0787 -0.1122  0.0725
  652PSPI    C310075  17.328  16.679   6.194  0.3392 -0.1702  0.0204
  652PSPI   PO410076  17.074  16.072   6.358 -0.0727  0.3644  0.2774
  652PSPI   GL110077  16.808  16.267   6.667  0.1150  0.3008 -0.0799
  652PSPI   GL210078  16.487  16.258   6.589 -0.0534 -0.0283  0.2500
  652PSPI   C1A10079  16.910  16.167   7.036 -0.1345  0.2407  0.0797
  652PSPI   C2A10080  17.025  16.010   7.454 -0.0529 -0.0553  0.0397
  652PSPI   C3A10081  17.029  16.173   7.858 -0.3057  0.1280 -0.2233
  652PSPI   C4A10082  17.376  16.391   8.102  0.0388 -0.1370 -0.0901
  652PSPI   C1B10083  16.310  16.332   6.957  0.0137  0.0636  0.1950
  652PSPI   C2B10084  16.123  16.622   7.317 -0.0295  0.0962 -0.1177
  652PSPI   C3B10085  16.171  16.604   7.791  0.1376  0.0740 -0.2117
  652PSPI   C4B10086  16.217  16.396   8.181 -0.0898  0.2919  0.3175
  653PSPI    C110087  10.241  11.035   5.817 -0.1400 -0.0381  0.1500
  653PSPI    C210088  10.156  11.076   5.428 -0.1033 -0.2754  0.1149
  653PSPI    C310089  10.021  11.345   5.692 -0.0774 -0.0795 -0.0680
  653PSPI   PO410090  10.487  10.873   5.783 -0.2300 -0.0373  0.0096
  653PSPI   GL110091  10.599  10.677   6.162 -0.2465 -0.2075  0.0200
  653PSPI   GL210092  10.633  10.389   6.094 -0.1419  0.4304  0.1826
  653PSPI   C1A10093  10.774  10.742   6.527  0.1303  0.3571 -0.0546
  653PSPI   C2A10094  10.908  10.654   6.990  0.2308  0.2129  0.0389
  653PSPI   C3A10095  10.781  10.695   7.445 -0.0479  0.3037 -0.2087
  653PSPI   C4A10096  10.707  10.885   7.838 -0.2603  0.2613  0.1492
  653PSPI   C1B10097  11.022  10.346   6.302  0.1212  0.0391 -0.1326
  653PSPI   C2B10098  11.124  10.242   6.787  0.2124  0.1433  0.2280
  653PSPI   C3B10099  10.945  10.222   7.243  0.4012  0.0561 -0.1337
  653PSPI   C4B10100  10.676  10.025   7.568 -0.3842  0.3253  0.2104
  654POPI    C110101   8.540  13.750   6.244  0.0357 -0.1046  0.0120
  654POPI    C210102   8.894  13.871   6.384 -0.0368 -0.0417  0.1430
  654POPI    C310103   8.686  14.106   6.136 -0.1033  0.0333  0.2689
  654POPI   PO410104   8.446  13.565   6.423 -0.0369  0.0332 -0.2864
  654POPI   GL110105   8.574  13.641   6.770  0.0303 -0.2831 -0.0926
  654POPI   GL210106   8.233  13.854   6.878  0.1577 -0.0305  0.0486
  654POPI   C1A10107   8.800  13.855   7.132  0.2779  0.0063  0.1834
  654POPI   D2A10108   8.718  14.067   7.522 -0.0075  0.1663  0.3926
  654POPI   C3A10109   8.827  13.927   7.952 -0.0142  0.2860 -0.0311
  654POPI   C4A10110   9.202  13.740   8.155  0.1246  0.1607 -0.0824
  654POPI   C1B10111   8.300  13.892   7.235  0.0702 -0.0339  0.0701
  654POPI   C2B10112   8.386  13.659   7.618 -0.0581 -0.1018 -0.1004
  654POPI   C3B10113   8.470  13.564   8.035 -0.0444 -0.0691 -0.0088
  654POPI   C4B10114   8.583  13.396   8.354 -0.1668  0.1446 -0.1608
  655POPI    C110115  16.664  14.052   6.031  0.2550  0.3324  0.0228
  655POPI    C210116  16.766  13.797   5.740  0.4002  0.1846  0.2004
  655POPI    C310117  16.712  14.185   5.657 -0.2634  0.0304 -0.1621
  655POPI   PO410118  16.781  14.061   6.294  0.3366 -0.0972 -0.1619
  655POPI   GL110119  16.902  14.188   6.635  0.0210  0.2009 -0.1305
  655POPI   GL210120  16.894  14.063   6.958 -0.2011  0.0494 -0.0562
  655POPI   C1A10121  17.313  14.201   6.880 -0.1665  0.0180  0.4541
  655POPI   D2A10122  17.324  14.146   7.259 -0.1452  0.1922  0.0522
  655POPI   C3A10123  16.890  14.185   7.559 -0.2215  0.0153  0.2751
  655POPI   C4A10124  16.849  14.185   7.973 -0.1606  0.2323 -0.2583
  655POPI   C1B10125  16.988  13.713   7.251 -0.1877 -0.0880  0.1808
  655POPI   C2B10126  16.789  13.593   7.550 -0.1143  0.2643  0.1056
  655POPI   C3B10127  16.833  13.670   7.923 -0.1528 -0.0545  0.1092
  655POPI   C4B10128  16.777  13.793   8.332  0.1748 -0.0710  0.0786
  656POPI    C110129  12.639   7.221   5.985 -0.4401 -0.3295  0.0417
  656POPI    C210130  12.399   7.216   5.665 -0.0418  0.0671 -0.2769
  656POPI    C310131  12.792   7.271   5.619  0.0365  0.0300  0.2796
  656POPI   PO410132  12.430   7.080   6.136  0.1444 -0.0083 -0.1216
  656POPI   GL110133  12.309   6.854   6.363  0.1991  0.2131 -0.3423
  656POPI   GL210134  12.013   7.031   6.396  0.0111 -0.1584  0.3144
  656POPI   C1A10135  12.306   6.754   6.783  0.2868  0.1858  0.2167
  656POPI   D2A10136  12.456   6.777   7.272  0.1987  0.2490  0.1579
  656POPI   C3A10137  12.366   6.999   7.680  0.0082  0.0128 -0.2889
  656POPI   C4A10138  12.410   6.964   8.087 -0.0982 -0.1208 -0.1167
  656POPI   C1B10139  11.959   7.123   6.756 -0.1022  0.0176 -0.3301
  656POPI   C2B10140  11.842   7.247   7.271  0.0701  0.1043 -0.0005
  656POPI   C3B10141  11.943   7.287   7.645  0.1355  0.1056 -0.1797
  656POPI   C4B10142  11.947   7.372   8.055 -0.0493 -0.1064 -0.0265
  657POPI    C110143   1.399   9.808   6.512  0.0716  0.0327 -0.1198
  657POPI    C210144   1.077   9.579   6.568  0.0571  0.0600 -0.0910
  657POPI    C310145   1.192   9.675   6.197  0.1168 -0.0698 -0.1066
  657POPI   PO410146   1.451   9.867   6.756  0.0870 -0.0805  0.1793
  657POPI   GL110147   1.579   9.838   7.129  0.2276 -0.1137 -0.3813
  657POPI   GL210148   1.621   9.563   7.130  0.0070  0.1317  0.1584
  657POPI   C1A10149   1.378   9.861   7.541  0.0967  0.0195  0.0366
  657POPI   D2A10150   1.283  10.003   8.018  0.1735 -0.0832  0.1661
  657POPI   C3A10151   0.981   9.958   8.332 -0.0292 -0.0563 -0.0797
  657POPI   C4A10152   1.008  10.076   8.713 -0.0435 -0.0356  0.0228
  657POPI   C1B10153   1.611   9.316   7.528 -0.1742  0.0156  0.1122
  657POPI   C2B10154   1.490   9.432   7.782 -0.2100 -0.0627  0.0141
  657POPI   C3B10155   1.448   9.600   8.193 -0.0328  0.1383 -0.0396
  657POPI   C4B10156   1.366   9.685   8.607 -0.0295 -0.2553 -0.1180
  658POPI    C110157  10.513   1.494   6.599 -0.0962 -0.0528  0.0463
  658POPI    C210158  10.581   1.445   6.208 -0.0191  0.0795  0.0425
  658POPI    C310159  10.836   1.292   6.476 -0.0502  0.0237  0.0404
  658POPI   PO410160  10.238   1.350   6.665 -0.1079  0.3441 -0.1765
  658POPI   GL110161   9.864   1.442   6.959 -0.4228  0.1562 -0.1893
  658POPI   GL210162  10.065   1.738   6.859  0.2228 -0.0282  0.0888
  658POPI   C1A10163   9.938   1.237   7.316 -0.0254  0.0099  0.0184
  658POPI   D2A10164  10.130   1.195   7.696 -0.1868 -0.0579 -0.2806
  658POPI   C3A10165  10.182   1.037   7.982 -0.2319  0.4451  0.1996
  658POPI   C4A10166  10.408   1.174   8.296 -0.1146 -0.1765 -0.0052
  658POPI   C1B10167  10.232   2.135   7.126  0.0570  0.0768  0.4482
  658POPI   C2B10168  10.365   2.394   7.437 -0.1114 -0.0743  0.0715
  658POPI   C3B10169  10.539   2.786   7.346  0.2906  0.1175  0.1348
  658POPI   C4B10170  10.644   3.154   7.152 -0.0986  0.5453  0.0941
  659POPI    C110171  12.370   6.324   5.841  0.0484 -0.1306 -0.0745
  659POPI    C210172  12.603   6.388   5.522  0.2234 -0.1473  0.0484
  659POPI    C310173  12.448   6.698   5.722  0.1335 -0.1364 -0.0373
  659POPI   PO410174  12.544   6.239   6.063 -0.1854  0.1738  0.2443
  659POPI   GL110175  12.471   5.921   6.290  0.1719 -0.0796  0.2000
  659POPI   GL210176  12.366   5.548   6.313  0.0291  0.1541  0.2368
  659POPI   C1A10177  12.585   5.913   6.607  0.1402  0.0765 -0.0863
  659POPI   D2A10178  12.567   5.919   7.120 -0.0167  0.1424 -0.3170
  659POPI   C3A10179  12.939   5.737   7.185  0.3634 -0.2263 -0.2107
  659POPI   C4A10180  13.377   5.568   7.346  0.1115  0.2602  0.1981
  659POPI   C1B10181  12.213   5.209   6.587  0.2881 -0.1434  0.0242
  659POPI   C2B10182  12.131   5.147   7.010 -0.1630 -0.0455 -0.1341
  659POPI   C3B10183  12.113   4.967   7.366 -0.2321  0.1012  0.0421
  659POPI   C4B10184  12.210   4.618   7.646 -0.2408 -0.1374  0.1205
  660POPI    C110185   9.942  15.111   6.257 -0.1324 -0.0881  0.1650
  660POPI    C210186   9.769  15.018   5.908  0.0839  0.0152  0.0285
  660POPI    C310187   9.716  15.381   6.066 -0.0507 -0.0465  0.1270
  660POPI   PO410188  10.293  14.992   6.267 -0.2224  0.1345  0.0091
  660POPI   GL110189  10.450  15.192   6.521 -0.1113 -0.0820 -0.0807
  660POPI   GL210190  10.755  15.364   6.500 -0.0263 -0.1665  0.0463
  660POPI   C1A10191  10.468  15.196   7.019  0.2338 -0.1514 -0.3971
  660POPI   D2A10192  10.339  15.160   7.480 -0.1009 -0.1626 -0.0176
  660POPI   C3A10193  10.681  14.978   7.786  0.0065  0.1594  0.2187
  660POPI   C4A10194  10.963  14.860   8.079 -0.0347 -0.0100 -0.2575
  660POPI   C1B10195  10.941  15.238   6.833  0.0145  0.2149 -0.1103
  660POPI   C2B10196  10.894  15.155   7.343 -0.0663 -0.2528 -0.4726
  660POPI   C3B10197  11.013  15.385   7.738  0.2680  0.1234  0.0947
  660POPI   C4B10198  11.290  15.553   7.943 -0.2803  0.0328 -0.0983
  661POPI    C110199   7.960   4.597   5.713  0.2019  0.1190  0.1787
  661POPI    C210200   8.065   4.927   5.513  0.1588 -0.0465 -0.1216
  661POPI    C310201   7.710   4.754   5.443  0.0505  0.0151  0.2566
  661POPI   PO410202   7.976   4.643   5.999 -0.0180 -0.2123  0.1431
  661POPI   GL110203   7.619   4.707   6.355  0.0221  0.0155  0.1012
  661POPI   GL210204   7.515   4.947   6.412  0.0589 -0.1858  0.0779
  661POPI   C1A10205   7.942   4.607   6.667  0.0830  0.0796 -0.1502
  661POPI   D2A10206   8.262   4.859   6.925 -0.0371 -0.2559 -0.1827
  661POPI   C3A10207   8.306   5.214   6.853  0.1628 -0.3615 -0.1064
  661POPI   C4A10208   8.540   5.565   7.132  0.2691  0.0723 -0.0486
  661POPI   C1B10209   7.793   5.051   6.814  0.1899 -0.0282 -0.0649
  661POPI   C2B10210   8.007   5.058   7.306  0.3921  0.2680 -0.1140
  661POPI   C3B10211   7.986   5.099   7.695  0.0389  0.2041 -0.1335
  661POPI   C4B10212   7.986   4.864   8.132 -0.3056  0.3162  0.0215
  662POPI    C110213   5.930  10.435   5.856  0.0596 -0.0749 -0.1385
  662POPI    C210214   6.316  10.479   5.950 -0.0258  0.1681  0.1122
  662POPI    C310215   6.190  10.560   5.579  0.1514  0.1548  0.0483
  662POPI   PO410216   5.852  10.564   6.046 -0.1383  0.0848  0.0812
  662POPI   GL110217   5.880  10.653   6.462 -0.2455  0.1980 -0.4498
  662POPI   GL210218   6.089  10.749   6.583  0.0182 -0.1440 -0.2897
  662POPI   C1A10219   5.846  10.381   6.809  0.3426  0.0826 -0.1662
  662POPI   D2A10220   6.111  10.195   6.986 -0.0813 -0.1155 -0.0854
  662POPI   C3A10221   6.425  10.019   6.794  0.0273  0.0515  0.3398
  662POPI   C4A10222   6.820   9.936   6.781 -0.1654 -0.2585 -0.1135
  662POPI   C1B10223   5.971  10.887   6.970 -0.0347  0.2819 -0.0691
  662POPI   C2B10224   5.913  10.884   7.404 -0.2296  0.0411  0.1763
  662POPI   C3B10225   5.996  10.764   7.787  0.0978 -0.3837 -0.0470
  662POPI   C4B10226   6.258  10.461   7.925 -0.1410 -0.1214 -0.2539
  663POPI    C110227  14.269   8.459   5.493  0.2799  0.0465 -0.5071
  663POPI    C210228  14.254   8.059   5.500  0.0340  0.0563 -0.3555
  663POPI    C310229  13.989   8.265   5.283  0.1174  0.1401 -0.3787
  663POPI   PO410230  14.288   8.543   5.783 -0.2986 -0.1061 -0.1302
  663POPI   GL110231  14.052   8.579   6.054  0.0008  0.0364 -0.0643
  663POPI   GL210232  14.124   8.795   6.386 -0.0184 -0.0504  0.1235
  663POPI   C1A10233  13.945   8.306   6.324  0.0573 -0.2081 -0.1313
  663POPI   D2A10234  14.058   7.868   6.495  0.0797 -0.0085  0.3762
  663POPI   C3A10235  14.149   7.675   6.806 -0.0781 -0.0362 -0.1241
  663POPI   C4A10236  13.972   7.397   7.194  0.0211 -0.0417 -0.0709
  663POPI   C1B10237  14.118   8.557   6.773  0.0113  0.0479 -0.0831
  663POPI   C2B10238  14.258   8.459   7.238 -0.0939 -0.1177 -0.1105
  663POPI   C3B10239  14.199   8.367   7.566 -0.1290 -0.1213  0.1257
  663POPI   C4B10240  14.134   8.194   7.973 -0.0672 -0.2351  0.1020
  664POPI    C110241  12.371  15.582   5.801 -0.2013  0.0246 -0.1217
  664POPI    C210242  12.640  15.773   5.574  0.0608 -0.0489  0.1212
  664POPI    C310243  12.549  15.391   5.498  0.0954 -0.0521  0.0958
  664POPI   PO410244  12.421  15.737   5.982 -0.1951  0.2122  0.2336
  664POPI   GL110245  12.140  15.672   6.395 -0.1034  0.0183 -0.0646
  664POPI   GL210246  11.949  15.759   6.648 -0.3728 -0.0151  0.0836
  664POPI   C1A10247  12.441  15.690   6.702  0.2126  0.1372 -0.2183
  664POPI   D2A10248  12.616  15.817   7.119 -0.1745  0.0394 -0.0053
  664POPI   C3A10249  12.533  15.794   7.517  0.2073 -0.1778 -0.2411
  664POPI   C4A10250  12.326  15.466   7.851 -0.2401 -0.2470  0.3483
  664POPI   C1B10251  11.922  15.485   7.034  0.1397 -0.1108  0.0689
  664POPI   C2B10252  12.122  15.240   7.356  0.1459  0.5469 -0.2932
  664POPI   C3B10253  12.392  15.014   7.646 -0.0530 -0.1181  0.1329
  664POPI   C4B10254  12.502  15.056   8.081 -0.3114 -0.0645  0.4414
  665POPI    C110255   2.127  13.391   6.232 -0.0677 -0.0546  0.0625
  665POPI    C210256   1.911  13.062   6.163 -0.1188 -0.0004 -0.0377
  665POPI    C310257   1.768  13.421   6.059  0.0141  0.0367 -0.0935
  665POPI   PO410258   2.270  13.352   6.441 -0.2690  0.1356  0.1139
  665POPI   GL110259   2.278  13.240   6.833  0.0840  0.0089 -0.3274
  665POPI   GL210260   2.358  12.788   6.960  0.1496  0.2027  0.0637
  665POPI   C1A10261   2.285  13.162   7.269  0.2855 -0.0748 -0.0993
  665POPI   D2A10262   2.255  13.209   7.755 -0.2049  0.0535  0.1041
  665POPI   C3A10263   2.011  13.019   8.013 -0.0899  0.0489 -0.0496
  665POPI   C4A10264   1.772  12.780   8.280  0.1626 -0.0557 -0.4333
  665POPI   C1B10265   2.566  12.368   7.093 -0.0367 -0.1436  0.0355
  665POPI   C2B10266   2.739  12.249   7.471 -0.1707  0.2676 -0.0346
  665POPI   C3B10267   2.902  11.944   7.758 -0.0005  0.1238  0.1173
  665POPI   C4B10268   3.267  11.967   8.116  0.0066 -0.1417  0.1731
  666POPI    C110269  10.406   4.373   5.985 -0.0791  0.0876  0.0934
  666POPI    C210270  10.260   4.181   5.666  0.0736  0.0905  0.0212
  666POPI    C310271  10.609   4.068   5.825 -0.0018  0.0893  0.1876
  666POPI   PO410272  10.186   4.504   6.041  0.2600  0.1701 -0.0916
  666POPI   GL110273   9.815   4.335   6.380  0.0470  0.1129 -0.1423
  666POPI   GL210274   9.565   4.175   6.589  0.1505 -0.0973  0.1516
  666POPI   C1A10275  10.070   4.445   6.697 -0.0897  0.1136  0.0661
  666POPI   D2A10276  10.175   4.502   7.066  0.0386 -0.1256 -0.2187
  666POPI   C3A10277  10.525   4.706   7.180  0.0329 -0.0885  0.0816
  666POPI   C4A10278  10.675   4.726   7.571  0.1215 -0.0032 -0.0479
  666POPI   C1B10279   9.682   4.250   7.007 -0.0277 -0.0247 -0.0170
  666POPI   C2B10280   9.866   4.208   7.304  0.3181 -0.0893  0.2154
  666POPI   C3B10281   9.895   3.938   7.646  0.0689  0.0719 -0.0609
  666POPI   C4B10282   9.825   3.944   8.051  0.0574  0.0197 -0.0647
  667POPI    C110283   9.290  15.571   5.953 -0.1251 -0.0036 -0.0939
  667POPI    C210284   8.962  15.627   5.731  0.0094 -0.1210 -0.3264
  667POPI    C310285   9.314  15.776   5.611 -0.0004  0.2258  0.0491
  667POPI   PO410286   9.251  15.559   6.235 -0.0938 -0.0441  0.0623
  667POPI   GL110287   9.292  15.483   6.560 -0.1925  0.0118  0.1896
  667POPI   GL210288   9.574  15.289   6.552 -0.1149 -0.0193 -0.1951
  667POPI   C1A10289   9.100  15.621   6.901  0.1883  0.2410  0.0890
  667POPI   D2A10290   9.097  15.580   7.306 -0.0747 -0.0668 -0.3492
  667POPI   C3A10291   9.437  15.413   7.666  0.2142 -0.1076 -0.0076
  667POPI   C4A10292   9.638  15.110   7.962  0.0728  0.2274  0.2076
  667POPI   C1B10293   9.546  15.237   7.004  0.0476 -0.1353 -0.1349
  667POPI   C2B10294   9.686  15.059   7.394  0.2091  0.1964 -0.3224
  667POPI   C3B10295   9.977  14.781   7.717 -0.0253  0.1712 -0.0853
  667POPI   C4B10296  10.250  15.106   7.939  0.6048  0.0233 -0.1133
  668POPI    C110297   2.971  16.768   6.095  0.0679  0.0032 -0.0695
  668POPI    C210298   2.705  16.992   6.293  0.1431 -0.1735  0.2365
  668POPI    C310299   2.960  17.164   6.037 -0.3169 -0.0118 -0.1255
  668POPI   PO410300   2.825  16.470   6.116 -0.1244 -0.0350 -0.4656
  668POPI   GL110301   2.810  16.429   6.448 -0.2142 -0.3156 -0.1738
  668POPI   GL210302   2.936  16.680   6.580 -0.1124 -0.0861  0.2384
  668POPI   C1A10303   2.572  16.533   6.813  0.2508 -0.1231 -0.3113
  668POPI   D2A10304   2.231  16.521   6.897 -0.0067  0.0165  0.0143
  668POPI   C3A10305   2.115  16.438   7.315  0.1925 -0.1671  0.1524
  668POPI   C4A10306   2.271  16.316   7.730 -0.0720  0.1146  0.0731
  668POPI   C1B10307   2.997  16.840   6.868  0.1217  0.2923  0.1007
  668POPI   C2B10308   2.947  17.115   7.206 -0.3780 -0.1387  0.1159
  668POPI   C3B10309   2.807  17.310   7.696  0.2277  0.0490  0.0499
  668POPI   C4B10310   2.557  17.254   7.982  0.0259 -0.0458  0.0283
  669POPI    C110311   7.241  17.516   6.485  0.0261 -0.0530  0.1428
  669POPI    C210312   7.006  17.838   6.446  0.2601  0.1205  0.1417
  669POPI    C310313   7.035  17.574   6.147 -0.0858 -0.0087  0.2180
  669POPI   PO410314   7.464  17.548   6.673 -0.1671  0.0683  0.3531
  669POPI   GL110315   7.634  17.791   6.909 -0.5398 -0.0181 -0.1696
  669POPI   GL210316   7.883  17.902   6.844  0.3002  0.2087  0.2196
  669POPI   C1A10317   7.810  17.743   7.320 -0.1058  0.0040  0.1916
  669POPI   D2A10318   7.971  17.616   7.802 -0.1616 -0.0242  0.1250
  669POPI   C3A10319   7.838  17.714   8.225  0.2961  0.0967 -0.1421
  669POPI   C4A10320   7.631  17.397   8.466  0.1139  0.0397  0.1999
  669POPI   C1B10321   8.247  18.131   7.109  0.2086  0.1976  0.0098
  669POPI   C2B10322   8.325  17.992   7.579  0.0069  0.1911 -0.0154
  669POPI   C3B10323   8.459  17.731   7.963  0.2997 -0.0750 -0.2123
  669POPI   C4B10324   8.879  17.798   8.154 -0.3572 -0.3426  0.0212
  670POPI    C110325   0.096  15.414   5.733 -0.3684  0.1764 -0.3255
  670POPI    C210326   0.468  15.474   5.600 -0.2648 -0.0275 -0.1339
  670POPI    C310327   0.171  15.713   5.478  0.0077  0.4259  0.0633
  670POPI   PO410328   0.097  15.438   6.049  0.1286  0.0562 -0.0824
  670POPI   GL110329  -0.064  15.079   6.486 -0.1545  0.2009 -0.0441
  670POPI   GL210330  -0.152  15.410   6.522  0.0703 -0.1564 -0.0218
  670POPI   C1A10331   0.185  15.071   6.879 -0.0183 -0.1261 -0.1048
  670POPI   D2A10332   0.358  15.326   7.323 -0.1923  0.3246  0.0650
  670POPI   C3A10333   0.362  15.129   7.835  0.0865 -0.2391  0.1561
  670POPI   C4A10334   0.296  15.020   8.296  0.1390 -0.0451  0.1293
  670POPI   C1B10335  -0.101  15.533   6.953 -0.0859 -0.0762 -0.0770
  670POPI   C2B10336  -0.274  15.615   7.413  0.0198  0.0050 -0.0795
  670POPI   C3B10337  -0.373  15.623   7.791  0.0309 -0.0635 -0.1651
  670POPI   C4B10338  -0.671  15.613   7.996 -0.1841 -0.1490 -0.1107
  671POPI    C110339  12.656   9.544   5.836  0.0186  0.1032 -0.1269
  671POPI    C210340  12.554   9.814   6.113 -0.3065 -0.0782 -0.0648
  671POPI    C310341  12.521   9.904   5.725 -0.1958  0.0496 -0.0454
  671POPI   PO410342  12.909   9.484   5.949  0.2673 -0.1301  0.7397
  671POPI   GL110343  12.842   9.462   6.350 -0.0764 -0.2637 -0.2163
  671POPI   GL210344  12.566   9.353   6.293  0.0357 -0.2886 -0.3626
  671POPI   C1A10345  12.905   9.514   6.776 -0.1292  0.0327 -0.2344
  671POPI   D2A10346  12.976   9.424   7.217  0.1226  0.2285 -0.2270
  671POPI   C3A10347  12.697   9.410   7.511 -0.0057 -0.3697 -0.3070
  671POPI   C4A10348  12.551   9.495   7.911 -0.2513 -0.3747  0.3044
  671POPI   C1B10349  12.475   9.298   6.724  0.1155  0.0095 -0.3765
  671POPI   C2B10350  12.391   9.274   7.186  0.0553  0.1203  0.2793
  671POPI   C3B10351  12.218   9.475   7.500  0.2156 -0.1512  0.2215
  671POPI   C4B10352  12.004   9.331   7.889  0.2884  0.5262 -0.1077
  672POPI    C110353  11.777   2.515   5.800 -0.0673  0.0757  0.0490
  672POPI    C210354  11.973   2.848   5.903 -0.0169  0.0763 -0.0476
  672POPI    C310355  11.994   2.712   5.527 -0.0572 -0.0223 -0.0144
  672POPI   PO410356  11.882   2.362   6.066  0.0830 -0.0788  0.3639
  672POPI   GL110357  11.808   2.261   6.570 -0.0581 -0.0395  0.1129
  672POPI   GL210358  11.703   2.186   6.726  0.3220  0.0112 -0.1048
  672POPI   C1A10359  12.116   2.557   6.837  0.3742 -0.0263  0.2536
  672POPI   D2A10360  12.128   2.612   7.310  0.0553  0.3179  0.0305
  672POPI   C3A10361  11.760   2.680   7.629  0.0132 -0.1252  0.3497
  672POPI   C4A10362  11.640   3.108   7.943  0.0183 -0.0758 -0.1621
  672POPI   C1B10363  11.799   2.175   7.175  0.1015 -0.1744  0.0136
  672POPI   C2B10364  11.904   2.196   7.598 -0.0738 -0.1714 -0.0333
  672POPI   C3B10365  11.830   2.310   8.064  0.1039  0.2370  0.2097
  672POPI   C4B10366  11.586   2.576   8.167 -0.0993 -0.0681  0.1745
  673POPI    C110367   4.909  10.822   6.171  0.0884  0.3442  0.0063
  673POPI    C210368   4.542  10.840   6.013  0.0461  0.2413  0.0923
  673POPI    C310369   4.852  10.997   5.815  0.0290 -0.0801 -0.1991
  673POPI   PO410370   4.821  10.912   6.418 -0.1846 -0.3947  0.1290
  673POPI   GL110371   4.771  10.625   6.685  0.1251  0.0616  0.1686
  673POPI   GL210372   5.008  10.902   6.904  0.1219 -0.1522  0.0202
  673POPI   C1A10373   4.643  10.651   7.146 -0.2144  0.0725  0.1429
  673POPI   D2A10374   4.605  10.598   7.557 -0.1949 -0.0784 -0.0470
  673POPI   C3A10375   4.883  10.639   7.891 -0.0469  0.1303 -0.0597
  673POPI   C4A10376   4.926  10.640   8.356 -0.2268 -0.1056  0.0540
  673POPI   C1B10377   4.985  10.990   7.402 -0.1608 -0.0855  0.1538
  673POPI   C2B10378   5.063  11.088   7.788  0.0683  0.3283 -0.0236
  673POPI   C3B10379   4.998  11.258   8.120  0.2233  0.0981  0.0516
  673POPI   C4B10380   4.603  11.490   8.317  0.0066 -0.0041 -0.0716
  674POPI    C110381   8.869  13.133   6.401  0.2134 -0.1502  0.0149
  674POPI    C210382   8.819  13.345   6.065 -0.1360 -0.1934  0.0355
  674POPI    C310383   8.996  12.987   6.051 -0.0301 -0.1375 -0.0808
  674POPI   PO410384   8.990  13.244   6.541  0.1586  0.2371 -0.1909
  674POPI   GL110385   9.041  13.384   6.945  0.2762  0.2901 -0.0047
  674POPI   GL210386   9.201  13.702   6.793  0.5074  0.1150  0.2084
  674POPI   C1A10387   9.034  13.443   7.365 -0.0652  0.0080  0.1258
  674POPI   D2A10388   9.063  13.519   7.715 -0.0288  0.1215  0.0694
  674POPI   C3A10389   9.103  13.192   8.019  0.0764 -0.0959  0.3739
  674POPI   C4A10390   9.045  13.190   8.397  0.1569 -0.0123 -0.0990
  674POPI   C1B10391   9.520  13.643   7.167  0.0468 -0.1502  0.1262
  674POPI   C2B10392   9.621  13.609   7.648  0.1324  0.0205  0.0919
  674POPI   C3B10393   9.843  13.457   8.036  0.2822 -0.2481 -0.1790
  674POPI   C4B10394   9.717  13.510   8.483 -0.1980  0.1274 -0.3145
  675POPI    C110395   0.801  11.925   6.230 -0.0208 -0.1522  0.2708
  675POPI    C210396   0.510  12.146   6.066  0.2735  0.1141  0.0960
  675POPI    C310397   0.586  11.779   5.926  0.2482  0.1783 -0.0884
  675POPI   PO410398   0.652  11.986   6.523 -0.1277 -0.1346  0.3619
  675POPI   GL110399   0.565  11.957   6.936  0.0739 -0.0351  0.1301
  675POPI   GL210400   0.234  11.974   6.795  0.2875 -0.1321  0.0146
  675POPI   C1A10401   0.584  11.887   7.391 -0.1968 -0.0766  0.0014
  675POPI   D2A10402   0.585  11.724   7.754  0.1088 -0.0846  0.1100
  675POPI   C3A10403   0.653  11.772   8.138 -0.0367  0.1408  0.0800
  675POPI   C4A10404   0.445  11.772   8.550 -0.0467  0.1172  0.0152
  675POPI   C1B10405   0.167  11.975   7.221 -0.0601 -0.0396  0.1020
  675POPI   C2B10406   0.065  11.979   7.600 -0.0178 -0.1120 -0.0242
  675POPI   C3B10407  -0.132  11.943   7.967  0.0912 -0.1219 -0.0745
  675POPI   C4B10408  -0.162  11.820   8.386 -0.0883  0.3110  0.1297
  676POPI    C110409  11.554  12.003   5.851  0.1289 -0.0829  0.1765
  676POPI    C210410  11.618  12.327   5.626 -0.0686 -0.0462  0.1710
  676POPI    C310411  11.712  12.332   6.015  0.0107 -0.0130  0.1517
  676POPI   PO410412  11.298  11.935   5.841 -0.0383 -0.1560  0.1993
  676POPI   GL110413  10.998  11.881   6.164  0.0927  0.1303  0.1734
  676POPI   GL210414  10.966  12.000   6.406  0.0634 -0.0179  0.3374
  676POPI   C1A10415  11.010  11.523   6.433 -0.0616  0.0583  0.0662
  676POPI   D2A10416  10.913  11.151   6.789 -0.2554 -0.1087 -0.0132
  676POPI   C3A10417  10.915  11.149   7.206 -0.0406 -0.4179 -0.1340
  676POPI   C4A10418  10.890  11.395   7.588  0.1373  0.0025  0.1495
  676POPI   C1B10419  10.948  11.925   6.789 -0.2338 -0.0956  0.0058
  676POPI   C2B10420  11.020  11.841   7.150 -0.0794 -0.0268  0.0538
  676POPI   C3B10421  11.008  11.995   7.480  0.2164 -0.0445  0.2482
  676POPI   C4B10422  11.042  11.846   7.885  0.1501 -0.3874 -0.0489
  677POPI    C110423  15.004  13.166   6.002  0.1179  0.0382  0.2564
  677POPI    C210424  15.389  13.167   5.892  0.1169 -0.1419  0.2486
  677POPI    C310425  15.105  13.060   5.630  0.0846 -0.2496  0.3269
  677POPI   PO410426  15.025  13.015   6.265  0.1849  0.1681  0.0354
  677POPI   GL110427  15.098  13.015   6.656 -0.1483 -0.0930  0.1533
  677POPI   GL210428  15.244  13.268   6.806  0.2261 -0.1441  0.1201
  677POPI   C1A10429  14.855  13.032   7.078  0.0274  0.4064 -0.0197
  677POPI   D2A10430  14.928  13.025   7.482  0.2594  0.1450 -0.0676
  677POPI   C3A10431  14.948  13.074   7.837 -0.0541 -0.0505 -0.0120
  677POPI   C4A10432  14.938  13.104   8.193  0.2551 -0.1427  0.0279
  677POPI   C1B10433  15.231  13.333   7.228  0.0502  0.0247 -0.0763
  677POPI   C2B10434  15.257  13.464   7.660  0.1959  0.0511 -0.0881
  677POPI   C3B10435  15.235  13.535   7.985  0.2053 -0.0787  0.0021
  677POPI   C4B10436  15.342  13.584   8.487 -0.1422 -0.5043 -0.0246
  678POPI    C110437  16.427   6.820   6.282  0.1595  0.1393  0.0920
  678POPI    C210438  16.412   6.688   5.905 -0.0518  0.0343  0.1357
  678POPI    C310439  16.766   6.754   6.080  0.0523 -0.1937  0.0153
  678POPI   PO410440  16.105   6.901   6.205 -0.0340 -0.0058  0.0647
  678POPI   GL110441  15.813   7.107   6.512 -0.1019  0.1981 -0.0682
  678POPI   GL210442  15.824   7.324   6.616 -0.0888  0.0286  0.0998
  678POPI   C1A10443  15.498   6.939   6.568 -0.1174  0.0150 -0.1149
  678POPI   D2A10444  15.304   6.658   6.495 -0.0574  0.3159  0.1932
  678POPI   C3A10445  15.032   6.463   6.912  0.0219  0.0402 -0.1252
  678POPI   C4A10446  14.819   6.235   7.226 -0.0694  0.0894 -0.0513
  678POPI   C1B10447  15.917   7.410   7.024  0.2576  0.1522  0.2340
  678POPI   C2B10448  15.641   7.471   7.356 -0.1033  0.1094  0.3469
  678POPI   C3B10449  15.381   7.364   7.803  0.4649 -0.0290  0.0945
  678POPI   C4B10450  15.185   6.946   8.049  0.1825 -0.2000  0.1653
  679POPI    C110451   5.347  14.568   5.891  0.1336 -0.0395 -0.0386
  679POPI    C210452   5.453  14.248   5.676 -0.1803 -0.1323 -0.0610
  679POPI    C310453   5.085  14.400   5.640 -0.1108  0.0867  0.1273
  679POPI   PO410454   5.533  14.500   6.152  0.0942 -0.1470  0.1605
  679POPI   GL110455   5.450  14.537   6.643  0.1293  0.0515  0.1876
  679POPI   GL210456   5.434  14.914   6.679 -0.3369  0.1213  0.0010
  679POPI   C1A10457   5.539  14.172   6.861 -0.0515  0.2128 -0.1117
  679POPI   D2A10458   5.515  13.979   7.242  0.1053 -0.1693 -0.0298
  679POPI   C3A10459   5.386  14.015   7.678  0.0681  0.0216  0.2566
  679POPI   C4A10460   5.171  14.325   8.084 -0.3792  0.0921  0.2048
  679POPI   C1B10461   5.843  14.789   6.855 -0.2280  0.1876  0.0650
  679POPI   C2B10462   6.133  14.628   7.139 -0.0095  0.1977  0.2147
  679POPI   C3B10463   6.502  14.272   7.278  0.0756  0.0781  0.2867
  679POPI   C4B10464   6.809  13.946   7.405  0.0087  0.0566  0.0942
  680POPI    C110465   9.207   7.378   5.366  0.1184 -0.0230 -0.1455
  680POPI    C210466   9.549   7.411   5.161  0.0877 -0.2058 -0.2278
  680POPI    C310467   9.202   7.368   4.966 -0.0102  0.1966 -0.1514
  680POPI   PO410468   9.305   7.370   5.633  0.1069  0.1608  0.0484
  680POPI   GL110469   9.403   7.119   5.941  0.0654 -0.3077  0.2128
  680POPI   GL210470   9.749   7.027   6.025  0.1066  0.1501 -0.1530
  680POPI   C1A10471   9.170   7.108   6.222 -0.0803 -0.0061 -0.2094
  680POPI   D2A10472   9.219   7.408   6.493  0.0265  0.1196  0.0287
  680POPI   C3A10473   9.481   7.332   6.936  0.1934 -0.1143 -0.1067
  680POPI   C4A10474   9.592   6.889   7.140  0.0144 -0.1094  0.3470
  680POPI   C1B10475  10.111   7.267   5.929 -0.2521 -0.0297 -0.0792
  680POPI   C2B10476  10.506   7.458   6.056 -0.2762  0.0196 -0.4556
  680POPI   C3B10477  10.970   7.484   6.207 -0.1339  0.1733 -0.0021
  680POPI   C4B10478  11.256   7.256   6.526 -0.2519 -0.2877 -0.1116
  681POPI    C110479  14.013   3.580   5.959 -0.2203 -0.0744 -0.0419
  681POPI    C210480  14.058   3.896   5.718  0.0245  0.0748  0.1930
  681POPI    C310481  14.317   3.592   5.699 -0.1135 -0.0370  0.0828
  681POPI   PO410482  13.986   3.717   6.211  0.2396  0.0680  0.1897
  681POPI   GL110483  13.709   4.004   6.640 -0.0821 -0.1005 -0.0103
  681POPI   GL210484  13.361   4.013   6.690 -0.0820  0.3570 -0.1011
  681POPI   C1A10485  13.800   3.876   6.964  0.1536 -0.1586  0.1446
  681POPI   D2A10486  13.800   3.753   7.370  0.0471  0.1886 -0.0255
  681POPI   C3A10487  13.574   3.638   7.806 -0.0361  0.0007 -0.0516
  681POPI   C4A10488  13.436   3.473   8.199 -0.0931 -0.1672  0.1000
  681POPI   C1B10489  13.433   4.191   6.997  0.2638  0.1600 -0.2462
  681POPI   C2B10490  13.469   4.114   7.399  0.3847 -0.1604  0.0121
  681POPI   C3B10491  13.301   4.164   7.696 -0.0907  0.2048 -0.0350
  681POPI   C4B10492  13.475   4.453   8.048 -0.1956 -0.0752 -0.0611
  682POPI    C110493   3.888  13.548   6.368 -0.1317 -0.1845  0.0076
  682POPI    C210494   3.501  13.517   6.271 -0.1456  0.1668 -0.0641
  682POPI    C310495   3.777  13.551   5.984 -0.0852  0.1600 -0.0071
  682POPI   PO410496   3.982  13.400   6.597 -0.0349 -0.0828 -0.1964
  682POPI   GL110497   3.978  12.955   6.804  0.1409 -0.0292 -0.1224
  682POPI   GL210498   3.915  12.575   6.979  0.1928  0.0033 -0.0567
  682POPI   C1A10499   3.820  13.067   7.182 -0.0247  0.0733 -0.3032
  682POPI   D2A10500   3.824  12.956   7.554  0.0723 -0.2507 -0.0600
  682POPI   C3A10501   3.487  12.788   7.563 -0.0892  0.2216  0.1167
  682POPI   C4A10502   3.052  12.698   7.607  0.4301  0.2936  0.0428
  682POPI   C1B10503   4.196  12.795   7.286 -0.0703  0.0840  0.0671
  682POPI   C2B10504   4.361  12.848   7.769 -0.0389  0.1505 -0.4145
  682POPI   C3B10505   3.928  12.827   8.002  0.1842 -0.1559 -0.0867
  682POPI   C4B10506   3.786  12.698   8.474 -0.3665  0.0367 -0.0631
  683POPI    C110507  14.244   9.998   6.084  0.1329 -0.1583  0.2183
  683POPI    C210508  14.530   9.776   5.913 -0.0888 -0.2736 -0.0095
  683POPI    C310509  14.173   9.615   5.994 -0.1757 -0.0620  0.0360
  683POPI   PO410510  14.358  10.122   6.323  0.0450  0.1077 -0.0041
  683POPI   GL110511  14.403  10.109   6.789  0.2131 -0.0615 -0.2423
  683POPI   GL210512  14.103  10.159   6.787  0.0024  0.1915  0.0629
  683POPI   C1A10513  14.461  10.290   7.212 -0.1704 -0.1562  0.1386
  683POPI   D2A10514  14.510  10.361   7.656  0.1520  0.0102 -0.0770
  683POPI   C3A10515  14.433  10.335   8.096  0.0753 -0.0524  0.2076
  683POPI   C4A10516  14.707  10.380   8.440 -0.1766  0.1729 -0.0195
  683POPI   C1B10517  13.954  10.008   7.142 -0.0616  0.1492 -0.3140
  683POPI   C2B10518  13.832   9.986   7.518  0.2486 -0.0390 -0.1465
  683POPI   C3B10519  13.914   9.953   7.913 -0.1996 -0.4673  0.2897
  683POPI   C4B10520  13.904  10.251   8.290 -0.0596 -0.1024  0.3127
  684POPI    C110521  17.555   3.429   6.130  0.0801  0.1132  0.0224
  684POPI    C210522  17.861   3.177   6.080  0.0948  0.1102  0.1258
  684POPI    C310523  17.575   3.201   5.802 -0.1040 -0.2952  0.2867
  684POPI   PO410524  17.491   3.450   6.404 -0.2564  0.2087  0.0188
  684POPI   GL110525  17.476   3.472   6.813 -0.0273 -0.2716  0.1683
  684POPI   GL210526  17.753   3.697   6.802  0.1719  0.1687  0.1958
  684POPI   C1A10527  17.361   3.735   7.142 -0.0696 -0.0947  0.3080
  684POPI   D2A10528  17.030   3.861   7.302 -0.3688 -0.0167 -0.2308
  684POPI   C3A10529  16.822   4.191   7.314  0.0575 -0.0054  0.0762
  684POPI   C4A10530  16.921   4.581   7.157  0.4768 -0.0850  0.0170
  684POPI   C1B10531  17.941   3.916   7.072  0.1057  0.1817 -0.2156
  684POPI   C2B10532  17.664   4.034   7.353  0.1615  0.0120 -0.0216
  684POPI   C3B10533  17.437   3.829   7.681 -0.0236 -0.3586 -0.5206
  684POPI   C4B10534  17.447   3.663   8.180 -0.1001 -0.1116 -0.2339
  685POPI    C110535  10.430  11.792   5.910  0.1869  0.0737 -0.0854
  685POPI    C210536  10.497  11.885   5.527  0.2329  0.4153  0.0024
  685POPI    C310537  10.698  12.075   5.817  0.2242  0.1341  0.1960
  685POPI   PO410538  10.187  11.780   5.932  0.3047 -0.0002 -0.0103
  685POPI   GL110539  10.132  11.394   6.168  0.1865  0.1701 -0.0161
  685POPI   GL210540   9.937  11.316   6.418  0.2441  0.1638 -0.0022
  685POPI   C1A10541  10.165  10.842   6.308  0.1572 -0.1683 -0.0082
  685POPI   D2A10542  10.091  10.520   6.616  0.0092 -0.0716 -0.1343
  685POPI   C3A10543  10.028  10.748   7.074 -0.2269  0.0831  0.0122
  685POPI   C4A10544   9.872  10.865   7.542 -0.0119  0.1778  0.3284
  685POPI   C1B10545  10.066  11.339   6.827 -0.1919 -0.1501 -0.1213
  685POPI   C2B10546   9.935  11.347   7.312 -0.2548  0.2296 -0.0511
  685POPI   C3B10547  10.046  11.386   7.668  0.1320 -0.3310  0.0592
  685POPI   C4B10548  10.138  11.501   8.145  0.0819 -0.0809  0.1956
  686POPI    C110549  16.035   7.951   6.237 -0.0427  0.2402 -0.0665
  686POPI    C210550  15.828   8.267   6.106  0.0637  0.1985 -0.3438
  686POPI    C310551  15.979   8.005   5.845 -0.1030 -0.1354 -0.1138
  686POPI   PO410552  15.950   7.888   6.497 -0.0509  0.1729  0.1532
  686POPI   GL110553  15.496   8.006   6.753  0.2956 -0.1463  0.1132
  686POPI   GL210554  15.493   7.673   6.632  0.0040  0.0259 -0.0703
  686POPI   C1A10555  15.684   7.939   7.156 -0.1275  0.1130  0.3166
  686POPI   D2A10556  15.623   8.006   7.591 -0.1804 -0.0963  0.0537
  686POPI   C3A10557  15.382   8.270   7.807 -0.1759 -0.0506  0.2755
  686POPI   C4A10558  15.203   8.677   7.893 -0.1841 -0.1211  0.1416
  686POPI   C1B10559  15.414   7.276   6.960  0.2885  0.0658  0.1334
  686POPI   C2B10560  15.262   6.858   6.975  0.1479 -0.1183  0.0284
  686POPI   C3B10561  15.229   6.606   7.368  0.0850  0.0543  0.0012
  686POPI   C4B10562  14.902   6.452   7.657  0.1540  0.0703  0.0307
  687POPI    C110563   8.842  14.973   6.033 -0.0030 -0.0499 -0.0332
  687POPI    C210564   8.873  15.132   5.667 -0.0971 -0.0978 -0.0623
  687POPI    C310565   8.998  14.758   5.734  0.0198 -0.0516 -0.0200
  687POPI   PO410566   8.881  15.268   6.135 -0.3794 -0.0734 -0.0735
  687POPI   GL110567   8.772  15.334   6.636  0.0446  0.2563 -0.4331
  687POPI   GL210568   8.531  15.696   6.734 -0.2532 -0.1999 -0.0504
  687POPI   C1A10569   8.663  15.383   7.039 -0.0585 -0.0137  0.0980
  687POPI   D2A10570   8.698  15.344   7.447 -0.3471  0.0699 -0.1843
  687POPI   C3A10571   8.973  15.287   7.769 -0.1279  0.1692 -0.0873
  687POPI   C4A10572   9.100  15.284   8.154 -0.3095 -0.0343  0.0067
  687POPI   C1B10573   8.690  15.894   7.101 -0.1353 -0.0552  0.2586
  687POPI   C2B10574   8.841  15.931   7.578 -0.0986 -0.0181 -0.1178
  687POPI   C3B10575   9.152  15.790   7.870 -0.2051  0.1920  0.0996
  687POPI   C4B10576   9.339  15.664   8.238  0.0945 -0.0837 -0.0018
  688POPI    C110577   5.481   4.568   6.448  0.2019  0.0858  0.0150
  688POPI    C210578   5.137   4.763   6.506  0.1986  0.0507  0.1156
  688POPI    C310579   5.293   4.737   6.138  0.1414  0.1458  0.0843
  688POPI   PO410580   5.617   4.633   6.594  0.1731  0.0546  0.1811
  688POPI   GL110581   5.432   4.722   6.974 -0.0354  0.1560  0.2600
  688POPI   GL210582   5.791   4.834   7.067  0.1772 -0.0821  0.0636
  688POPI   C1A10583   5.252   4.740   7.407  0.0290  0.0901  0.2219
  688POPI   D2A10584   5.298   4.609   7.819  0.2666  0.0359 -0.3010
  688POPI   C3A10585   5.478   4.800   8.165 -0.0636 -0.1759 -0.0764
  688POPI   C4A10586   5.385   4.903   8.563  0.1515 -0.2122  0.1433
  688POPI   C1B10587   5.709   4.540   7.387  0.0110 -0.1197  0.2327
  688POPI   C2B10588   5.758   4.529   7.884 -0.1246 -0.0295  0.0030
  688POPI   C3B10589   5.741   4.387   8.264  0.1261 -0.1290 -0.3381
  688POPI   C4B10590   5.561   4.259   8.686  0.1603  0.1630 -0.0132
  689POPI    C110591  15.235  12.080   6.196 -0.0315 -0.1308 -0.0342
  689POPI    C210592  15.259  12.234   5.827 -0.1435 -0.0950 -0.0269
  689POPI    C310593  15.047  11.901   5.892 -0.0278 -0.1667 -0.0154
  689POPI   PO410594  15.505  12.181   6.333 -0.0453 -0.3245 -0.1087
  689POPI   GL110595  15.765  12.527   6.391 -0.2849 -0.0451 -0.0532
  689POPI   GL210596  15.401  12.598   6.654 -0.0799 -0.3155  0.3547
  689POPI   C1A10597  15.914  12.265   6.853  0.0811 -0.1817 -0.0326
  689POPI   D2A10598  16.053  12.262   7.348  0.1199 -0.1383 -0.2182
  689POPI   C3A10599  16.286  11.959   7.536  0.2114  0.2146  0.0646
  689POPI   C4A10600  16.258  11.672   7.853  0.1076 -0.3780  0.1996
  689POPI   C1B10601  15.308  12.687   7.064  0.0532 -0.0455 -0.2234
  689POPI   C2B10602  15.379  12.915   7.422  0.1235  0.3406  0.1243
  689POPI   C3B10603  15.422  12.911   7.874  0.0842  0.3026  0.1836
  689POPI   C4B10604  15.511  13.173   8.194  0.0413 -0.0765  0.3871
  690POPI    C110605   5.706   7.978   6.008  0.1646 -0.0462 -0.1258
  690POPI    C210606   5.895   8.129   5.690  0.2443  0.2642  0.0641
  690POPI    C310607   5.601   8.336   5.865  0.2249  0.1116  0.2143
  690POPI   PO410608   5.766   7.966   6.225 -0.1101  0.1797  0.0929
  690POPI   GL110609   5.739   7.854   6.630  0.2551 -0.3965 -0.1866
  690POPI   GL210610   5.613   7.493   6.644 -0.0373  0.0917 -0.1033
  690POPI   C1A10611   5.959   7.959   7.008 -0.3344  0.3736  0.0104
  690POPI   D2A10612   5.988   7.896   7.440 -0.0325 -0.2356  0.1655
  690POPI   C3A10613   6.072   8.285   7.572  0.0273  0.1261 -0.0677
  690POPI   C4A10614   6.237   8.744   7.876  0.3339 -0.1942 -0.0024
  690POPI   C1B10615   5.794   7.439   6.954  0.1050  0.1751  0.0302
  690POPI   C2B10616   5.996   7.404   7.322 -0.1211 -0.3166 -0.1998
  690POPI   C3B10617   6.022   7.417   7.704 -0.0214 -0.1329 -0.0639
  690POPI   C4B10618   6.114   7.320   8.127 -0.2674  0.0208 -0.2038
  691POPI    C110619   6.113   4.488   6.131  0.1570 -0.1497 -0.0503
  691POPI    C210620   5.740   4.398   6.018  0.0794  0.0612  0.0332
  691POPI    C310621   6.051   4.267   5.803 -0.0594  0.3153 -0.3333
  691POPI   PO410622   6.071   4.478   6.436  0.2363 -0.2251  0.0386
  691POPI   GL110623   6.175   4.730   6.710 -0.0905 -0.3462  0.0336
  691POPI   GL210624   5.992   5.076   6.685  0.1032  0.0265  0.0283
  691POPI   C1A10625   6.252   4.602   7.095 -0.0429  0.1262  0.2799
  691POPI   D2A10626   6.171   4.628   7.532 -0.0904  0.0571  0.3870
  691POPI   C3A10627   6.193   4.420   7.850 -0.1179  0.3639  0.2475
  691POPI   C4A10628   6.240   4.279   8.375  0.1023 -0.1193 -0.3221
  691POPI   C1B10629   6.205   5.091   7.109  0.0605  0.2301 -0.0245
  691POPI   C2B10630   6.330   5.188   7.432 -0.1783  0.1140 -0.0977
  691POPI   C3B10631   6.583   5.166   7.846  0.1561  0.2258 -0.0785
  691POPI   C4B10632   6.727   4.948   8.245 -0.0979 -0.2054 -0.1049
  692POPI    C110633  17.517  13.852   6.235 -0.0477  0.1589 -0.0536
  692POPI    C210634  17.335  14.168   6.400 -0.0532  0.1275  0.0005
  692POPI    C310635  17.210  14.027   6.047 -0.1168  0.1224  0.0250
  692POPI   PO410636  17.690  13.804   6.452  0.0973 -0.1130 -0.1041
  692POPI   GL110637  17.648  13.621   6.830 -0.1164  0.2747 -0.1527
  692POPI   GL210638  17.756  13.203   6.957  0.2060  0.0755 -0.2433
  692POPI   C1A10639  17.489  13.641   7.258 -0.0709 -0.1209  0.3320
  692POPI   D2A10640  17.267  13.840   7.646 -0.2782 -0.0317  0.1701
  692POPI   C3A10641  17.375  14.213   7.919  0.1922  0.3619  0.1525
  692POPI   C4A10642  17.235  14.189   8.405 -0.0586  0.1380  0.1937
  692POPI   C1B10643  17.687  13.148   7.394  0.0580 -0.0603  0.3345
  692POPI   C2B10644  17.702  13.461   7.706  0.0118 -0.0485 -0.1444
  692POPI   C3B10645  17.626  13.739   8.065  0.0176  0.1292 -0.0196
  692POPI   C4B10646  17.688  13.985   8.404 -0.1295 -0.1643  0.0957
  693POPI    C110647   4.834  13.759   6.046  0.0931 -0.0856  0.2019
  693POPI    C210648   5.176  13.964   6.008  0.1523 -0.2441 -0.1667
  693POPI    C310649   4.953  13.885   5.685 -0.2817 -0.0674  0.0808
  693POPI   PO410650   4.746  13.874   6.238 -0.1438  0.1961 -0.5464
  693POPI   GL110651   4.732  13.743   6.752 -0.0394  0.1836 -0.4298
  693POPI   GL210652   4.922  14.011   6.687  0.0184 -0.1923 -0.0399
  693POPI   C1A10653   4.467  13.833   7.118  0.0983 -0.1762  0.1299
  693POPI   D2A10654   4.295  13.819   7.479  0.2560  0.2572 -0.1813
  693POPI   C3A10655   4.579  13.733   7.869  0.1268  0.2029 -0.1015
  693POPI   C4A10656   4.462  13.677   8.300  0.0698 -0.2657 -0.1458
  693POPI   C1B10657   5.016  14.059   7.094 -0.2179  0.3282  0.0259
  693POPI   C2B10658   5.193  14.446   7.291  0.0087  0.0845 -0.0435
  693POPI   C3B10659   5.434  14.555   7.700  0.2202  0.3291 -0.4193
  693POPI   C4B10660   5.658  14.721   8.103  0.2287  0.1412  0.0101
  694POPI    C110661  16.821   6.026   6.280 -0.0442 -0.1519  0.0556
  694POPI    C210662  16.429   6.103   6.299  0.0264  0.3044 -0.1815
  694POPI    C310663  16.658   6.296   6.034  0.4007 -0.0172 -0.1019
  694POPI   PO410664  16.865   6.012   6.556  0.1882  0.0132  0.0094
  694POPI   GL110665  16.436   5.966   6.826 -0.1486  0.1886 -0.1307
  694POPI   GL210666  16.670   5.810   6.945  0.1265  0.1031 -0.2946
  694POPI   C1A10667  16.077   5.889   7.068  0.0251  0.0544  0.1138
  694POPI   D2A10668  15.920   5.858   7.476  0.1039  0.1191 -0.1643
  694POPI   C3A10669  16.119   5.944   7.896  0.2341 -0.1095 -0.1599
  694POPI   C4A10670  16.228   5.944   8.318 -0.3668 -0.0170  0.0819
  694POPI   C1B10671  16.894   5.793   7.345 -0.0539  0.4677 -0.0708
  694POPI   C2B10672  17.117   6.118   7.494 -0.1823 -0.1306 -0.4931
  694POPI   C3B10673  17.336   6.237   7.813  0.0911 -0.2797 -0.1274
  694POPI   C4B10674  17.321   6.350   8.258  0.0608  0.1117 -0.2175
  695POPI    C110675   3.772  11.732   6.206 -0.0726 -0.0143 -0.0018
  695POPI    C210676   3.648  11.489   5.914 -0.1410 -0.0447  0.0523
  695POPI    C310677   3.765  11.862   5.828 -0.0319 -0.0980 -0.0315
  695POPI   PO410678   3.614  11.707   6.408  0.1653 -0.1648  0.1882
  695POPI   GL110679   3.683  11.528   6.748 -0.3235  0.0005 -0.0203
  695POPI   GL210680   3.963  11.673   6.964  0.1275 -0.1439  0.3670
  695POPI   C1A10681   3.635  11.292   7.113 -0.0399 -0.3286 -0.2360
  695POPI   D2A10682   3.592  11.242   7.515  0.0555  0.0970  0.2931
  695POPI   C3A10683   3.859  11.068   7.692 -0.0668 -0.0924 -0.3444
  695POPI   C4A10684   4.012  10.928   8.022  0.3413 -0.1220  0.1157
  695POPI   C1B10685   4.073  11.387   7.314  0.2280  0.2148  0.2563
  695POPI   C2B10686   4.044  11.532   7.714  0.2019  0.1543 -0.0664
  695POPI   C3B10687   4.200  11.394   8.014 -0.0615 -0.1231  0.1221
  695POPI   C4B10688   4.201  11.304   8.504 -0.3388  0.0374 -0.1654
  696POPI    C110689   7.455   0.401   6.530 -0.4031  0.0348  0.2071
  696POPI    C210690   7.273   0.634   6.261 -0.1879 -0.0396 -0.0069
  696POPI    C310691   7.405   0.272   6.154  0.0348 -0.0087  0.1588
  696POPI   PO410692   7.617   0.638   6.656 -0.1962 -0.2673  0.3193
  696POPI   GL110693   7.882   0.809   6.945 -0.2056 -0.2060 -0.0917
  696POPI   GL210694   7.644   1.027   7.051 -0.1178 -0.0898  0.1238
  696POPI   C1A10695   7.864   0.701   7.364 -0.0757 -0.2215  0.2325
  696POPI   D2A10696   7.843   0.471   7.798 -0.0403  0.0191  0.0021
  696POPI   C3A10697   8.130   0.484   8.111  0.0025 -0.1187 -0.1052
  696POPI   C4A10698   8.098   0.380   8.550  0.1435  0.1994  0.1019
  696POPI   C1B10699   7.739   1.160   7.454 -0.2727  0.2506 -0.2535
  696POPI   C2B10700   7.870   1.416   7.820 -0.0197 -0.5370  0.0699
  696POPI   C3B10701   7.985   1.733   8.113  0.1476  0.3815  0.0626
  696POPI   C4B10702   8.052   2.087   8.413  0.1188  0.0162 -0.0074
  697POPI    C110703  12.605   3.131   6.006 -0.0518  0.0380 -0.2860
  697POPI    C210704  12.483   2.821   5.784  0.0725 -0.0268 -0.2648
  697POPI    C310705  12.874   2.881   5.847  0.0420  0.0445 -0.1395
  697POPI   PO410706  12.538   3.054   6.270 -0.1179  0.1900  0.2443
  697POPI   GL110707  12.342   3.070   6.735  0.2110  0.0611 -0.0132
  697POPI   GL210708  12.614   3.247   6.872  0.1197 -0.3374  0.0213
  697POPI   C1A10709  12.126   3.060   7.072  0.2342  0.3760 -0.1172
  697POPI   D2A10710  12.030   3.041   7.524 -0.0058 -0.0795  0.0251
  697POPI   C3A10711  12.490   3.129   7.803 -0.1636 -0.0643  0.4532
  697POPI   C4A10712  12.878   3.044   7.929  0.0099  0.0719  0.0543
  697POPI   C1B10713  12.613   3.333   7.332  0.0053  0.0619  0.3266
  697POPI   C2B10714  12.798   3.486   7.699 -0.1275  0.1297 -0.1718
  697POPI   C3B10715  12.555   3.682   8.018 -0.2464  0.4746 -0.0774
  697POPI   C4B10716  12.587   3.939   8.488 -0.0391  0.1025  0.0823
  698POPI    C110717  16.540  15.649   5.947  0.2858 -0.0762 -0.0155
  698POPI    C210718  16.171  15.511   5.880  0.1202  0.3495 -0.0094
  698POPI    C310719  16.488  15.289   5.780 -0.1332 -0.0692  0.0889
  698POPI   PO410720  16.490  15.844   6.086 -0.0102 -0.0111  0.1164
  698POPI   GL110721  16.605  15.841   6.457 -0.0287  0.1735 -0.2127
  698POPI   GL210722  16.487  15.507   6.438 -0.1929 -0.0064 -0.0649
  698POPI   C1A10723  16.451  15.877   6.843  0.1091  0.1155  0.0300
  698POPI   D2A10724  16.523  16.006   7.284  0.0380  0.0819 -0.1424
  698POPI   C3A10725  16.267  16.160   7.513  0.1415  0.0621 -0.1648
  698POPI   C4A10726  16.123  16.067   7.852 -0.4172  0.1401  0.0899
  698POPI   C1B10727  16.511  15.367   6.856  0.1194 -0.1798 -0.2344
  698POPI   C2B10728  16.432  15.390   7.237  0.3309 -0.2193  0.0730
  698POPI   C3B10729  16.325  15.499   7.642 -0.0033 -0.2001  0.0923
  698POPI   C4B10730  16.068  15.556   7.981  0.2230  0.2065 -0.1324
  699POPI    C110731   7.067  11.573   5.771 -0.1858  0.0160  0.1075
  699POPI    C210732   6.752  11.399   5.599 -0.2736  0.0656  0.2169
  699POPI    C310733   7.086  11.459   5.388 -0.2161 -0.2980  0.1969
  699POPI   PO410734   7.159  11.451   6.021 -0.0044 -0.0579 -0.0146
  699POPI   GL110735   6.898  11.477   6.428  0.1669  0.3680  0.0494
  699POPI   GL210736   6.615  11.661   6.418  0.2013 -0.0716 -0.1270
  699POPI   C1A10737   6.810  11.145   6.596  0.0678  0.0388  0.1940
  699POPI   D2A10738   7.046  10.798   6.822 -0.2629  0.0538 -0.0776
  699POPI   C3A10739   7.425  10.934   7.092 -0.1657 -0.0119  0.1789
  699POPI   C4A10740   7.334  11.324   7.314  0.0776 -0.1315  0.2365
  699POPI   C1B10741   6.554  11.602   6.837  0.1717 -0.0421  0.1917
  699POPI   C2B10742   6.542  11.592   7.294 -0.2185 -0.1159  0.3249
  699POPI   C3B10743   6.593  11.601   7.797 -0.0015 -0.0066 -0.2599
  699POPI   C4B10744   6.495  11.398   8.256 -0.1133 -0.0509  0.0649
  700POPI    C110745   7.115   3.465   6.193 -0.0616 -0.1126  0.2135
  700POPI    C210746   7.483   3.385   6.057 -0.0060  0.2121  0.1657
  700POPI    C310747   7.172   3.170   5.928  0.1099  0.2124 -0.1208
  700POPI   PO410748   7.107   3.538   6.392 -0.0794  0.0323  0.0142
  700POPI   GL110749   7.211   3.639   6.786  0.1808 -0.0906 -0.0640
  700POPI   GL210750   7.015   3.954   6.696  0.3092 -0.0826 -0.0225
  700POPI   C1A10751   7.377   3.635   7.299 -0.1306 -0.0282  0.0955
  700POPI   D2A10752   7.352   3.458   7.638 -0.0550  0.1173  0.1500
  700POPI   C3A10753   7.494   3.530   7.974 -0.3636  0.2092 -0.0922
  700POPI   C4A10754   7.766   3.580   8.411 -0.0149  0.1593  0.1536
  700POPI   C1B10755   6.986   3.908   7.145  0.0452 -0.2684  0.0469
  700POPI   C2B10756   6.952   3.829   7.528 -0.0395 -0.0897 -0.0580
  700POPI   C3B10757   6.924   3.641   7.925 -0.1157 -0.0198  0.1816
  700POPI   C4B10758   7.166   3.636   8.386  0.0011  0.2641  0.1274
  701POPS   CNO10759   6.745  15.529   6.594 -0.0893  0.0500 -0.1299
  701POPS   PO410760   6.607  15.917   6.799 -0.0408  0.2528 -0.0291
  701POPS   GL110761   6.468  15.755   7.120 -0.1066  0.0280 -0.1780
  701POPS   GL210762   6.371  15.442   6.904  0.0266  0.0658 -0.0065
  701POPS   C1A10763   6.299  15.494   7.451  0.1722  0.0367 -0.2685
  701POPS   D2A10764   6.307  15.384   7.857 -0.0250 -0.1170  0.1310
  701POPS   C3A10765   6.268  14.955   8.113 -0.0373 -0.0261  0.0332
  701POPS   C4A10766   6.486  14.612   8.289  0.0353  0.0064 -0.4452
  701POPS   C1B10767   6.448  15.087   7.134  0.0969 -0.3584 -0.2199
  701POPS   C2B10768   6.457  14.861   7.409 -0.0236  0.0929  0.0902
  701POPS   C3B10769   6.473  14.583   7.754  0.3047 -0.0985 -0.1050
  701POPS   C4B10770   6.207  14.288   8.041 -0.1968  0.1468  0.0945
  702POPS   CNO10771   7.932   8.515   5.915 -0.1195 -0.0998 -0.0627
  702POPS   PO410772   8.007   8.121   6.192 -0.2515  0.0114 -0.0298
  702POPS   GL110773   8.133   8.050   6.529 -0.3478 -0.0712 -0.1383
  702POPS   GL210774   8.435   8.082   6.440  0.0486 -0.0384  0.0473
  702POPS   C1A10775   8.335   8.044   7.053  0.3482  0.0707 -0.0037
  702POPS   D2A10776   8.261   7.916   7.492 -0.1452 -0.1292  0.1265
  702POPS   C3A10777   8.504   7.700   7.770 -0.1864 -0.1957  0.3043
  702POPS   C4A10778   8.592   7.637   8.251  0.1133  0.0736  0.1445
  702POPS   C1B10779   8.634   8.373   6.649 -0.1712 -0.0874  0.2714
  702POPS   C2B10780   8.667   8.446   7.101 -0.1443  0.0655 -0.1112
  702POPS   C3B10781   8.636   8.337   7.555 -0.1465  0.0682  0.2731
  702POPS   C4B10782   8.614   8.167   7.947 -0.1940 -0.1627 -0.0456
  703POPS   CNO10783   3.339   2.766   6.360 -0.0311 -0.1694  0.3457
  703POPS   PO410784   3.672   2.976   6.455 -0.2477  0.1967 -0.1010
  703POPS   GL110785   3.806   3.111   6.800  0.1699 -0.1730  0.0526
  703POPS   GL210786   3.856   3.387   6.924  0.0992 -0.1810  0.0292
  703POPS   C1A10787   3.855   2.977   7.221  0.1311  0.1963  0.0001
  703POPS   D2A10788   3.948   2.854   7.639  0.1484  0.0879  0.2518
  703POPS   C3A10789   3.745   2.949   8.085  0.0889 -0.2364  0.1630
  703POPS   C4A10790   3.742   3.120   8.499 -0.2227 -0.1478 -0.0575
  703POPS   C1B10791   3.819   3.631   7.290  0.0586  0.1349 -0.0995
  703POPS   C2B10792   3.729   3.658   7.667  0.0503 -0.2534 -0.3408
  703POPS   C3B10793   4.027   3.659   7.995 -0.2883 -0.1590  0.0650
  703POPS   C4B10794   4.232   3.728   8.432 -0.0175  0.0918  0.1797
  704POPS   CNO10795   9.687  10.382   5.763  0.0738 -0.3816 -0.1606
  704POPS   PO410796   9.253  10.177   5.683 -0.1948  0.3458 -0.3311
  704POPS   GL110797   9.314  10.275   6.102 -0.0100  0.1395  0.2130
  704POPS   GL210798   9.181  10.164   6.362  0.3873  0.1691  0.1232
  704POPS   C1A10799   9.654  10.601   6.332 -0.3173  0.6914  0.0548
  704POPS   D2A10800   9.714  10.878   6.672 -0.4415  0.3775 -0.2369
  704POPS   C3A10801   9.608  10.635   6.900 -0.0716  0.0021  0.0992
  704POPS   C4A10802   9.755  10.407   7.341  0.0416 -0.0201  0.3034
  704POPS   C1B10803   9.202  10.370   6.703  0.1963  0.2549 -0.2987
  704POPS   C2B10804   9.266  10.358   7.125  0.0889 -0.1300 -0.0581
  704POPS   C3B10805   9.258  10.590   7.369 -0.0712  0.0639  0.2040
  704POPS   C4B10806   9.430  10.649   7.788 -0.0767  0.4447 -0.0028
  705POPS   CNO10807   5.245   0.023   6.505  0.0019  0.0941  0.0698
  705POPS   PO410808   5.619   0.240   6.663 -0.0093  0.1059 -0.0799
  705POPS   GL110809   5.619   0.206   7.060 -0.1898 -0.1726 -0.1383
  705POPS   GL210810   5.631   0.491   7.222  0.0461  0.1236 -0.0177
  705POPS   C1A10811   5.678   0.043   7.457 -0.3241 -0.1376 -0.2538
  705POPS   D2A10812   5.521   0.036   7.855 -0.0775 -0.2422 -0.0914
  705POPS   C3A10813   5.279   0.140   8.187  0.3422 -0.0870  0.0224
  705POPS   C4A10814   5.153   0.105   8.520 -0.1475  0.2503 -0.0895
  705POPS   C1B10815   5.721   0.516   7.682 -0.2273  0.1613 -0.1027
  705POPS   C2B10816   5.690   0.635   8.099 -0.0770 -0.1302 -0.3238
  705POPS   C3B10817   5.612   0.490   8.416  0.0972  0.2871  0.1866
  705POPS   C4B10818   5.454   0.685   8.707  0.1518  0.1252 -0.0544
  706POPS   CNO10819   3.206  16.260   5.783 -0.1004 -0.0571  0.1547
  706POPS   PO410820   3.589  16.051   6.048 -0.2439 -0.2330  0.0985
  706POPS   GL110821   3.626  16.147   6.466  0.1453  0.1780 -0.3415
  706POPS   GL210822   3.274  16.078   6.645  0.1683  0.0483 -0.3125
  706POPS   C1A10823   3.834  16.166   6.911 -0.0727 -0.2626  0.0857
  706POPS   D2A10824   3.942  16.003   7.305 -0.1516  0.0874  0.0339
  706POPS   C3A10825   3.699  16.036   7.734  0.2362 -0.1197 -0.1562
  706POPS   C4A10826   3.629  16.222   8.186 -0.3162  0.0306  0.0600
  706POPS   C1B10827   3.032  16.323   6.978  0.0697  0.0267  0.0005
  706POPS   C2B10828   3.047  16.622   7.351 -0.0797 -0.1625  0.0336
  706POPS   C3B10829   3.037  16.913   7.708 -0.3191  0.0038  0.0045
  706POPS   C4B10830   2.921  16.880   8.125 -0.1817 -0.0824 -0.1743
  707POPS   CNO10831   3.969   1.284   6.742  0.0606  0.1241 -0.1834
  707POPS   PO410832   3.750   1.000   6.809  0.0259  0.1259 -0.0714
  707POPS   GL110833   3.638   0.836   7.123  0.3135 -0.0552  0.1412
  707POPS   GL210834   3.525   0.589   7.172  0.0403 -0.3342 -0.4208
  707POPS   C1A10835   3.948   0.707   7.466 -0.0842 -0.2804  0.1925
  707POPS   D2A10836   4.340   0.418   7.496 -0.0824  0.1128 -0.0428
  707POPS   C3A10837   4.751   0.380   7.713 -0.0719  0.1124 -0.0507
  707POPS   C4A10838   5.258   0.324   7.571  0.1334  0.0027 -0.2425
  707POPS   C1B10839   3.523   0.581   7.697  0.1421 -0.1096 -0.1339
  707POPS   C2B10840   3.386   0.548   8.123  0.0688  0.2229  0.0436
  707POPS   C3B10841   3.321   0.455   8.542  0.3984  0.0611  0.1213
  707POPS   C4B10842   3.127   0.063   8.722  0.0582 -0.1691 -0.1355
  708POPS   CNO10843   8.289   3.527   6.154 -0.2593  0.0323  0.2717
  708POPS   PO410844   8.215   3.514   6.639  0.0436  0.1179  0.2122
  708POPS   GL110845   8.188   3.862   6.850  0.0697 -0.1636 -0.1774
  708POPS   GL210846   7.917   4.063   6.747 -0.1003  0.1397  0.4744
  708POPS   C1A10847   8.378   3.990   7.237  0.1477  0.2454  0.0148
  708POPS   D2A10848   8.473   4.136   7.579  0.0362 -0.1019  0.0585
  708POPS   C3A10849   8.422   3.945   8.035  0.0084  0.2245  0.0001
  708POPS   C4A10850   8.516   3.702   8.465  0.0291  0.1590 -0.1530
  708POPS   C1B10851   7.879   4.082   7.174  0.0603 -0.0550  0.3832
  708POPS   C2B10852   7.891   4.185   7.596 -0.0083  0.1422 -0.0398
  708POPS   C3B10853   7.722   4.355   7.899  0.3148 -0.0377  0.0888
  708POPS   C4B10854   7.667   4.552   8.339 -0.2338  0.1747  0.1804
  709POPS   CNO10855   8.713  17.547   6.281  0.1278  0.0035  0.0197
  709POPS   PO410856   8.327  17.646   6.429 -0.1424 -0.0738  0.2446
  709POPS   GL110857   8.484  17.765   6.783  0.2790 -0.0776 -0.1137
  709POPS   GL210858   8.677  18.026   6.784  0.1955 -0.0869 -0.0107
  709POPS   C1A10859   8.436  17.640   7.120 -0.2434  0.1324 -0.1086
  709POPS   D2A10860   8.208  17.440   7.373  0.2086  0.0531  0.0724
  709POPS   C3A10861   8.166  17.118   7.682  0.1754 -0.1158  0.2183
  709POPS   C4A10862   7.953  17.228   8.074 -0.2810 -0.0754 -0.0861
  709POPS   C1B10863   8.747  18.207   7.246  0.2272 -0.3288 -0.1829
  709POPS   C2B10864   9.114  18.401   7.535 -0.0142  0.0510  0.2245
  709POPS   C3B10865   9.132  18.585   7.892 -0.1157  0.1010  0.0588
  709POPS   C4B10866   9.378  18.889   8.210  0.1574  0.1279 -0.2612
  710POPS   CNO10867   1.641   4.341   6.861  0.1627 -0.0416  0.0418
  710POPS   PO410868   1.568   4.658   6.572  0.2085 -0.0483 -0.0646
  710POPS   GL110869   1.379   4.753   7.019 -0.0894 -0.2333 -0.1383
  710POPS   GL210870   1.080   4.600   7.153 -0.0488 -0.0617  0.0320
  710POPS   C1A10871   1.132   5.055   7.269 -0.1003 -0.1247  0.1488
  710POPS   D2A10872   0.824   4.995   7.735  0.0583  0.1234 -0.0125
  710POPS   C3A10873   0.828   4.751   8.154  0.0952 -0.0540  0.0583
  710POPS   C4A10874   0.636   4.629   8.517  0.0550  0.0397 -0.2093
  710POPS   C1B10875   0.933   4.541   7.635  0.1674 -0.2282 -0.1123
  710POPS   C2B10876   1.091   4.312   7.993  0.0700 -0.2371  0.0118
  710POPS   C3B10877   0.919   4.050   8.374  0.0018 -0.1288  0.1625
  710POPS   C4B10878   1.064   3.841   8.707  0.0125 -0.0514 -0.0673
  711POPS   CNO10879  15.854  16.917   6.195 -0.1780 -0.1361 -0.2723
  711POPS   PO410880  15.603  17.162   6.103  0.0063  0.1308 -0.2078
  711POPS   GL110881  15.337  17.165   6.449  0.1139 -0.3376  0.1652
  711POPS   GL210882  15.518  16.944   6.586  0.1702  0.1414  0.0416
  711POPS   C1A10883  15.127  17.257   6.731 -0.1184  0.2042  0.0371
  711POPS   D2A10884  15.178  17.460   7.032  0.0283 -0.2914  0.0886
  711POPS   C3A10885  15.086  17.524   7.442  0.1783  0.1469  0.2319
  711POPS   C4A10886  14.894  17.546   7.831  0.3367  0.1681 -0.3323
  711POPS   C1B10887  15.675  16.808   7.082  0.1976 -0.3588 -0.0296
  711POPS   C2B10888  15.703  16.802   7.572 -0.0917 -0.4223  0.1379
  711POPS   C3B10889  15.926  17.023   7.972 -0.0124 -0.1762 -0.1460
  711POPS   C4B10890  15.853  17.149   8.428 -0.0958  0.0376 -0.0208
  712POPS   CNO10891   1.922   5.259   6.342  0.4219 -0.0428  0.0753
  712POPS   PO410892   2.037   5.408   6.739 -0.0387  0.0198 -0.1677
  712POPS   GL110893   1.791   5.223   7.115 -0.2317 -0.0612  0.0355
  712POPS   GL210894   1.578   5.311   7.498 -0.0492  0.1189 -0.3667
  712POPS   C1A10895   1.590   4.858   7.420 -0.1469  0.0971  0.0466
  712POPS   D2A10896   1.349   4.973   7.805  0.0500 -0.1573  0.2485
  712POPS   C3A10897   1.199   5.083   8.169 -0.0778  0.0539 -0.1565
  712POPS   C4A10898   1.367   4.946   8.630 -0.0697  0.0665  0.0139
  712POPS   C1B10899   1.518   5.442   7.866 -0.2942 -0.0615  0.1167
  712POPS   C2B10900   1.308   5.826   8.143  0.2749  0.1188  0.1149
  712POPS   C3B10901   1.134   6.138   8.436  0.0105  0.1346 -0.0909
  712POPS   C4B10902   1.256   6.201   8.874 -0.3527  0.0241  0.3279
  713POPS   CNO10903   9.958  12.779   6.308  0.1236 -0.1475  0.1726
  713POPS   PO410904  10.337  12.715   6.050  0.0567  0.1015  0.0893
  713POPS   GL110905  10.380  12.684   6.557  0.1939  0.2527 -0.0759
  713POPS   GL210906  10.183  12.490   6.616 -0.2116  0.0528 -0.1362
  713POPS   C1A10907  10.581  12.873   6.922 -0.0262  0.1771  0.0327
  713POPS   D2A10908  10.660  12.837   7.273  0.3314 -0.3028  0.0863
  713POPS   C3A10909  10.480  13.129   7.557 -0.0188 -0.1510  0.1608
  713POPS   C4A10910  10.361  13.119   8.009  0.2954 -0.1931 -0.0101
  713POPS   C1B10911   9.784  12.405   6.886 -0.0064 -0.1553 -0.0858
  713POPS   C2B10912   9.831  12.275   7.259  0.1908  0.0692 -0.1408
  713POPS   C3B10913   9.862  12.369   7.691  0.3058  0.1054 -0.0202
  713POPS   C4B10914   9.685  12.117   8.056 -0.0209  0.3266  0.1407
  714POPS   CNO10915   2.815   5.333   6.335  0.1657 -0.3268 -0.4067
  714POPS   PO410916   2.766   5.527   6.719  0.1938  0.1573 -0.0645
  714POPS   GL110917   2.736   5.563   7.108 -0.0834 -0.1418  0.1943
  714POPS   GL210918   2.849   5.367   7.224 -0.0009 -0.0232  0.1200
  714POPS   C1A10919   2.464   5.505   7.508 -0.1853  0.4625 -0.0892
  714POPS   D2A10920   2.414   5.487   7.966 -0.4790 -0.0754 -0.0002
  714POPS   C3A10921   2.456   5.761   8.313 -0.2426  0.0728  0.1155
  714POPS   C4A10922   2.629   6.214   8.591 -0.0354 -0.0222  0.1249
  714POPS   C1B10923   2.855   5.235   7.634 -0.5552 -0.4627  0.1196
  714POPS   C2B10924   2.698   4.971   8.025 -0.0657 -0.1423  0.4185
  714POPS   C3B10925   2.403   5.150   8.313 -0.0000 -0.0587  0.0437
  714POPS   C4B10926   2.390   5.220   8.798 -0.0409 -0.0467  0.1210
  715POPS   CNO10927   4.685   4.654   6.268 -0.2760  0.1221 -0.2010
  715POPS   PO410928   4.859   4.221   6.381  0.1989  0.1696  0.0196
  715POPS   GL110929   4.823   4.358   6.717 -0.0814  0.0373 -0.0936
  715POPS   GL210930   4.700   4.648   6.817  0.2142  0.1707  0.0994
  715POPS   C1A10931   4.935   4.402   7.132 -0.0480  0.1365 -0.0743
  715POPS   D2A10932   4.984   4.263   7.566 -0.2545  0.0734  0.3073
  715POPS   C3A10933   4.633   4.170   7.772 -0.2851  0.3294 -0.1943
  715POPS   C4A10934   4.340   4.065   8.051 -0.1839  0.0507  0.1364
  715POPS   C1B10935   4.985   4.966   7.082  0.1521  0.2205  0.0995
  715POPS   C2B10936   5.014   5.222   7.489 -0.1064  0.0222  0.0943
  715POPS   C3B10937   5.030   5.239   7.874 -0.3060 -0.0064  0.0909
  715POPS   C4B10938   5.005   4.926   8.136 -0.1776  0.0653 -0.0695
  716POPS   CNO10939  11.939  14.586   5.787 -0.0514  0.3223  0.1176
  716POPS   PO410940  11.822  14.695   6.145 -0.2423  0.0028  0.1670
  716POPS   GL110941  12.116  14.765   6.463  0.2319  0.2737 -0.1896
  716POPS   GL210942  11.948  14.543   6.646  0.0593  0.2517  0.1621
  716POPS   C1A10943  12.365  15.018   6.749 -0.0428 -0.0675  0.2229
  716POPS   D2A10944  12.566  15.267   7.008  0.3534  0.0358 -0.1099
  716POPS   C3A10945  12.740  15.342   7.465  0.2001 -0.0785 -0.2412
  716POPS   C4A10946  12.852  15.409   7.876 -0.2290 -0.0839  0.0299
  716POPS   C1B10947  11.709  14.070   6.790 -0.2096 -0.0412 -0.3916
  716POPS   C2B10948  11.510  14.001   7.158 -0.1505 -0.2687 -0.1657
  716POPS   C3B10949  11.174  13.834   7.388 -0.0153 -0.2352 -0.0362
  716POPS   C4B10950  11.032  13.981   7.757 -0.0860  0.3677  0.3325
  717POPS   CNO10951  15.644   3.004   6.434  0.0371  0.1038  0.1460
  717POPS   PO410952  15.886   2.720   6.697  0.2607 -0.0563  0.1765
  717POPS   GL110953  15.722   2.952   6.932  0.0760 -0.0715  0.3754
  717POPS   GL210954  15.478   2.790   6.976  0.2427  0.1520  0.0641
  717POPS   C1A10955  15.632   3.169   7.326 -0.3097  0.1740  0.0248
  717POPS   D2A10956  15.831   3.356   7.661  0.1880  0.1114 -0.0565
  717POPS   C3A10957  15.881   3.583   8.092  0.0180 -0.2467 -0.0390
  717POPS   C4A10958  16.033   3.867   8.264  0.0506 -0.2508 -0.0118
  717POPS   C1B10959  15.368   2.684   7.444  0.3003 -0.2335 -0.1152
  717POPS   C2B10960  15.191   2.665   7.851  0.1710  0.1853 -0.0892
  717POPS   C3B10961  14.813   2.927   8.023  0.0662 -0.0308  0.0905
  717POPS   C4B10962  14.452   2.836   8.173  0.0149  0.0872  0.2585
  718POPS   CNO10963  15.146   6.236   5.454  0.0008  0.2425  0.0396
  718POPS   PO410964  15.208   5.958   5.971 -0.3689  0.2147  0.1717
  718POPS   GL110965  15.001   6.107   6.418  0.3833 -0.0040 -0.0749
  718POPS   GL210966  15.224   5.948   6.701 -0.2067 -0.1244  0.1697
  718POPS   C1A10967  14.677   6.359   6.600 -0.4776  0.0520 -0.4601
  718POPS   D2A10968  14.706   6.862   6.806  0.1375 -0.0615  0.3179
  718POPS   C3A10969  14.779   6.816   7.275 -0.1699  0.1858  0.0492
  718POPS   C4A10970  14.703   6.898   7.658  0.0245  0.2714 -0.0605
  718POPS   C1B10971  15.246   6.025   7.177 -0.1504  0.0162 -0.0182
  718POPS   C2B10972  15.181   6.082   7.702 -0.2090 -0.1385  0.2440
  718POPS   C3B10973  14.998   6.169   8.125 -0.1065  0.5448  0.2120
  718POPS   C4B10974  15.089   6.063   8.572  0.0377 -0.1021 -0.0497
  719POPS   CNO10975   2.639   2.319   6.592 -0.1975  0.0702 -0.0657
  719POPS   PO410976   3.084   2.377   6.594  0.3705  0.0562  0.0796
  719POPS   GL110977   2.942   2.727   6.727 -0.0585 -0.1214  0.3026
  719POPS   GL210978   2.488   2.781   6.673  0.1252 -0.1157 -0.0037
  719POPS   C1A10979   2.989   2.897   7.224  0.1380 -0.3643  0.0902
  719POPS   D2A10980   2.918   3.105   7.655 -0.1658  0.3313  0.0731
  719POPS   C3A10981   2.889   3.116   8.184  0.1521 -0.1345 -0.2239
  719POPS   C4A10982   2.823   2.867   8.637 -0.0782  0.3016  0.0053
  719POPS   C1B10983   2.552   2.557   7.062  0.2318 -0.0041 -0.4015
  719POPS   C2B10984   2.314   2.525   7.510  0.0537  0.4299  0.0683
  719POPS   C3B10985   2.072   2.507   7.862 -0.0876  0.0740  0.1513
  719POPS   C4B10986   1.780   2.444   8.217  0.3946 -0.1485 -0.0318
  720POPS   CNO10987   9.561  11.540   6.103 -0.1280 -0.2252 -0.2544
  720POPS   PO410988   9.386  11.166   6.201  0.1496  0.2550  0.0579
  720POPS   GL110989   9.182  10.864   6.433 -0.1863 -0.1566 -0.0559
  720POPS   GL210990   8.906  10.935   6.499 -0.1651  0.0320  0.0535
  720POPS   C1A10991   9.150  10.820   6.913  0.2366 -0.0854 -0.1548
  720POPS   D2A10992   8.851  10.913   7.289  0.0834 -0.2685  0.0458
  720POPS   C3A10993   9.116  11.094   7.607 -0.0828  0.0935 -0.1215
  720POPS   C4A10994   9.519  11.197   7.668 -0.0303  0.0640 -0.1276
  720POPS   C1B10995   8.905  11.213   6.772  0.1576 -0.0199 -0.2639
  720POPS   C2B10996   9.147  11.302   7.167  0.1803  0.1410 -0.0623
  720POPS   C3B10997   9.515  11.547   7.318  0.0036  0.0818 -0.2593
  720POPS   C4B10998   9.675  11.689   7.764  0.1041  0.0332 -0.0623
  721POPS   CNO10999   3.323   7.882   6.521  0.1240 -0.3311 -0.0380
  721POPS   PO411000   3.581   7.807   6.842  0.0462 -0.1994 -0.4370
  721POPS   GL111001   3.551   7.775   7.244 -0.0638 -0.0883 -0.1060
  721POPS   GL211002   3.742   7.564   7.295  0.1329  0.2494 -0.1662
  721POPS   C1A11003   3.568   7.966   7.608  0.0341 -0.2120 -0.1372
  721POPS   D2A11004   3.528   8.352   7.934  0.2065  0.0446  0.0329
  721POPS   C3A11005   3.652   8.297   8.326  0.0848  0.0764 -0.0824
  721POPS   C4A11006   3.754   8.193   8.837  0.1729  0.5422  0.0545
  721POPS   C1B11007   3.938   7.572   7.658  0.0483 -0.1449  0.1589
  721POPS   C2B11008   4.247   7.573   8.035 -0.1422  0.2306  0.1771
  721POPS   C3B11009   4.131   7.411   8.476 -0.1659 -0.0373 -0.0660
  721POPS   C4B11010   4.483   7.499   8.829 -0.1591  0.1835 -0.3015
  722POPS   CNO11011   5.390   9.280   6.050  0.1431  0.4481 -0.1413
  722POPS   PO411012   5.035   9.451   6.348 -0.1146  0.1830  0.0543
  722POPS   GL111013   4.810   9.507   6.742  0.2132 -0.0402  0.0495
  722POPS   GL211014   4.461   9.252   6.766  0.1846 -0.1272  0.1141
  722POPS   C1A11015   4.593   9.735   7.059 -0.0587  0.0560 -0.1443
  722POPS   D2A11016   4.535  10.114   7.354 -0.0665 -0.0701 -0.2329
  722POPS   C3A11017   4.837  10.150   7.721 -0.0379 -0.2082 -0.0482
  722POPS   C4A11018   5.231  10.323   7.965 -0.0584  0.0369  0.1631
  722POPS   C1B11019   4.624   9.242   7.185  0.1730  0.1261 -0.2338
  722POPS   C2B11020   4.766   8.934   7.445  0.1226 -0.1803  0.0391
  722POPS   C3B11021   4.810   8.883   7.808 -0.3447  0.1873  0.2357
  722POPS   C4B11022   4.886   8.936   8.262 -0.2183  0.0209  0.0837
  723POPS   CNO11023  16.470   4.609   6.367  0.2634  0.0493 -0.0920
  723POPS   PO411024  16.266   4.970   6.472 -0.3564  0.0059  0.0920
  723POPS   GL111025  16.084   4.824   6.880  0.1465  0.0125  0.0977
  723POPS   GL211026  16.215   4.907   7.105 -0.2906  0.1834  0.0195
  723POPS   C1A11027  15.973   4.430   7.169  0.0050 -0.1458 -0.0155
  723POPS   D2A11028  15.766   4.026   7.366 -0.2368 -0.2841 -0.2506
  723POPS   C3A11029  15.962   3.887   7.735 -0.2130  0.2017 -0.0720
  723POPS   C4A11030  16.294   3.586   7.827  0.0187 -0.1887  0.1606
  723POPS   C1B11031  16.058   4.902   7.515 -0.1051  0.1613 -0.2507
  723POPS   C2B11032  15.907   4.942   7.940  0.1595 -0.0855  0.0159
  723POPS   C3B11033  15.887   4.844   8.353  0.1052 -0.1559 -0.0770
  723POPS   C4B11034  15.998   5.038   8.705 -0.0232 -0.2273  0.0196
  724POPS   CNO11035  16.138   9.165   6.446  0.1528 -0.1317  0.1693
  724POPS   PO411036  15.684   9.095   6.352  0.4687  0.0478 -0.2197
  724POPS   GL111037  15.648   9.222   6.736 -0.0897  0.1320  0.1289
  724POPS   GL211038  15.911   9.387   6.848 -0.0520  0.0789 -0.0170
  724POPS   C1A11039  15.418   9.168   7.053 -0.0855 -0.0485 -0.0981
  724POPS   D2A11040  15.079   8.811   7.161 -0.0470  0.1880  0.1640
  724POPS   C3A11041  14.729   9.020   7.057  0.1777 -0.0325 -0.1145
  724POPS   C4A11042  14.368   9.226   7.139 -0.3679 -0.1378  0.0149
  724POPS   C1B11043  15.781   9.493   7.262 -0.1618 -0.0389  0.0138
  724POPS   C2B11044  15.548   9.148   7.556  0.0572 -0.2704  0.1154
  724POPS   C3B11045  15.125   9.080   7.601  0.2403 -0.0849 -0.0948
  724POPS   C4B11046  14.787   8.958   7.904  0.1041 -0.1343 -0.1765
  725POPS   CNO11047   2.919   6.683   6.370  0.1035 -0.0982 -0.2278
  725POPS   PO411048   2.826   6.414   6.631 -0.0301 -0.0344  0.2884
  725POPS   GL111049   2.948   6.412   7.059  0.1950 -0.2093 -0.1164
  725POPS   GL211050   2.737   6.594   7.289  0.0799 -0.3004 -0.1503
  725POPS   C1A11051   3.158   6.311   7.437 -0.0456 -0.3407 -0.2177
  725POPS   D2A11052   3.339   6.108   7.789 -0.0229 -0.0654 -0.0666
  725POPS   C3A11053   3.468   5.962   8.259 -0.0573 -0.0153  0.1416
  725POPS   C4A11054   3.378   5.519   8.279  0.0171 -0.2926 -0.0225
  725POPS   C1B11055   2.716   6.397   7.685 -0.0168  0.0748 -0.1821
  725POPS   C2B11056   2.944   6.135   8.094  0.0156  0.0888 -0.0876
  725POPS   C3B11057   2.938   5.912   8.419 -0.3904 -0.1301 -0.1275
  725POPS   C4B11058   2.928   5.858   8.836 -0.0370  0.2515 -0.1065
  726POPS   CNO11059   0.821   7.988   6.583  0.1950 -0.0327  0.3120
  726POPS   PO411060   1.302   7.977   6.619 -0.2272  0.1459 -0.0727
  726POPS   GL111061   1.147   8.059   6.983 -0.0248  0.1347  0.0514
  726POPS   GL211062   0.921   8.296   6.980  0.0883 -0.0925 -0.0130
  726POPS   C1A11063   1.107   8.022   7.425 -0.0623 -0.0637 -0.1693
  726POPS   D2A11064   1.085   8.092   7.903 -0.1863  0.0549  0.0616
  726POPS   C3A11065   1.479   8.326   7.941 -0.0148 -0.0737 -0.0465
  726POPS   C4A11066   1.861   8.441   7.932  0.1472  0.0909  0.2063
  726POPS   C1B11067   0.749   8.540   7.366  0.2035  0.2456 -0.0342
  726POPS   C2B11068   0.538   8.647   7.712 -0.0119 -0.0484 -0.0236
  726POPS   C3B11069   0.353   8.621   8.159 -0.0931 -0.0419 -0.3530
  726POPS   C4B11070   0.330   8.869   8.475  0.2720  0.0628 -0.2973
  727POPS   CNO11071  10.360   9.899   5.156 -0.0939  0.5289 -0.0017
  727POPS   PO411072  10.007  10.160   5.410 -0.0098 -0.1062  0.2649
  727POPS   GL111073  10.278  10.190   5.836  0.2236 -0.1948  0.0523
  727POPS   GL211074  10.089  10.217   6.130  0.0567 -0.4482  0.1313
  727POPS   C1A11075  10.397   9.863   6.159 -0.2925  0.0764 -0.3734
  727POPS   D2A11076  10.669   9.895   6.464  0.0435  0.2208  0.1005
  727POPS   C3A11077  10.559  10.294   6.596 -0.2177  0.0206  0.0283
  727POPS   C4A11078  10.452  10.436   7.076  0.0393 -0.0089  0.0148
  727POPS   C1B11079  10.102   9.977   6.516  0.2347  0.0031  0.0774
  727POPS   C2B11080  10.311   9.535   6.618 -0.0923  0.2279  0.0996
  727POPS   C3B11081  10.476   9.339   7.033 -0.0791  0.0491 -0.0463
  727POPS   C4B11082  10.858   9.187   7.197  0.1159  0.0546  0.0475
  728POPS   CNO11083   6.807  11.912   5.481 -0.0228 -0.0034 -0.2385
  728POPS   PO411084   6.881  11.975   5.985 -0.0433 -0.1564  0.0098
  728POPS   GL111085   6.877  12.140   6.453  0.1781  0.0852 -0.0049
  728POPS   GL211086   6.620  12.112   6.555  0.0358 -0.2355 -0.1100
  728POPS   C1A11087   7.105  12.340   6.858 -0.1222 -0.2760  0.2531
  728POPS   D2A11088   7.190  12.388   7.297  0.0560 -0.1396  0.3923
  728POPS   C3A11089   7.129  12.205   7.738 -0.2511  0.3873 -0.1394
  728POPS   C4A11090   7.367  12.086   8.113  0.0875  0.0577  0.0313
  728POPS   C1B11091   6.628  12.092   7.048 -0.4740 -0.1157 -0.2045
  728POPS   C2B11092   6.709  12.020   7.496  0.0969  0.1091 -0.0437
  728POPS   C3B11093   6.519  12.218   7.895 -0.0740  0.3067  0.2577
  728POPS   C4B11094   6.504  12.348   8.240 -0.5457  0.1115 -0.1317
  729POPS   CNO11095  13.200  10.465   5.721  0.2111  0.1174 -0.1430
  729POPS   PO411096  13.423  10.293   6.032  0.2018  0.1704  0.0570
  729POPS   GL111097  13.126  10.362   6.281 -0.0580 -0.0560 -0.0624
  729POPS   GL211098  13.159  10.472   6.595 -0.1427  0.0725 -0.1463
  729POPS   C1A11099  12.728  10.267   6.468  0.0492 -0.0828  0.2343
  729POPS   D2A11100  12.496  10.210   6.930  0.0165 -0.1257 -0.1209
  729POPS   C3A11101  12.223  10.233   7.248  0.1655  0.0261 -0.1094
  729POPS   C4A11102  11.841  10.435   7.339  0.0549  0.3636 -0.1130
  729POPS   C1B11103  13.026  10.418   6.938  0.2192 -0.2079 -0.3423
  729POPS   C2B11104  12.869  10.315   7.310  0.1413  0.0842  0.1039
  729POPS   C3B11105  12.485  10.456   7.640  0.1976  0.1084 -0.1416
  729POPS   C4B11106  12.458  10.688   7.988  0.0678  0.1273  0.1179
  730POPS   CNO11107  16.150   3.094   6.374 -0.0014 -0.0853  0.1764
  730POPS   PO411108  16.565   2.966   6.256 -0.0712  0.2173  0.1727
  730POPS   GL111109  16.571   3.000   6.700  0.1664  0.0712 -0.1356
  730POPS   GL211110  16.246   2.964   6.857 -0.2327 -0.1959 -0.1315
  730POPS   C1A11111  16.688   2.982   7.146  0.0761  0.0515 -0.0699
  730POPS   D2A11112  16.778   3.077   7.552 -0.0127  0.0545  0.1072
  730POPS   C3A11113  16.585   3.188   7.972 -0.2131 -0.1436 -0.2171
  730POPS   C4A11114  16.406   3.491   8.304 -0.1365  0.2320 -0.1528
  730POPS   C1B11115  16.183   2.749   7.259 -0.4790  0.0545  0.4646
  730POPS   C2B11116  15.804   2.817   7.555 -0.0645  0.0586  0.2503
  730POPS   C3B11117  15.609   2.948   7.852 -0.0992 -0.0624 -0.2354
  730POPS   C4B11118  15.239   2.983   8.266 -0.0663  0.0296 -0.0191
  731POPS   CNO11119   5.668  17.451   6.279 -0.2596 -0.0417  0.4001
  731POPS   PO411120   5.772  17.079   6.431 -0.4392 -0.3214  0.1735
  731POPS   GL111121   5.792  17.130   6.852  0.1128  0.0716  0.3061
  731POPS   GL211122   5.607  17.366   6.828 -0.2458  0.3466 -0.4300
  731POPS   C1A11123   5.700  17.147   7.319 -0.0986  0.0151  0.2516
  731POPS   D2A11124   5.616  17.229   7.694 -0.0570  0.1330 -0.2627
  731POPS   C3A11125   5.469  17.222   8.088 -0.0844  0.1732  0.3780
  731POPS   C4A11126   5.702  17.575   8.331 -0.2486 -0.1405 -0.0953
  731POPS   C1B11127   5.244  17.546   7.205 -0.0922 -0.0504  0.2415
  731POPS   C2B11128   5.128  17.399   7.590  0.0775  0.1112  0.1253
  731POPS   C3B11129   4.999  17.349   8.088 -0.2170  0.0587 -0.1947
  731POPS   C4B11130   4.828  17.199   8.352  0.0075 -0.1462  0.0213
  732POPS   CNO11131   6.384  13.233   5.933 -0.2264 -0.1987  0.2148
  732POPS   PO411132   6.895  13.291   6.062 -0.5201  0.1878  0.0219
  732POPS   GL111133   6.703  13.318   6.455 -0.3261 -0.1659  0.1325
  732POPS   GL211134   6.592  13.618   6.540 -0.0248  0.2408  0.0738
  732POPS   C1A11135   6.551  13.253   6.911 -0.0005  0.0778 -0.1011
  732POPS   D2A11136   6.507  12.821   7.231  0.2863 -0.1051  0.3010
  732POPS   C3A11137   6.699  12.613   7.458  0.0524 -0.1184  0.0193
  732POPS   C4A11138   6.789  12.605   7.794 -0.3035 -0.2294 -0.3241
  732POPS   C1B11139   6.495  13.847   6.895  0.0721 -0.0653 -0.0785
  732POPS   C2B11140   6.374  13.773   7.351 -0.3605 -0.1273  0.0057
  732POPS   C3B11141   6.434  13.832   7.822  0.0326  0.0232 -0.0944
  732POPS   C4B11142   6.597  13.983   8.208 -0.0805 -0.2072  0.1931
  733POPS   CNO11143  15.911   3.533   6.152 -0.3243  0.0229 -0.1065
  733POPS   PO411144  16.290   3.594   6.380  0.0456 -0.0565  0.0021
  733POPS   GL111145  16.395   3.872   6.638  0.0183 -0.0694  0.0175
  733POPS   GL211146  16.633   4.136   6.588 -0.1819 -0.3730 -0.4124
  733POPS   C1A11147  16.491   3.871   7.037 -0.2335 -0.1692 -0.0019
  733POPS   D2A11148  16.324   4.050   7.357  0.2139 -0.1492 -0.1329
  733POPS   C3A11149  16.481   4.062   7.719 -0.1896  0.0430  0.3907
  733POPS   C4A11150  16.496   3.911   8.119  0.0607  0.2340 -0.0542
  733POPS   C1B11151  16.485   4.391   6.988 -0.0891 -0.2991 -0.0700
  733POPS   C2B11152  16.427   4.537   7.376 -0.1178 -0.0878  0.1697
  733POPS   C3B11153  16.726   4.489   7.736  0.2877  0.1398  0.1226
  733POPS   C4B11154  16.785   4.537   8.165  0.0655 -0.1719  0.1714
  734POPS   CNO11155  14.935  16.513   6.021 -0.2674 -0.2040 -0.0813
  734POPS   PO411156  14.823  16.117   6.005 -0.1432  0.2082 -0.0519
  734POPS   GL111157  14.661  16.315   6.377 -0.0986  0.0492  0.0741
  734POPS   GL211158  14.378  16.370   6.268  0.2057 -0.2122  0.3055
  734POPS   C1A11159  14.717  16.515   6.809 -0.3071  0.2465 -0.1367
  734POPS   D2A11160  14.905  16.606   7.277  0.0510  0.0237 -0.0370
  734POPS   C3A11161  14.739  16.529   7.789  0.1579  0.1799  0.0385
  734POPS   C4A11162  14.832  16.684   8.185  0.3510  0.1424 -0.1312
  734POPS   C1B11163  14.293  16.666   6.572 -0.1322  0.2384  0.0972
  734POPS   C2B11164  14.273  16.602   7.073 -0.0191  0.1276  0.0703
  734POPS   C3B11165  14.321  16.685   7.481 -0.2418 -0.1232  0.1380
  734POPS   C4B11166  14.394  16.820   7.900 -0.2649  0.1763  0.3054
  735POPS   CNO11167  15.638  13.836   6.178 -0.0286 -0.2761  0.0362
  735POPS   PO411168  15.293  14.112   6.206  0.1674 -0.0326 -0.0465
  735POPS   GL111169  15.169  14.218   6.679  0.1338 -0.0480  0.1907
  735POPS   GL211170  15.469  14.278   6.732  0.1489 -0.0556 -0.1018
  735POPS   C1A11171  14.942  14.220   7.038  0.1872 -0.1585 -0.2656
  735POPS   D2A11172  14.619  14.015   7.236 -0.1369  0.5598 -0.1130
  735POPS   C3A11173  14.418  14.116   7.483  0.3997 -0.0165  0.2110
  735POPS   C4A11174  14.247  14.265   7.833  0.1789  0.3768 -0.0313
  735POPS   C1B11175  15.571  14.228   7.189  0.0838  0.0664 -0.0476
  735POPS   C2B11176  15.662  14.275   7.562  0.0965  0.2885 -0.0928
  735POPS   C3B11177  15.546  14.125   7.851 -0.1423  0.1662 -0.2907
  735POPS   C4B11178  15.580  14.034   8.260 -0.0146 -0.0015  0.1369
  736POPS   CNO11179   3.601  14.326   6.974 -0.0081  0.0174 -0.0124
  736POPS   PO411180   3.577  14.610   6.782  0.0696 -0.0801  0.1565
  736POPS   GL111181   3.921  14.693   7.131  0.1695 -0.5345  0.1622
  736POPS   GL211182   4.243  14.674   7.073  0.1025 -0.1021  0.0197
  736POPS   C1A11183   4.095  14.706   7.531  0.0819 -0.2612 -0.0858
  736POPS   D2A11184   4.439  14.783   7.823 -0.1194  0.2284 -0.1413
  736POPS   C3A11185   4.579  14.527   8.183  0.1635  0.1385  0.0834
  736POPS   C4A11186   4.797  14.055   8.300 -0.1213  0.1464  0.4986
  736POPS   C1B11187   4.263  15.058   7.226  0.0766 -0.0827  0.0089
  736POPS   C2B11188   4.526  15.346   7.523 -0.0014  0.4308  0.0666
  736POPS   C3B11189   4.693  15.267   7.831  0.0099  0.2420 -0.1448
  736POPS   C4B11190   4.745  15.026   8.159 -0.4646 -0.1451  0.1410
  737POPS   CNO11191  16.596  12.220   5.895 -0.0264  0.0703  0.1133
  737POPS   PO411192  16.953  12.351   6.177  0.0142 -0.0276  0.0517
  737POPS   GL111193  16.907  12.355   6.560  0.0472  0.3267  0.2428
  737POPS   GL211194  16.983  12.628   6.710  0.1088 -0.1762 -0.2392
  737POPS   C1A11195  16.981  12.151   7.013 -0.1677 -0.2170 -0.2750
  737POPS   D2A11196  17.295  11.882   7.166  0.0062  0.0062  0.0789
  737POPS   C3A11197  17.284  11.657   7.587 -0.1299  0.0471  0.3191
  737POPS   C4A11198  17.115  11.685   7.929 -0.2340  0.0560  0.3913
  737POPS   C1B11199  17.009  12.726   7.169  0.0797  0.0735 -0.0677
  737POPS   C2B11200  17.249  12.745   7.581 -0.0565 -0.0592 -0.2975
  737POPS   C3B11201  17.477  12.917   7.929  0.1443  0.4881  0.1810
  737POPS   C4B11202  17.635  13.127   8.097  0.0294 -0.4816 -0.2316
  738POPS   CNO11203  14.150   4.487   5.687 -0.1542 -0.1215  0.2167
  738POPS   PO411204  14.157   4.574   6.149 -0.0591  0.3132  0.2285
  738POPS   GL111205  14.279   4.696   6.583 -0.0858 -0.0923 -0.2912
  738POPS   GL211206  14.080   4.908   6.724 -0.1150 -0.1067 -0.1252
  738POPS   C1A11207  14.296   4.640   7.136 -0.0141  0.0247  0.1521
  738POPS   D2A11208  14.416   4.443   7.512 -0.1244 -0.0672 -0.0212
  738POPS   C3A11209  14.711   4.670   7.789 -0.0123 -0.1427  0.1943
  738POPS   C4A11210  14.942   4.524   8.194 -0.0777 -0.2534 -0.2711
  738POPS   C1B11211  13.872   4.943   6.989  0.0355  0.2690  0.0974
  738POPS   C2B11212  14.071   4.878   7.512  0.0629 -0.2858  0.0644
  738POPS   C3B11213  14.153   4.640   7.868  0.2452 -0.0137  0.1205
  738POPS   C4B11214  14.470   4.296   8.092 -0.0851  0.1250 -0.1286
  739POPS   CNO11215   0.025  17.074   6.212  0.1918 -0.0024 -0.2311
  739POPS   PO411216  -0.129  17.453   6.064 -0.2013 -0.1136 -0.0794
  739POPS   GL111217  -0.147  17.562   6.479  0.0470  0.2397 -0.2844
  739POPS   GL211218   0.134  17.450   6.623  0.3652 -0.1048  0.0844
  739POPS   C1A11219  -0.489  17.537   6.792 -0.3823  0.3644 -0.1199
  739POPS   D2A11220  -0.676  17.528   7.170 -0.2271  0.1891 -0.2090
  739POPS   C3A11221  -1.038  17.736   7.089  0.0670 -0.1959  0.2722
  739POPS   C4A11222  -1.329  18.003   7.106 -0.4820  0.1156 -0.1397
  739POPS   C1B11223  -0.050  17.386   6.942  0.2890  0.0158 -0.0205
  739POPS   C2B11224  -0.186  17.395   7.353  0.1268 -0.1890 -0.0333
  739POPS   C3B11225  -0.254  17.412   7.659 -0.3958 -0.1475 -0.0064
  739POPS   C4B11226  -0.439  17.352   8.057 -0.0394  0.1880  0.0602
  740POPS   CNO11227  11.225  15.303   6.294  0.1535  0.3248  0.0923
  740POPS   PO411228  11.002  15.642   6.177  0.0681  0.1397 -0.2898
  740POPS   GL111229  11.075  15.693   6.643 -0.0516 -0.1468  0.1156
  740POPS   GL211230  11.404  15.591   6.716 -0.0321 -0.2292  0.1144
  740POPS   C1A11231  11.047  15.656   7.088  0.1761  0.1324 -0.0197
  740POPS   D2A11232  11.112  15.802   7.473  0.3322  0.1474  0.0189
  740POPS   C3A11233  11.531  15.829   7.601  0.0003  0.0601  0.0361
  740POPS   C4A11234  11.952  15.762   7.485  0.2008  0.0673  0.0080
  740POPS   C1B11235  11.491  15.320   7.078  0.3491  0.0628  0.0057
  740POPS   C2B11236  11.474  15.349   7.464 -0.0240  0.0253  0.0183
  740POPS   C3B11237  11.785  15.478   7.863 -0.3402  0.0100 -0.4267
  740POPS   C4B11238  11.957  15.582   8.193  0.1557 -0.0855  0.0760
  741POPS   CNO11239   6.770   5.154   6.209  0.0002 -0.2659 -0.1769
  741POPS   PO411240   6.991   4.863   6.437 -0.0473 -0.3043 -0.0200
  741POPS   GL111241   7.136   4.899   6.825 -0.0714 -0.2414  0.1735
  741POPS   GL211242   7.273   5.162   6.997 -0.2914  0.4238 -0.0046
  741POPS   C1A11243   7.137   4.900   7.384  0.0491 -0.3088  0.3029
  741POPS   D2A11244   7.052   4.964   7.850 -0.1183 -0.1612  0.0560
  741POPS   C3A11245   7.182   4.624   8.096 -0.0467 -0.4002  0.4298
  741POPS   C4A11246   7.137   4.455   8.448  0.1754  0.1183  0.1628
  741POPS   C1B11247   6.978   5.355   7.309 -0.0068 -0.0125 -0.1811
  741POPS   C2B11248   6.911   5.514   7.679  0.2129  0.0342 -0.1502
  741POPS   C3B11249   6.917   5.454   8.111 -0.1157 -0.2976 -0.1513
  741POPS   C4B11250   6.841   5.331   8.498 -0.0217  0.1812  0.0322
  742POPS   CNO11251   6.094   7.099   6.594 -0.0391  0.1588 -0.1374
  742POPS   PO411252   6.052   7.496   6.396  0.0432 -0.0561  0.1104
  742POPS   GL111253   6.334   7.617   6.708  0.0368  0.0198 -0.2205
  742POPS   GL211254   6.677   7.538   6.630 -0.0231  0.0715 -0.0331
  742POPS   C1A11255   6.420   7.630   7.086 -0.2493 -0.2067  0.0361
  742POPS   D2A11256   6.493   7.610   7.597 -0.2490 -0.2900 -0.3412
  742POPS   C3A11257   6.238   7.922   7.900 -0.3137  0.0041  0.0167
  742POPS   C4A11258   6.197   8.220   8.073  0.1271  0.2049  0.2919
  742POPS   C1B11259   6.899   7.274   6.954  0.0534 -0.2068  0.1994
  742POPS   C2B11260   6.969   7.207   7.433 -0.1332  0.0895 -0.1872
  742POPS   C3B11261   7.294   7.308   7.618 -0.1591  0.4758  0.1127
  742POPS   C4B11262   7.524   7.487   7.879 -0.0059  0.0502  0.1204
  743POPS   CNO11263   4.007  10.009   5.833  0.0223 -0.0029 -0.2908
  743POPS   PO411264   4.083   9.953   6.283 -0.2187 -0.0115 -0.2561
  743POPS   GL111265   3.932  10.080   6.702  0.2404 -0.1986  0.2234
  743POPS   GL211266   3.658  10.010   6.821  0.3192  0.1681 -0.2419
  743POPS   C1A11267   4.043  10.100   7.136 -0.2884  0.1165 -0.0693
  743POPS   D2A11268   4.086  10.049   7.619 -0.1492 -0.2774  0.0123
  743POPS   C3A11269   4.361   9.913   7.853  0.0311  0.0248  0.0288
  743POPS   C4A11270   4.708   9.704   8.121  0.2817  0.0040 -0.0605
  743POPS   C1B11271   3.515  10.198   7.260 -0.2697 -0.0415  0.0166
  743POPS   C2B11272   3.664  10.157   7.693  0.0645 -0.3401 -0.1693
  743POPS   C3B11273   3.632  10.413   8.041  0.0186 -0.0017 -0.0723
  743POPS   C4B11274   3.727  10.630   8.306  0.3285 -0.1220 -0.4673
  744POPS   CNO11275   9.657   5.582   5.496  0.1334  0.3010 -0.1258
  744POPS   PO411276  10.019   5.471   5.757  0.0359 -0.0784 -0.0174
  744POPS   GL111277   9.799   5.467   6.189 -0.1742 -0.0329 -0.1943
  744POPS   GL211278   9.609   5.336   6.303  0.3072 -0.0516 -0.2188
  744POPS   C1A11279   9.813   5.657   6.635  0.0585 -0.0388  0.0407
  744POPS   D2A11280   9.906   5.898   6.889  0.0973 -0.0978  0.1253
  744POPS   C3A11281   9.970   5.990   7.308  0.0843  0.2452  0.0691
  744POPS   C4A11282   9.937   6.286   7.701  0.1057  0.1815 -0.1167
  744POPS   C1B11283   9.413   5.357   6.662 -0.0022 -0.2268  0.3738
  744POPS   C2B11284   9.280   5.092   7.117 -0.0938 -0.2425 -0.1215
  744POPS   C3B11285   9.109   4.894   7.416  0.2251 -0.0911  0.3055
  744POPS   C4B11286   8.904   4.926   7.708  0.2375  0.0179  0.3911
  745POPS   CNO11287   1.496   6.539   6.779  0.0886 -0.2888  0.2495
  745POPS   PO411288   1.117   6.362   6.705  0.1922  0.0164 -0.1717
  745POPS   GL111289   1.085   6.252   7.144 -0.2168  0.0566  0.3288
  745POPS   GL211290   1.284   5.997   7.317  0.4175  0.1496  0.1036
  745POPS   C1A11291   0.978   6.409   7.486 -0.1172 -0.0998  0.1545
  745POPS   D2A11292   1.015   6.382   7.943 -0.3065 -0.1275 -0.2356
  745POPS   C3A11293   0.716   6.451   8.280  0.0150  0.1894 -0.2276
  745POPS   C4A11294   0.743   6.617   8.687  0.1261 -0.1315 -0.0482
  745POPS   C1B11295   1.350   5.966   7.699 -0.2055  0.0135  0.0622
  745POPS   C2B11296   1.679   6.040   7.998 -0.1280 -0.1358  0.1886
  745POPS   C3B11297   1.614   5.991   8.459 -0.4508 -0.2567 -0.1136
  745POPS   C4B11298   1.449   5.729   8.781 -0.1553 -0.0423  0.1842
  746POPS   CNO11299   0.486   9.555   6.539 -0.0465 -0.1309 -0.1556
  746POPS   PO411300   0.386   9.152   6.668  0.3039  0.1177  0.1316
  746POPS   GL111301   0.144   9.158   7.004  0.0822 -0.2933  0.2751
  746POPS   GL211302  -0.062   9.050   6.880  0.0671 -0.3154  0.1161
  746POPS   C1A11303   0.028   9.171   7.480 -0.3153  0.1267 -0.0479
  746POPS   D2A11304  -0.088   9.208   7.901  0.0937 -0.1608 -0.2487
  746POPS   C3A11305   0.204   9.339   8.241  0.1118 -0.1208 -0.0941
  746POPS   C4A11306   0.363   9.395   8.618 -0.0853 -0.1071 -0.0551
  746POPS   C1B11307  -0.345   8.921   7.187  0.3978 -0.0543  0.3362
  746POPS   C2B11308  -0.446   8.963   7.639 -0.1527  0.0334 -0.0686
  746POPS   C3B11309  -0.558   9.096   8.021  0.2007 -0.2237 -0.1075
  746POPS   C4B11310  -0.770   9.275   8.367  0.1563  0.1961 -0.1565
  747POPS   CNO11311   2.627   7.157   6.428  0.0206  0.2171 -0.1644
  747POPS   PO411312   2.948   7.403   6.663 -0.4267  0.2551 -0.2535
  747POPS   GL111313   3.181   7.335   7.121 -0.0004 -0.2355  0.1882
  747POPS   GL211314   2.974   7.258   7.307  0.1632 -0.0010 -0.1434
  747POPS   C1A11315   3.286   7.544   7.540 -0.1715 -0.1635 -0.0904
  747POPS   D2A11316   3.295   7.511   7.934  0.3077  0.0782  0.0808
  747POPS   C3A11317   3.595   7.843   8.113 -0.1117 -0.1333  0.3033
  747POPS   C4A11318   3.894   7.863   8.427 -0.4228  0.0093  0.2369
  747POPS   C1B11319   3.156   7.077   7.656  0.1437 -0.1613 -0.1631
  747POPS   C2B11320   3.280   7.072   8.067 -0.0193  0.2587 -0.0366
  747POPS   C3B11321   3.132   6.980   8.381  0.4684 -0.5175  0.0048
  747POPS   C4B11322   3.089   6.527   8.510  0.1892 -0.0060 -0.1624
  748POPS   CNO11323   2.173  12.841   6.533  0.1969 -0.1452 -0.0115
  748POPS   PO411324   2.004  12.550   6.277  0.1670 -0.0192  0.4375
  748POPS   GL111325   1.981  12.423   6.805  0.0062  0.1044 -0.1189
  748POPS   GL211326   2.044  12.096   6.899  0.0931 -0.3036  0.2102
  748POPS   C1A11327   2.092  12.324   7.314 -0.1787  0.0687 -0.0686
  748POPS   D2A11328   2.228  12.245   7.633 -0.0924 -0.2324  0.1475
  748POPS   C3A11329   2.563  12.244   7.939  0.3932 -0.0592 -0.1791
  748POPS   C4A11330   2.797  11.936   8.294 -0.4115 -0.2453  0.1506
  748POPS   C1B11331   2.345  11.892   7.171  0.0427 -0.0390 -0.0821
  748POPS   C2B11332   2.456  11.815   7.547 -0.0905  0.3431  0.1175
  748POPS   C3B11333   2.367  11.807   7.953 -0.4098  0.0948  0.4295
  748POPS   C4B11334   2.253  11.805   8.349  0.2286  0.3402 -0.3932
  749POPS   CNO11335   8.079  11.079   6.227  0.0281  0.1288 -0.2955
  749POPS   PO411336   7.857  11.304   6.079  0.3771 -0.1641 -0.2511
  749POPS   GL111337   7.627  11.403   6.370  0.0438  0.1500  0.3430
  749POPS   GL211338   7.709  11.201   6.571 -0.1867  0.2012  0.0401
  749POPS   C1A11339   7.298  11.306   6.779  0.0825 -0.0210  0.0485
  749POPS   D2A11340   6.834  11.204   7.108  0.3416 -0.2651  0.0616
  749POPS   C3A11341   6.856  11.266   7.559 -0.3254  0.2258 -0.0645
  749POPS   C4A11342   6.993  11.212   8.009 -0.2628  0.0409 -0.0502
  749POPS   C1B11343   7.966  11.155   6.879 -0.2418 -0.0219 -0.0379
  749POPS   C2B11344   8.129  11.270   7.242 -0.0116 -0.0743 -0.1537
  749POPS   C3B11345   8.235  11.211   7.625 -0.1020 -0.0271 -0.0273
  749POPS   C4B11346   8.479  10.963   7.911  0.2315 -0.3059 -0.1503
  750POPS   CNO11347   0.768   4.177   6.440  0.0496  0.0827  0.1642
  750POPS   PO411348   0.751   3.797   6.257  0.0545 -0.0195  0.0887
  750POPS   GL111349   0.611   3.846   6.750 -0.2098 -0.0100 -0.2824
  750POPS   GL211350   0.666   3.528   6.856  0.2419  0.0041 -0.0425
  750POPS   C1A11351   0.774   4.139   7.007 -0.2810 -0.0427 -0.0022
  750POPS   D2A11352   0.570   4.268   7.342  0.2324 -0.0878 -0.0119
  750POPS   C3A11353   0.473   4.359   7.728  0.3330 -0.1279 -0.1928
  750POPS   C4A11354   0.525   4.316   8.148  0.3263 -0.1808  0.4838
  750POPS   C1B11355   1.015   3.583   7.147  0.1396  0.1993 -0.0279
  750POPS   C2B11356   1.076   3.446   7.490 -0.2926  0.0352 -0.2900
  750POPS   C3B11357   1.430   3.326   7.867 -0.1236 -0.2059  0.0448
  750POPS   C4B11358   1.553   3.237   8.240 -0.0113 -0.0035  0.1127
  751POPS   CNO11359   5.296   5.592   6.137  0.0088 -0.0128 -0.2609
  751POPS   PO411360   5.098   5.186   6.301  0.2951 -0.1396 -0.0645
  751POPS   GL111361   5.085   5.386   6.620  0.0969 -0.2402  0.3241
  751POPS   GL211362   5.372   5.647   6.611 -0.1636  0.2149 -0.2338
  751POPS   C1A11363   4.980   5.462   6.992 -0.2124  0.1889  0.0218
  751POPS   D2A11364   4.620   5.310   7.200  0.2125  0.0902  0.1818
  751POPS   C3A11365   4.244   5.440   7.430 -0.3579 -0.1297  0.1458
  751POPS   C4A11366   3.814   5.532   7.373  0.0804 -0.0668 -0.0111
  751POPS   C1B11367   5.546   6.061   6.699  0.1951 -0.3173  0.0296
  751POPS   C2B11368   5.511   6.473   6.920  0.1490  0.0256  0.2544
  751POPS   C3B11369   5.487   6.762   7.282 -0.0098  0.0213 -0.2769
  751POPS   C4B11370   5.592   6.877   7.705  0.2097  0.0217  0.0615
  752POPS   CNO11371  13.412   9.450   5.490 -0.1062 -0.1767 -0.3592
  752POPS   PO411372  13.767   9.363   5.757 -0.2759 -0.1023  0.1319
  752POPS   GL111373  13.760   9.361   6.216  0.3541  0.0119  0.1220
  752POPS   GL211374  14.041   9.311   6.354  0.0559  0.1468  0.0341
  752POPS   C1A11375  13.714   9.552   6.652 -0.0120 -0.2613  0.2491
  752POPS   D2A11376  13.450   9.761   6.937  0.0143  0.0165  0.0125
  752POPS   C3A11377  13.395   9.614   7.345 -0.4749 -0.0675 -0.0127
  752POPS   C4A11378  13.515   9.657   7.798 -0.1060  0.1460 -0.0145
  752POPS   C1B11379  13.992   9.101   6.711 -0.2305  0.0541  0.1231
  752POPS   C2B11380  14.009   8.866   7.145 -0.0841  0.1271  0.0354
  752POPS   C3B11381  13.933   8.879   7.473 -0.0326  0.0654 -0.1046
  752POPS   C4B11382  14.339   9.019   7.795 -0.0266  0.0562 -0.2085
  753POPS   CNO11383   7.238  16.195   6.327  0.0595 -0.1509 -0.1277
  753POPS   PO411384   6.939  15.946   6.374  0.0015  0.0325  0.2258
  753POPS   GL111385   7.093  15.914   6.793 -0.4420 -0.0291 -0.0023
  753POPS   GL211386   7.291  16.145   6.838  0.1939  0.0908 -0.0488
  753POPS   C1A11387   7.115  15.763   7.248  0.0546  0.1130  0.1233
  753POPS   D2A11388   7.258  15.614   7.634 -0.3024 -0.0884 -0.3200
  753POPS   C3A11389   7.497  15.886   8.030 -0.3627  0.0334  0.0592
  753POPS   C4A11390   7.626  15.924   8.468  0.1506  0.1024 -0.3479
  753POPS   C1B11391   7.353  16.294   7.241 -0.0948 -0.2419  0.1566
  753POPS   C2B11392   7.159  16.136   7.614 -0.1102 -0.1543 -0.0593
  753POPS   C3B11393   6.955  16.206   8.031 -0.0015  0.1534 -0.0163
  753POPS   C4B11394   6.728  15.911   8.366  0.0998  0.0723  0.3520
  754POPS   CNO11395  14.220   2.734   6.391  0.0340 -0.0763  0.0056
  754POPS   PO411396  14.096   3.133   6.137 -0.0783  0.2998 -0.2396
  754POPS   GL111397  14.077   3.232   6.561  0.0146 -0.0964 -0.1510
  754POPS   GL211398  14.372   3.125   6.615 -0.0267  0.0339 -0.1651
  754POPS   C1A11399  13.825   2.994   6.867  0.1049  0.1232 -0.2353
  754POPS   D2A11400  13.592   3.045   7.180  0.0460  0.1708 -0.0540
  754POPS   C3A11401  13.498   3.411   7.168  0.0347  0.0061  0.0376
  754POPS   C4A11402  13.214   3.676   7.433 -0.0852  0.0639  0.1183
  754POPS   C1B11403  14.343   2.949   7.025  0.0903 -0.0672  0.1921
  754POPS   C2B11404  14.160   2.722   7.274  0.1627  0.0109 -0.2646
  754POPS   C3B11405  14.154   2.449   7.675 -0.0310  0.2559  0.1916
  754POPS   C4B11406  14.419   2.086   7.943 -0.0047 -0.2719 -0.0188
  755POPS   CNO11407   9.792  13.891   6.185 -0.1009 -0.2927 -0.1866
  755POPS   PO411408   9.385  13.988   6.235  0.0879 -0.0700  0.1508
  755POPS   GL111409   9.246  14.213   6.619 -0.1309  0.4380  0.2010
  755POPS   GL211410   9.283  14.563   6.713  0.1783  0.0840  0.0143
  755POPS   C1A11411   9.331  14.107   7.078  0.0573 -0.2414  0.1849
  755POPS   D2A11412   9.197  13.911   7.449  0.1584 -0.4154  0.0840
  755POPS   C3A11413   9.421  14.037   7.764 -0.1232 -0.0732 -0.0092
  755POPS   C4A11414   9.731  13.943   8.144  0.0933 -0.0462 -0.0296
  755POPS   C1B11415   9.466  14.605   7.092  0.0774 -0.0348 -0.0545
  755POPS   C2B11416   9.560  14.581   7.527  0.0373  0.1429 -0.3372
  755POPS   C3B11417   9.536  14.530   8.039 -0.0189  0.0322 -0.2306
  755POPS   C4B11418   9.182  14.222   8.232 -0.0247  0.1563 -0.1182
  756POPS   CNO11419  11.440   7.942   5.207  0.1586  0.1673 -0.2737
  756POPS   PO411420  11.444   7.892   5.663  0.1348 -0.0430 -0.1039
  756POPS   GL111421  11.297   7.945   6.099 -0.0056 -0.1185  0.2118
  756POPS   GL211422  11.289   8.191   6.273 -0.0566  0.0717 -0.3420
  756POPS   C1A11423  11.238   7.736   6.506 -0.0837  0.1150 -0.1748
  756POPS   D2A11424  11.069   7.686   6.886 -0.0384 -0.0195 -0.1651
  756POPS   C3A11425  10.986   8.051   7.067 -0.1399  0.0487  0.0857
  756POPS   C4A11426  11.051   8.221   7.486  0.0708  0.1977  0.0695
  756POPS   C1B11427  10.951   8.112   6.538  0.1848 -0.0415  0.0660
  756POPS   C2B11428  10.523   8.273   6.797  0.0557 -0.1577 -0.3447
  756POPS   C3B11429  10.189   8.447   6.767  0.2358 -0.0057  0.1880
  756POPS   C4B11430  10.037   8.602   7.251  0.1836  0.5231  0.0824
  757POPS   CNO11431   0.311   2.313   5.914  0.0803 -0.2255  0.2470
  757POPS   PO411432   0.085   2.264   6.193 -0.0959  0.1837 -0.1094
  757POPS   GL111433   0.172   2.276   6.643 -0.1252 -0.0152 -0.2906
  757POPS   GL211434   0.191   2.584   6.795 -0.1455 -0.1730 -0.2734
  757POPS   C1A11435   0.233   2.123   7.076  0.3950 -0.3098 -0.0490
  757POPS   D2A11436   0.274   2.238   7.505 -0.0557 -0.1449 -0.2922
  757POPS   C3A11437   0.345   1.844   7.782  0.3745  0.1029 -0.2007
  757POPS   C4A11438   0.710   1.521   8.016 -0.0418  0.0991 -0.2379
  757POPS   C1B11439  -0.108   2.471   7.128 -0.1446  0.1186 -0.2611
  757POPS   C2B11440  -0.191   2.531   7.552  0.2452 -0.1854 -0.3178
  757POPS   C3B11441  -0.256   2.514   7.882  0.0697 -0.0621 -0.0699
  757POPS   C4B11442  -0.396   2.231   8.252  0.0204 -0.0412 -0.0521
  758POPS   CNO11443   7.151   3.132   6.813 -0.1524  0.1011 -0.2424
  758POPS   PO411444   7.478   3.239   6.546 -0.0617 -0.3248  0.2372
  758POPS   GL111445   7.872   2.952   6.751  0.0242 -0.2513  0.1815
  758POPS   GL211446   8.199   3.028   6.878 -0.1609 -0.0569 -0.1479
  758POPS   C1A11447   7.927   2.701   7.097 -0.0810  0.1704 -0.3232
  758POPS   D2A11448   8.308   2.679   7.371 -0.2733  0.0450  0.0350
  758POPS   C3A11449   8.182   2.584   7.760 -0.5079 -0.1319 -0.1280
  758POPS   C4A11450   7.973   2.478   8.132  0.0803 -0.3793  0.0310
  758POPS   C1B11451   8.196   3.176   7.300 -0.3821  0.1351  0.2053
  758POPS   C2B11452   8.313   3.139   7.721 -0.0598  0.5008  0.3329
  758POPS   C3B11453   8.444   3.033   8.057 -0.2623  0.0091 -0.2664
  758POPS   C4B11454   8.475   2.557   8.217  0.2066  0.1261  0.0284
  759POPS   CNO11455  13.325   7.119   5.676  0.1613 -0.1869 -0.0368
  759POPS   PO411456  13.133   7.137   6.023 -0.1382 -0.0315 -0.1562
  759POPS   GL111457  12.967   7.143   6.414  0.0616  0.0009  0.3380
  759POPS   GL211458  12.758   6.971   6.497 -0.3259 -0.1819 -0.1115
  759POPS   C1A11459  13.266   7.220   6.856 -0.4218 -0.0581  0.3684
  759POPS   D2A11460  13.333   7.266   7.286  0.0473 -0.2553 -0.2197
  759POPS   C3A11461  13.429   7.154   7.676  0.3426  0.1085 -0.0372
  759POPS   C4A11462  13.388   6.948   8.105 -0.0812  0.0742 -0.1193
  759POPS   C1B11463  12.793   7.111   6.900  0.0416 -0.1535 -0.1533
  759POPS   C2B11464  12.847   7.105   7.403  0.2668 -0.0643 -0.2054
  759POPS   C3B11465  12.938   7.177   7.899 -0.0060  0.0047 -0.0957
  759POPS   C4B11466  12.763   7.316   8.279  0.0196 -0.1671 -0.2412
  760POPS   CNO11467  16.255   1.526   6.432  0.0412  0.1963 -0.0966
  760POPS   PO411468  15.883   1.388   6.339  0.1644 -0.1930  0.2854
  760POPS   GL111469  15.927   1.234   6.755  0.0751 -0.0278  0.0917
  760POPS   GL211470  15.705   1.354   6.980 -0.4628  0.2654 -0.2102
  760POPS   C1A11471  16.173   1.522   7.132 -0.1095  0.1471 -0.2093
  760POPS   D2A11472  16.474   1.467   7.474  0.0041 -0.4070  0.2906
  760POPS   C3A11473  16.598   1.466   7.934  0.1870 -0.2399 -0.1198
  760POPS   C4A11474  16.713   1.183   8.233  0.0974  0.0565  0.0289
  760POPS   C1B11475  15.583   1.170   7.236  0.0381 -0.0776  0.1821
  760POPS   C2B11476  15.189   1.242   7.509 -0.4383  0.1211 -0.0248
  760POPS   C3B11477  15.032   1.080   7.911  0.2107  0.1163  0.0082
  760POPS   C4B11478  14.728   1.251   8.216 -0.2783  0.1672 -0.0268
  761POPS   CNO11479   4.655   6.481   6.337  0.0030 -0.1255 -0.0218
  761POPS   PO411480   4.510   6.092   6.414  0.1394 -0.1375  0.1841
  761POPS   GL111481   4.423   6.254   6.729 -0.2153  0.0408 -0.1165
  761POPS   GL211482   4.357   6.617   6.716  0.1309 -0.0784  0.0202
  761POPS   C1A11483   4.573   6.296   7.101  0.1574  0.1004 -0.1837
  761POPS   D2A11484   4.732   6.182   7.490 -0.2652  0.1159 -0.1369
  761POPS   C3A11485   4.978   6.184   7.688 -0.2226 -0.1402  0.0502
  761POPS   C4A11486   5.295   6.509   7.652  0.2061  0.1421  0.0578
  761POPS   C1B11487   4.494   6.874   6.949  0.0466  0.3341 -0.3132
  761POPS   C2B11488   4.594   6.900   7.364  0.2959  0.0722  0.1584
  761POPS   C3B11489   4.727   6.598   7.757 -0.0455 -0.2856 -0.2632
  761POPS   C4B11490   4.520   6.324   8.084  0.0361  0.2776  0.1095
  762POPS   CNO11491   5.537   2.798   6.576  0.2255 -0.1524 -0.1367
  762POPS   PO411492   5.500   3.173   6.401  0.0863  0.3773  0.1489
  762POPS   GL111493   5.167   3.335   6.760 -0.1105  0.0960 -0.0750
  762POPS   GL211494   5.295   3.038   6.942 -0.0834  0.1086 -0.0384
  762POPS   C1A11495   5.117   3.538   7.097  0.2418 -0.2415 -0.0864
  762POPS   D2A11496   4.786   3.320   7.298  0.1340 -0.1506  0.0022
  762POPS   C3A11497   4.858   3.348   7.654 -0.0992  0.0875 -0.1202
  762POPS   C4A11498   4.759   3.136   8.015  0.2120 -0.0003  0.0048
  762POPS   C1B11499   5.252   3.174   7.430 -0.2322  0.3302  0.0731
  762POPS   C2B11500   5.270   3.106   7.834  0.1372  0.0849  0.0326
  762POPS   C3B11501   5.412   3.154   8.273  0.0787  0.1306  0.3577
  762POPS   C4B11502   5.634   3.249   8.707 -0.0515 -0.0166 -0.1398
  763POPS   CNO11503   6.467   1.335   5.915 -0.0285 -0.3878 -0.0945
  763POPS   PO411504   6.059   1.329   6.189  0.2911  0.2673 -0.1708
  763POPS   GL111505   6.182   1.178   6.627  0.2321 -0.0494 -0.0894
  763POPS   GL211506   5.867   1.214   6.720  0.0537 -0.0147  0.0722
  763POPS   C1A11507   6.311   1.162   6.967 -0.0595 -0.1124 -0.0649
  763POPS   D2A11508   6.351   1.018   7.401 -0.0140 -0.0065 -0.1535
  763POPS   C3A11509   6.507   1.151   7.874  0.0466 -0.0140  0.1032
  763POPS   C4A11510   6.361   1.496   8.175 -0.2425  0.1385 -0.2079
  763POPS   C1B11511   5.955   1.433   7.169  0.2251  0.2348  0.2303
  763POPS   C2B11512   5.839   1.487   7.590  0.0514 -0.2499  0.0497
  763POPS   C3B11513   5.881   1.525   8.089 -0.3205  0.1652  0.1715
  763POPS   C4B11514   5.742   1.626   8.538  0.2826 -0.1366 -0.2360
  764POPS   CNO11515   0.653   2.073   6.222 -0.1389 -0.1316  0.1366
  764POPS   PO411516   0.491   1.795   6.460  0.0143  0.0254  0.2905
  764POPS   GL111517   0.339   1.694   6.857 -0.0304  0.2033  0.0231
  764POPS   GL211518   0.031   1.449   6.787  0.2428 -0.2154  0.2536
  764POPS   C1A11519   0.314   1.691   7.332  0.3468 -0.0538 -0.3470
  764POPS   D2A11520   0.582   1.485   7.563  0.2697 -0.1597 -0.0949
  764POPS   C3A11521   1.018   1.475   7.594 -0.1603  0.1705  0.0928
  764POPS   C4A11522   1.376   1.782   7.631  0.1135 -0.2122 -0.0926
  764POPS   C1B11523  -0.255   1.252   7.013  0.1458 -0.1217 -0.1132
  764POPS   C2B11524  -0.309   1.300   7.436 -0.2272 -0.1944 -0.3939
  764POPS   C3B11525  -0.023   1.152   7.872  0.0997  0.0938  0.1013
  764POPS   C4B11526   0.374   1.181   8.149  0.1453 -0.2714  0.0340
  765POPS   CNO11527   6.299   2.101   6.235 -0.2937 -0.2407 -0.1201
  765POPS   PO411528   6.770   2.209   6.301  0.1654 -0.1769 -0.0055
  765POPS   GL111529   6.851   2.321   6.632  0.4779  0.0093 -0.0009
  765POPS   GL211530   7.013   2.667   6.680  0.4147  0.3424 -0.1529
  765POPS   C1A11531   6.677   2.357   7.018 -0.0888  0.2336 -0.1767
  765POPS   D2A11532   6.789   2.325   7.431  0.2956 -0.4346  0.0199
  765POPS   C3A11533   7.094   2.519   7.706 -0.0329  0.0493  0.0985
  765POPS   C4A11534   7.422   2.543   7.977 -0.0373 -0.1149  0.2590
  765POPS   C1B11535   7.066   2.729   7.204 -0.1600  0.3077  0.2659
  765POPS   C2B11536   7.203   2.938   7.516  0.0431  0.4690 -0.2822
  765POPS   C3B11537   7.150   3.075   7.971 -0.0448  0.1914 -0.2285
  765POPS   C4B11538   7.058   3.162   8.353 -0.0068 -0.0910 -0.1542
  766POPS   CNO11539  17.586   9.408   6.504  0.0213  0.0135  0.3932
  766POPS   PO411540  17.181   9.254   6.446 -0.0228  0.0772 -0.1332
  766POPS   GL111541  16.923   9.152   6.834  0.0825  0.1210 -0.1717
  766POPS   GL211542  16.576   8.968   6.810  0.1873 -0.0675  0.1247
  766POPS   C1A11543  16.871   9.278   7.248  0.0660  0.0708  0.1591
  766POPS   D2A11544  16.791   9.312   7.703 -0.0609  0.0392  0.2367
  766POPS   C3A11545  16.526   9.044   7.921 -0.3739  0.0931  0.2724
  766POPS   C4A11546  16.064   9.048   8.199 -0.1161 -0.2483  0.2318
  766POPS   C1B11547  16.424   9.181   6.971  0.1687  0.1440  0.3196
  766POPS   C2B11548  16.402   9.345   7.397  0.1461 -0.2992 -0.0255
  766POPS   C3B11549  16.358   9.561   7.858 -0.1304 -0.0699  0.0469
  766POPS   C4B11550  16.429   9.380   8.266  0.0053 -0.0500  0.0858
  767POPS   CNO11551  14.597   5.576   6.002 -0.1338  0.4289 -0.1738
  767POPS   PO411552  14.236   5.737   6.183  0.2792 -0.0225  0.1914
  767POPS   GL111553  14.150   5.638   6.595  0.2010  0.0810  0.2082
  767POPS   GL211554  13.920   5.361   6.611 -0.3761 -0.3450  0.1287
  767POPS   C1A11555  14.293   5.778   6.955  0.0292  0.1507  0.2040
  767POPS   D2A11556  14.374   5.799   7.438 -0.2133 -0.4317  0.1838
  767POPS   C3A11557  14.245   5.571   7.886  0.3129  0.0686 -0.3830
  767POPS   C4A11558  14.039   5.199   8.058 -0.1466  0.2147 -0.0637
  767POPS   C1B11559  13.980   5.389   7.013 -0.1090 -0.0977  0.1600
  767POPS   C2B11560  14.023   5.437   7.415  0.0874  0.0731 -0.2584
  767POPS   C3B11561  13.724   5.478   7.738 -0.1442 -0.2611  0.2079
  767POPS   C4B11562  13.361   5.448   7.896 -0.0435  0.1353 -0.1124
  768POPS   CNO11563  13.270   3.194   5.650  0.1377  0.2294 -0.1254
  768POPS   PO411564  13.079   3.377   6.032  0.0892  0.0195  0.0310
  768POPS   GL111565  13.208   3.408   6.384 -0.1592 -0.0239  0.0483
  768POPS   GL211566  13.127   3.545   6.552  0.0752 -0.1256  0.0222
  768POPS   C1A11567  13.288   3.173   6.786  0.3029  0.0642 -0.0826
  768POPS   D2A11568  13.032   3.146   7.179 -0.0475 -0.1465 -0.1387
  768POPS   C3A11569  13.238   3.233   7.594  0.2733 -0.4171 -0.3120
  768POPS   C4A11570  13.640   3.168   7.689 -0.1255  0.1713 -0.2811
  768POPS   C1B11571  12.977   3.629   6.905 -0.2253 -0.3478  0.0792
  768POPS   C2B11572  12.934   3.975   7.142 -0.0139  0.0132 -0.1371
  768POPS   C3B11573  12.981   4.388   7.321 -0.2503  0.0129 -0.1002
  768POPS   C4B11574  13.232   4.661   7.544  0.0019 -0.1640 -0.0807
  769POPS   CNO11575  16.287  13.696   5.958 -0.1646 -0.1011 -0.1404
  769POPS   PO411576  16.260  13.753   6.365  0.1141  0.0217 -0.4998
  769POPS   GL111577  16.017  13.797   6.591 -0.2147  0.0954 -0.1170
  769POPS   GL211578  15.947  14.066   6.668 -0.0166  0.0283  0.1621
  769POPS   C1A11579  15.895  13.876   7.077 -0.1562  0.0802  0.4441
  769POPS   D2A11580  15.684  13.762   7.456  0.1850 -0.1499  0.1122
  769POPS   C3A11581  15.907  13.609   7.885  0.0120 -0.4250 -0.0082
  769POPS   C4A11582  15.797  13.590   8.225 -0.0939  0.1804 -0.0305
  769POPS   C1B11583  16.108  14.316   7.000  0.2607 -0.2483  0.2393
  769POPS   C2B11584  16.061  14.436   7.358 -0.1232  0.1236  0.1242
  769POPS   C3B11585  15.992  14.649   7.772 -0.1226 -0.1431  0.0793
  769POPS   C4B11586  15.893  14.444   8.065  0.0234 -0.0808 -0.1322
  770POPS   CNO11587  17.245   3.002   6.121 -0.3744 -0.0805  0.3647
  770POPS   PO411588  17.097   3.152   6.489  0.0110  0.0107  0.1574
  770POPS   GL111589  17.142   2.957   6.832 -0.1493  0.1729 -0.0614
  770POPS   GL211590  17.476   2.962   6.932 -0.0765  0.0361  0.0237
  770POPS   C1A11591  17.125   2.766   7.245 -0.0161 -0.0793  0.1086
  770POPS   D2A11592  17.011   2.340   7.162 -0.2960  0.1634 -0.1247
  770POPS   C3A11593  16.933   2.075   7.399 -0.1518 -0.0408  0.0247
  770POPS   C4A11594  16.979   1.979   7.881  0.0657  0.0524 -0.1421
  770POPS   C1B11595  17.510   3.043   7.347 -0.2403 -0.2239  0.0823
  770POPS   C2B11596  17.245   2.979   7.789 -0.3755 -0.0378  0.0260
  770POPS   C3B11597  17.019   3.173   8.227  0.0846  0.2198  0.4774
  770POPS   C4B11598  17.062   3.368   8.569 -0.1327  0.1417 -0.1558
  771YOPS   CNO11599   9.025  12.001   5.736 -0.0445  0.3482  0.2815
  771YOPS   PO411600   8.654  11.822   5.954 -0.5474  0.1275 -0.1371
  771YOPS   GL111601   8.743  11.664   6.507  0.2504  0.1613 -0.0704
  771YOPS   GL211602   8.532  11.720   6.544  0.1726 -0.0815 -0.0951
  771YOPS   C1A11603   9.006  11.756   6.920 -0.1516 -0.3970 -0.1930
  771YOPS   D2A11604   9.052  11.766   7.398  0.0637 -0.2628 -0.3405
  771YOPS   C3A11605   9.133  11.669   7.774  0.1810 -0.1532 -0.2544
  771YOPS   C4A11606   9.229  11.825   8.199  0.1168 -0.1035 -0.4150
  771YOPS   C1B11607   8.466  11.596   6.939 -0.2026 -0.1074  0.1327
  771YOPS   C2B11608   8.621  11.342   7.177  0.1116  0.2218  0.0906
  771YOPS   D3B11609   8.720  11.390   7.540  0.0515  0.1699  0.2378
  771YOPS   C4B11610   8.847  11.304   7.941 -0.2016  0.1979 -0.1689
  772YOPS   CNO11611   0.804  17.584   6.211  0.0407  0.0668  0.0346
  772YOPS   PO411612   1.140  17.763   6.261  0.0487  0.1500 -0.1408
  772YOPS   GL111613   1.113  17.637   6.650 -0.4761  0.1175 -0.2587
  772YOPS   GL211614   1.256  17.761   6.850  0.2554 -0.2074  0.1529
  772YOPS   C1A11615   0.960  17.478   7.130 -0.0610 -0.0256  0.3215
  772YOPS   D2A11616   0.900  17.479   7.581 -0.3138  0.2028 -0.4789
  772YOPS   C3A11617   0.815  17.499   7.996  0.1085  0.0126  0.0562
  772YOPS   C4A11618   0.504  17.780   8.002 -0.2085  0.2466  0.0805
  772YOPS   C1B11619   1.282  17.770   7.301 -0.0427  0.1766 -0.3222
  772YOPS   C2B11620   1.287  17.745   7.793  0.1968  0.2035  0.0215
  772YOPS   D3B11621   1.053  17.853   8.221  0.1567  0.2715  0.0823
  772YOPS   C4B11622   1.108  18.160   8.481 -0.0584 -0.0818 -0.1354
  773YOPS   CNO11623  16.605  12.733   6.159 -0.0096 -0.1474 -0.3348
  773YOPS   PO411624  16.231  12.554   5.913  0.1200 -0.0477  0.2167
  773YOPS   GL111625  16.173  12.254   6.241  0.1967  0.0301  0.2531
  773YOPS   GL211626  16.313  12.379   6.557 -0.0997  0.1137  0.0255
  773YOPS   C1A11627  16.229  11.894   6.565  0.1737 -0.2163  0.1080
  773YOPS   D2A11628  16.425  11.459   6.698  0.0456  0.0356 -0.0247
  773YOPS   C3A11629  16.635  11.318   7.044 -0.2350 -0.0943 -0.0481
  773YOPS   C4A11630  17.010  11.500   7.018 -0.1883 -0.1520 -0.1441
  773YOPS   C1B11631  16.324  12.495   6.986 -0.2207 -0.0967  0.0976
  773YOPS   C2B11632  16.570  12.522   7.275  0.2493 -0.1714 -0.0561
  773YOPS   D3B11633  16.754  12.437   7.667  0.1805 -0.0634 -0.2155
  773YOPS   C4B11634  16.583  12.115   7.924  0.1400 -0.1795  0.3901
  774YOPS   CNO11635  13.160   0.738   5.507  0.0098 -0.1796  0.1439
  774YOPS   PO411636  12.975   1.008   5.849  0.2054 -0.2405  0.2342
  774YOPS   GL111637  12.942   1.074   6.262  0.0332  0.2826 -0.2677
  774YOPS   GL211638  12.631   1.178   6.498 -0.0196 -0.2130  0.2122
  774YOPS   C1A11639  13.096   1.161   6.665  0.3577 -0.0482  0.1983
  774YOPS   D2A11640  13.469   1.054   6.911 -0.0785 -0.0219  0.0231
  774YOPS   C3A11641  13.696   0.668   6.910  0.0457 -0.0580 -0.6788
  774YOPS   C4A11642  14.161   0.667   6.936  0.4153  0.1807 -0.2929
  774YOPS   C1B11643  12.720   1.224   6.996  0.0380 -0.0729 -0.0420
  774YOPS   C2B11644  13.000   1.296   7.239  0.0103 -0.0967 -0.1036
  774YOPS   D3B11645  13.138   1.568   7.634  0.1374 -0.1722 -0.2487
  774YOPS   C4B11646  13.017   1.822   7.915  0.4146 -0.2770 -0.0955
  775YOPS   CNO11647  17.554   1.390   6.033  0.2434  0.0132 -0.2394
  775YOPS   PO411648  17.792   1.133   6.303 -0.2329 -0.0537 -0.0485
  775YOPS   GL111649  17.743   0.944   6.719  0.1165 -0.2353 -0.1095
  775YOPS   GL211650  17.678   0.534   6.565  0.1046  0.2152  0.1358
  775YOPS   C1A11651  17.956   0.736   7.004  0.3412  0.1336 -0.1400
  775YOPS   D2A11652  17.948   0.537   7.242  0.1161  0.0960  0.1170
  775YOPS   C3A11653  17.950   0.307   7.540  0.0244 -0.2447 -0.0701
  775YOPS   C4A11654  17.598   0.189   7.832  0.1604  0.1922 -0.0789
  775YOPS   C1B11655  17.613   0.230   6.843 -0.0530 -0.1954  0.2091
  775YOPS   C2B11656  17.487   0.207   7.140 -0.1548  0.1138 -0.1025
  775YOPS   D3B11657  17.139   0.181   7.598 -0.0949 -0.4786 -0.2126
  775YOPS   C4B11658  16.852  -0.175   7.666 -0.2008 -0.0592 -0.3473
  776YOPS   CNO11659   4.938  11.435   6.025  0.1610  0.0829 -0.0843
  776YOPS   PO411660   5.275  11.211   6.191 -0.0626 -0.0843  0.0735
  776YOPS   GL111661   5.077  11.344   6.601  0.2501 -0.0496  0.1346
  776YOPS   GL211662   4.784  11.499   6.645  0.1447 -0.3873  0.2191
  776YOPS   C1A11663   5.247  11.693   6.924 -0.0106 -0.0065 -0.3342
  776YOPS   D2A11664   5.250  11.687   7.356 -0.1718  0.0102 -0.4259
  776YOPS   C3A11665   5.316  11.546   7.889 -0.0753  0.2045  0.0426
  776YOPS   C4A11666   5.486  11.363   8.290  0.0420  0.0072  0.0314
  776YOPS   C1B11667   4.906  11.382   7.138 -0.1019  0.0167 -0.2748
  776YOPS   C2B11668   4.891  11.452   7.494  0.2662 -0.1641 -0.1955
  776YOPS   D3B11669   4.796  11.610   7.807 -0.0709  0.1518  0.0005
  776YOPS   C4B11670   4.995  12.003   7.983 -0.0316  0.1543  0.0617
  777YOPS   CNO11671  16.719  13.476   6.182 -0.2526  0.0222 -0.0323
  777YOPS   PO411672  16.899  13.294   6.494  0.1731  0.0613 -0.1759
  777YOPS   GL111673  16.980  13.113   6.894 -0.0053  0.3363  0.0590
  777YOPS   GL211674  17.157  13.387   6.993  0.1252  0.0012  0.3938
  777YOPS   C1A11675  16.685  13.139   7.234  0.1425 -0.0716  0.0475
  777YOPS   D2A11676  16.719  12.985   7.620  0.0406  0.3392 -0.0393
  777YOPS   C3A11677  16.525  12.829   7.984 -0.1278  0.0792 -0.0429
  777YOPS   C4A11678  16.757  12.484   8.311  0.1782 -0.1173  0.0015
  777YOPS   C1B11679  17.189  13.212   7.371  0.2937  0.0027 -0.0626
  777YOPS   C2B11680  17.215  13.332   7.849 -0.0613  0.1896  0.1122
  777YOPS   D3B11681  17.184  13.480   8.218  0.0430  0.4498 -0.0849
  777YOPS   C4B11682  17.513  13.414   8.491  0.0859 -0.0856 -0.0940
  778YOPS   CNO11683   8.745   3.280   5.954 -0.0649 -0.0360 -0.0740
  778YOPS   PO411684   8.857   3.560   6.143  0.1452 -0.3799 -0.2449
  778YOPS   GL111685   8.662   3.758   6.491  0.0407 -0.0991 -0.1764
  778YOPS   GL211686   8.670   3.455   6.624 -0.0144  0.1254  0.0336
  778YOPS   C1A11687   8.696   4.006   6.887 -0.1678 -0.2803 -0.0826
  778YOPS   D2A11688   8.747   4.357   7.211 -0.3135 -0.2092  0.1492
  778YOPS   C3A11689   8.903   4.424   7.564 -0.3999  0.0143  0.0916
  778YOPS   C4A11690   8.629   4.534   7.815 -0.2253  0.0266  0.1352
  778YOPS   C1B11691   8.730   3.518   7.095  0.2602  0.0261  0.0947
  778YOPS   C2B11692   8.563   3.551   7.498  0.0640  0.2014  0.0118
  778YOPS   D3B11693   8.655   3.520   7.897  0.0834 -0.0925 -0.1469
  778YOPS   C4B11694   8.214   3.471   8.078  0.0615 -0.1785 -0.1747
  779YOPS   CNO11695   8.500  15.493   5.883 -0.1798 -0.2531  0.2281
  779YOPS   PO411696   8.410  15.454   6.302  0.1255  0.1439 -0.1055
  779YOPS   GL111697   8.185  15.271   6.719  0.0143 -0.1767 -0.1720
  779YOPS   GL211698   7.865  15.335   6.894  0.2415 -0.0582  0.0368
  779YOPS   C1A11699   8.261  15.120   7.169 -0.0515  0.0086 -0.1235
  779YOPS   D2A11700   8.270  15.131   7.579 -0.1565  0.0621 -0.1177
  779YOPS   C3A11701   8.439  15.193   7.967 -0.1511  0.2415  0.1369
  779YOPS   C4A11702   8.629  14.964   8.232  0.1904  0.1872 -0.2944
  779YOPS   C1B11703   7.870  15.418   7.357 -0.1668  0.0262 -0.1827
  779YOPS   C2B11704   7.704  15.415   7.794 -0.1680  0.0742 -0.0344
  779YOPS   D3B11705   7.448  15.351   8.094  0.0182  0.0817 -0.0704
  779YOPS   C4B11706   7.209  15.613   8.460  0.0836 -0.0446  0.0908
  780YOPS   CNO11707   9.212  16.642   6.055  0.1109  0.1955 -0.2122
  780YOPS   PO411708   9.432  17.058   6.038 -0.0273  0.1761  0.1319
  780YOPS   GL111709   9.461  16.903   6.444 -0.0510  0.0830 -0.0474
  780YOPS   GL211710   9.102  16.756   6.601 -0.1394 -0.1245 -0.1897
  780YOPS   C1A11711   9.689  16.876   6.839 -0.0644  0.3868 -0.2086
  780YOPS   D2A11712   9.717  16.887   7.235  0.1289  0.1892 -0.5529
  780YOPS   C3A11713   9.529  16.818   7.601  0.1298 -0.2311  0.1466
  780YOPS   C4A11714   9.669  16.847   8.022 -0.0858 -0.0172  0.1119
  780YOPS   C1B11715   9.124  16.797   7.061  0.2879 -0.0521 -0.1604
  780YOPS   C2B11716   9.023  16.897   7.539 -0.2677  0.0978  0.0467
  780YOPS   D3B11717   9.203  16.952   7.952 -0.2107 -0.4192  0.1861
  780YOPS   C4B11718   8.802  16.907   8.241 -0.0109  0.2062 -0.0875
  781YOPS   CNO11719  13.795   6.379   5.823 -0.1514  0.0421  0.0933
  781YOPS   PO411720  13.985   6.207   6.205 -0.0750 -0.0890  0.1788
  781YOPS   GL111721  13.803   6.453   6.511  0.1580 -0.0284 -0.1875
  781YOPS   GL211722  13.476   6.230   6.658  0.2352  0.2624 -0.1304
  781YOPS   C1A11723  13.820   6.402   6.984  0.1847  0.0469 -0.1574
  781YOPS   D2A11724  13.793   6.390   7.464  0.1122  0.1574 -0.1640
  781YOPS   C3A11725  14.041   6.040   7.787  0.0086  0.1476  0.0169
  781YOPS   C4A11726  14.478   6.077   7.806 -0.0642 -0.1278 -0.0754
  781YOPS   C1B11727  12.979   6.144   6.804 -0.0533 -0.1117 -0.2643
  781YOPS   C2B11728  12.640   6.386   6.951  0.2348 -0.0079 -0.0382
  781YOPS   D3B11729  12.604   6.323   7.454  0.0113  0.0921  0.1213
  781YOPS   C4B11730  12.794   6.664   7.663  0.0047  0.0667  0.1216
  782YOPS   CNO11731   1.879   9.127   6.924 -0.0783 -0.0443  0.3880
  782YOPS   PO411732   2.228   9.367   6.869 -0.0005 -0.2802  0.0638
  782YOPS   GL111733   2.350   9.330   7.207  0.1938 -0.0959  0.3252
  782YOPS   GL211734   2.089   9.227   7.363 -0.1681 -0.2218 -0.2992
  782YOPS   C1A11735   2.479   9.484   7.605 -0.1552  0.2865  0.0341
  782YOPS   D2A11736   2.493   9.698   7.992  0.0900  0.2086 -0.1871
  782YOPS   C3A11737   2.511   9.767   8.506 -0.2082 -0.1523 -0.0102
  782YOPS   C4A11738   2.946   9.823   8.697  0.0543  0.0047 -0.4477
  782YOPS   C1B11739   2.003   9.252   7.789 -0.2537  0.1982 -0.1297
  782YOPS   C2B11740   1.879   9.392   8.251 -0.1930 -0.0294  0.1369
  782YOPS   D3B11741   1.730   9.124   8.587  0.1004  0.1188  0.2103
  782YOPS   C4B11742   1.736   9.335   8.983 -0.2132 -0.0608 -0.1379
  783YOPS   CNO11743   2.365   2.651   6.214 -0.2083 -0.0294  0.0701
  783YOPS   PO411744   1.944   2.849   6.282  0.1183  0.1272 -0.0040
  783YOPS   GL111745   2.057   3.145   6.649  0.4478  0.1479  0.1459
  783YOPS   GL211746   1.910   3.507   6.702 -0.0246 -0.3553  0.1366
  783YOPS   C1A11747   2.225   3.301   7.064 -0.5146 -0.0202 -0.0844
  783YOPS   D2A11748   2.283   3.296   7.587  0.1241 -0.0309  0.0334
  783YOPS   C3A11749   2.411   2.884   7.865  0.0973  0.1329 -0.0149
  783YOPS   C4A11750   2.468   2.941   8.302 -0.2436 -0.0348  0.0097
  783YOPS   C1B11751   1.619   3.690   6.969  0.1319 -0.0370  0.0340
  783YOPS   C2B11752   1.509   3.665   7.361 -0.0227 -0.1638  0.2649
  783YOPS   D3B11753   1.287   3.810   7.794  0.2907 -0.0482  0.1162
  783YOPS   C4B11754   1.241   3.668   8.219 -0.0527  0.2703 -0.2356
  784YOPS   CNO11755   7.502  17.080   6.572 -0.2789 -0.2494 -0.1379
  784YOPS   PO411756   7.934  16.796   6.511 -0.1784 -0.1100  0.1066
  784YOPS   GL111757   7.656  16.716   6.881 -0.1009 -0.0254 -0.0941
  784YOPS   GL211758   7.791  16.368   6.876 -0.0400 -0.0685 -0.1730
  784YOPS   C1A11759   7.385  16.860   7.196 -0.2131  0.0455  0.2385
  784YOPS   D2A11760   7.168  17.048   7.415  0.0318  0.3536  0.0461
  784YOPS   C3A11761   6.998  17.098   7.849 -0.1891  0.0947 -0.0255
  784YOPS   C4A11762   6.929  17.334   8.162 -0.0366 -0.4148  0.1826
  784YOPS   C1B11763   7.797  16.520   7.306  0.0231 -0.0232 -0.1571
  784YOPS   C2B11764   7.801  16.879   7.525 -0.0509  0.2618 -0.0841
  784YOPS   D3B11765   7.643  17.227   7.611  0.0545  0.1856  0.0392
  784YOPS   C4B11766   7.434  17.128   8.016 -0.0561 -0.2073 -0.2199
  785YOPS   CNO11767   2.835  14.076   6.726  0.1077 -0.0545  0.0767
  785YOPS   PO411768   2.611  14.449   6.455 -0.2234  0.1676  0.1138
  785YOPS   GL111769   2.489  14.426   6.855 -0.2579 -0.1508  0.0503
  785YOPS   GL211770   2.220  14.285   7.017 -0.0962 -0.1289 -0.0762
  785YOPS   C1A11771   2.376  14.737   7.203 -0.0674 -0.0772  0.0670
  785YOPS   D2A11772   2.291  14.691   7.569  0.1533  0.1007 -0.1951
  785YOPS   C3A11773   2.579  14.834   7.822  0.0716  0.1797  0.1030
  785YOPS   C4A11774   2.736  14.545   8.045  0.2025  0.1440  0.1810
  785YOPS   C1B11775   2.130  14.089   7.342 -0.3316 -0.3180 -0.2428
  785YOPS   C2B11776   1.940  14.116   7.705 -0.2604 -0.2426 -0.2350
  785YOPS   D3B11777   1.851  14.212   8.096 -0.0228 -0.1349 -0.0206
  785YOPS   C4B11778   1.877  14.547   8.385  0.0717  0.2201 -0.0657
  786YOPS   CNO11779   8.497   5.398   5.598  0.0242 -0.3026  0.3078
  786YOPS   PO411780   8.797   5.631   5.835 -0.1261 -0.0480  0.1390
  786YOPS   GL111781   8.773   5.689   6.273  0.0955  0.2351 -0.2836
  786YOPS   GL211782   8.856   5.404   6.531 -0.0257 -0.0013  0.1028
  786YOPS   C1A11783   8.721   5.884   6.663 -0.2682 -0.1258 -0.3589
  786YOPS   D2A11784   8.774   6.036   7.063  0.1604  0.0294  0.2940
  786YOPS   C3A11785   8.862   5.896   7.436 -0.1694 -0.2372  0.1063
  786YOPS   C4A11786   8.808   5.395   7.517 -0.1251  0.3180 -0.2226
  786YOPS   C1B11787   9.020   5.577   6.930 -0.1370 -0.1661 -0.2037
  786YOPS   C2B11788   9.277   5.516   7.382 -0.2084 -0.0362  0.0029
  786YOPS   D3B11789   9.320   5.302   7.688  0.1091  0.0258 -0.2370
  786YOPS   C4B11790   9.475   5.489   7.984 -0.0651  0.1129  0.1352
  787YOPS   CNO11791   7.141   9.483   6.843  0.0595  0.0442 -0.1947
  787YOPS   PO411792   6.994   9.234   6.402 -0.4875  0.0692  0.1272
  787YOPS   GL111793   6.937   9.026   6.808 -0.2012 -0.2281  0.1116
  787YOPS   GL211794   7.194   8.860   6.928  0.0252  0.1134 -0.0261
  787YOPS   C1A11795   6.886   9.202   7.230 -0.0731  0.2926 -0.0687
  787YOPS   D2A11796   6.831   9.027   7.582  0.1317 -0.2233 -0.2674
  787YOPS   C3A11797   6.719   8.801   7.883 -0.2067  0.0630  0.0196
  787YOPS   C4A11798   6.691   8.879   8.307 -0.1087  0.2899  0.0385
  787YOPS   C1B11799   7.249   8.823   7.283 -0.1796 -0.3311  0.1768
  787YOPS   C2B11800   7.252   8.808   7.777  0.1898 -0.0732  0.1693
  787YOPS   D3B11801   7.482   9.101   7.984 -0.0627 -0.4135 -0.0417
  787YOPS   C4B11802   7.860   9.046   8.233  0.1065 -0.0417 -0.4269
  788YOPS   CNO11803  14.650   8.895   5.882  0.0614  0.1104  0.0818
  788YOPS   PO411804  14.620   9.279   5.967 -0.0084 -0.0319  0.2375
  788YOPS   GL111805  14.544   9.366   6.388 -0.1191 -0.0728  0.0592
  788YOPS   GL211806  14.498   9.679   6.435  0.0090  0.0093 -0.3462
  788YOPS   C1A11807  14.497   9.117   6.646 -0.5172  0.2330 -0.2809
  788YOPS   D2A11808  14.595   8.682   6.674 -0.0284 -0.1093  0.4008
  788YOPS   C3A11809  14.711   8.506   7.068 -0.4440  0.0242  0.0265
  788YOPS   C4A11810  14.659   8.752   7.443 -0.0951  0.0033  0.3718
  788YOPS   C1B11811  14.203   9.568   6.809 -0.3584 -0.0078  0.0387
  788YOPS   C2B11812  13.937   9.514   7.083  0.0080  0.0200  0.2508
  788YOPS   D3B11813  13.894   9.440   7.475 -0.2402  0.2790  0.4113
  788YOPS   C4B11814  14.116   9.486   7.793  0.1603 -0.1995 -0.2481
  789YOPS   CNO11815   8.205  15.904   6.256 -0.1333  0.2826  0.1298
  789YOPS   PO411816   8.496  16.252   6.358 -0.4454  0.2505 -0.2419
  789YOPS   GL111817   8.461  16.587   6.612  0.0702 -0.1761  0.1202
  789YOPS   GL211818   8.212  16.722   6.888 -0.2539  0.0266 -0.0047
  789YOPS   C1A11819   8.632  16.508   7.025 -0.0076 -0.0977  0.0675
  789YOPS   D2A11820   8.939  16.434   7.356 -0.0612 -0.3675  0.0545
  789YOPS   C3A11821   9.270  16.236   7.534 -0.3892  0.4147 -0.0802
  789YOPS   C4A11822   9.400  16.365   7.922 -0.2275  0.1645  0.1159
  789YOPS   C1B11823   8.231  16.724   7.343  0.2343  0.2220  0.1254
  789YOPS   C2B11824   8.082  16.558   7.768 -0.2821  0.0505  0.0895
  789YOPS   D3B11825   8.315  16.454   8.070  0.0910  0.2075  0.0708
  789YOPS   C4B11826   8.252  16.770   8.257 -0.1586  0.0768 -0.2602
  790YOPS   CNO11827   4.850  12.385   6.457 -0.0542  0.0114  0.2375
  790YOPS   PO411828   5.209  12.248   6.285  0.0008  0.1480  0.0375
  790YOPS   GL111829   5.490  12.117   6.582 -0.0726  0.0659  0.1692
  790YOPS   GL211830   5.736  12.317   6.487 -0.1536  0.1372 -0.0582
  790YOPS   C1A11831   5.405  12.201   6.980 -0.0574 -0.1689  0.1804
  790YOPS   D2A11832   5.317  12.186   7.417 -0.0817 -0.1804  0.1349
  790YOPS   C3A11833   5.129  12.415   7.708 -0.4379  0.0351  0.0763
  790YOPS   C4A11834   4.708  12.349   7.783  0.1245 -0.1109  0.2568
  790YOPS   C1B11835   5.849  12.395   6.841  0.0821  0.0830  0.1740
  790YOPS   C2B11836   5.786  12.309   7.331 -0.0772 -0.0999  0.0282
  790YOPS   D3B11837   5.699  12.518   7.660 -0.0433 -0.2542 -0.1881
  790YOPS   C4B11838   5.414  12.786   7.584 -0.2549  0.1596 -0.1530
  791YOPS   CNO11839   1.974  15.174   6.305  0.0568  0.2218 -0.1716
  791YOPS   PO411840   1.748  14.907   6.532 -0.2882  0.1841 -0.2737
  791YOPS   GL111841   1.743  15.164   6.912 -0.1094 -0.2872  0.0229
  791YOPS   GL211842   1.841  15.472   6.859  0.0030  0.0268 -0.1871
  791YOPS   C1A11843   1.569  15.401   7.297 -0.1631  0.1538  0.1713
  791YOPS   D2A11844   1.588  15.499   7.657  0.2891  0.2681 -0.1382
  791YOPS   C3A11845   1.796  15.498   8.046 -0.0245 -0.0193 -0.0218
  791YOPS   C4A11846   1.960  15.088   8.309 -0.1294  0.0453  0.1442
  791YOPS   C1B11847   2.182  15.299   7.201  0.0588 -0.0776 -0.2386
  791YOPS   C2B11848   2.526  15.172   7.443 -0.0849  0.2368  0.3288
  791YOPS   D3B11849   2.873  15.218   7.674  0.2606  0.1668 -0.3339
  791YOPS   C4B11850   2.792  15.507   8.129 -0.2612 -0.0943  0.0406
  792YOPS   CNO11851   6.480   1.988   6.694  0.1879 -0.0001  0.2363
  792YOPS   PO411852   6.901   1.838   6.673 -0.1779  0.2307  0.1182
  792YOPS   GL111853   6.909   1.954   7.067 -0.1156  0.0121 -0.6129
  792YOPS   GL211854   7.164   2.134   6.986 -0.0696 -0.0933  0.1155
  792YOPS   C1A11855   6.896   1.836   7.543  0.0545 -0.1087  0.1620
  792YOPS   D2A11856   6.798   1.623   7.949  0.4085  0.0037 -0.0594
  792YOPS   C3A11857   6.679   1.838   8.288 -0.1198  0.0343  0.0044
  792YOPS   C4A11858   6.541   1.749   8.650 -0.3815  0.2060  0.0534
  792YOPS   C1B11859   7.369   2.075   7.363  0.0974  0.1730  0.0528
  792YOPS   C2B11860   7.231   2.049   7.796  0.2009  0.0688 -0.3784
  792YOPS   D3B11861   7.125   2.004   8.268 -0.4668 -0.1588 -0.3374
  792YOPS   C4B11862   6.806   2.245   8.441 -0.1089 -0.3837  0.2597
  793YOPS   CNO11863   5.405  12.981   5.744 -0.0857  0.3015 -0.1951
  793YOPS   PO411864   5.564  12.668   6.103 -0.0246  0.0505  0.3154
  793YOPS   GL111865   5.870  12.780   6.498  0.0243  0.0162 -0.1666
  793YOPS   GL211866   6.249  12.579   6.520 -0.0200  0.0823  0.2116
  793YOPS   C1A11867   6.089  12.972   6.827  0.0886 -0.1247  0.1930
  793YOPS   D2A11868   6.216  13.257   7.256  0.1339  0.1492  0.1602
  793YOPS   C3A11869   6.324  13.115   7.651  0.2039 -0.0148 -0.2972
  793YOPS   C4A11870   6.533  13.322   7.891 -0.2016  0.0443  0.0923
  793YOPS   C1B11871   6.332  12.466   6.956 -0.3402  0.0693 -0.3606
  793YOPS   C2B11872   6.297  12.357   7.363  0.3319  0.1007  0.0447
  793YOPS   D3B11873   6.181  12.650   7.685 -0.2289 -0.0773  0.1424
  793YOPS   C4B11874   5.892  12.870   7.907  0.1665 -0.1285  0.2044
  794YOPS   CNO11875  10.975   1.804   6.396  0.1644 -0.0431 -0.0210
  794YOPS   PO411876  11.233   1.494   6.276  0.1021 -0.0947 -0.0023
  794YOPS   GL111877  11.456   1.714   6.616 -0.1697 -0.1380  0.1069
  794YOPS   GL211878  11.224   1.993   6.765 -0.2680 -0.1888  0.2108
  794YOPS   C1A11879  11.703   1.732   6.994 -0.0518  0.2218  0.3394
  794YOPS   D2A11880  11.590   1.710   7.495 -0.3191  0.2530 -0.0794
  794YOPS   C3A11881  11.681   1.821   7.994  0.0234  0.0102 -0.2931
  794YOPS   C4A11882  11.871   1.496   8.153  0.0304  0.0150  0.1831
  794YOPS   C1B11883  11.252   1.938   7.150 -0.2144 -0.0813 -0.0797
  794YOPS   C2B11884  11.141   1.853   7.570  0.0927  0.2377 -0.0744
  794YOPS   D3B11885  11.132   1.933   8.010  0.1502  0.4036 -0.1629
  794YOPS   C4B11886  11.362   2.129   8.252  0.0145  0.0939  0.1662
  795YOPS   CNO11887   3.694   5.562   6.618 -0.2274  0.1154  0.1878
  795YOPS   PO411888   3.748   5.176   6.708  0.1329 -0.0407 -0.3020
  795YOPS   GL111889   3.772   5.091   7.088 -0.1204 -0.0631  0.1112
  795YOPS   GL211890   3.462   5.212   7.302  0.0435  0.0596  0.0497
  795YOPS   C1A11891   4.035   4.982   7.442  0.1879 -0.1414 -0.1132
  795YOPS   D2A11892   4.106   5.038   7.790  0.0346  0.2307  0.2744
  795YOPS   C3A11893   4.178   4.969   8.240  0.0773  0.2889  0.0943
  795YOPS   C4A11894   4.517   4.821   8.420  0.1763  0.3953 -0.1392
  795YOPS   C1B11895   3.650   5.195   7.657  0.0947  0.0375  0.1922
  795YOPS   C2B11896   3.694   5.120   8.036  0.0120  0.3362 -0.1629
  795YOPS   D3B11897   3.834   5.380   8.328  0.3039 -0.0749  0.2164
  795YOPS   C4B11898   4.228   5.396   8.404  0.1908 -0.2444 -0.0806
  796YOPS   CNO11899   4.243   1.519   6.360 -0.2620  0.1141 -0.0503
  796YOPS   PO411900   4.631   1.456   6.375 -0.0993 -0.0628  0.0969
  796YOPS   GL111901   4.685   1.465   6.818  0.2520 -0.0454 -0.1997
  796YOPS   GL211902   4.567   1.390   7.010 -0.0144  0.0623 -0.0780
  796YOPS   C1A11903   5.011   1.566   7.129  0.1291 -0.0135  0.1465
  796YOPS   D2A11904   4.996   1.781   7.552 -0.5724  0.1838  0.0167
  796YOPS   C3A11905   4.989   1.785   7.913 -0.0679 -0.2520 -0.1000
  796YOPS   C4A11906   5.115   2.255   8.079 -0.1790 -0.2013  0.2537
  796YOPS   C1B11907   4.590   1.493   7.499  0.0586 -0.0304  0.0760
  796YOPS   C2B11908   4.607   1.482   7.908  0.2945 -0.0638  0.0768
  796YOPS   D3B11909   4.595   1.601   8.288  0.1499 -0.1836  0.1287
  796YOPS   C4B11910   4.768   1.472   8.667 -0.0383  0.0592  0.0711
  797YOPS   CNO11911  13.926  12.096   6.167 -0.1626  0.1472 -0.4325
  797YOPS   PO411912  13.740  11.920   6.395 -0.0564 -0.0485  0.1355
  797YOPS   GL111913  13.937  11.909   6.822 -0.0864  0.2180  0.1349
  797YOPS   GL211914  13.849  11.654   6.938  0.0228  0.0746 -0.0026
  797YOPS   C1A11915  14.135  12.001   7.184  0.4228 -0.1216  0.0024
  797YOPS   D2A11916  14.610  11.894   7.330  0.0355 -0.0152 -0.0956
  797YOPS   C3A11917  14.840  12.121   7.659 -0.2158  0.2783 -0.1876
  797YOPS   C4A11918  15.135  12.588   7.759 -0.0558  0.1663  0.0050
  797YOPS   C1B11919  13.808  11.735   7.374  0.0832 -0.3698  0.0205
  797YOPS   C2B11920  13.887  11.842   7.742 -0.2335 -0.0190 -0.0783
  797YOPS   D3B11921  14.020  11.985   8.103  0.1049  0.0416 -0.3232
  797YOPS   C4B11922  14.381  12.259   8.141 -0.0942 -0.2844 -0.0848
  798YOPS   CNO11923   9.659   8.323   5.089  0.1889  0.3745 -0.1700
  798YOPS   PO411924   9.759   8.265   5.541  0.0569  0.2151  0.1023
  798YOPS   GL111925   9.871   8.034   5.926  0.1450 -0.1578  0.2273
  798YOPS   GL211926  10.175   7.936   5.914 -0.2538  0.0865 -0.1164
  798YOPS   C1A11927   9.576   7.911   6.375  0.0391 -0.3783 -0.3460
  798YOPS   D2A11928   9.671   7.746   6.764  0.0570  0.1155 -0.2934
  798YOPS   C3A11929   9.803   7.688   7.230  0.1593  0.0474  0.0610
  798YOPS   C4A11930  10.005   7.242   7.278  0.1333 -0.0992 -0.2268
  798YOPS   C1B11931  10.043   7.619   6.235 -0.0248  0.1183 -0.1100
  798YOPS   C2B11932   9.767   7.265   6.473  0.0363 -0.2766  0.4946
  798YOPS   D3B11933   9.570   6.884   6.524  0.3365  0.1969 -0.0997
  798YOPS   C4B11934   9.159   7.000   6.746 -0.1731  0.1890 -0.2232
  799YOPS   CNO11935  10.503  16.168   5.920 -0.1379  0.0828 -0.0441
  799YOPS   PO411936  10.752  16.087   6.302 -0.1430  0.4001 -0.1539
  799YOPS   GL111937  10.625  15.985   6.712 -0.2617  0.2958 -0.1064
  799YOPS   GL211938  10.576  15.687   6.842 -0.0072 -0.0426 -0.0360
  799YOPS   C1A11939  10.704  16.103   7.210 -0.2265 -0.1005  0.2274
  799YOPS   D2A11940  10.726  16.041   7.671  0.1019  0.2603 -0.1140
  799YOPS   C3A11941  10.833  15.793   8.015  0.3081 -0.2304  0.4182
  799YOPS   C4A11942  11.042  15.690   8.342  0.0390 -0.2280 -0.0638
  799YOPS   C1B11943  10.612  15.614   7.284  0.1856  0.1081  0.0399
  799YOPS   C2B11944  10.506  15.547   7.741  0.0456  0.1272 -0.0471
  799YOPS   D3B11945  10.350  15.597   8.132 -0.0699 -0.1793 -0.0635
  799YOPS   C4B11946  10.344  15.651   8.545 -0.1895  0.1011  0.1475
  800YOPS   CNO11947  16.040   5.855   6.548 -0.0495 -0.2628  0.2407
  800YOPS   PO411948  16.091   5.419   6.518 -0.1757  0.3280  0.4215
  800YOPS   GL111949  15.969   5.363   6.910  0.0223  0.2049  0.0430
  800YOPS   GL211950  15.638   5.559   6.897 -0.1741  0.1472 -0.1494
  800YOPS   C1A11951  15.857   5.311   7.297  0.3951  0.2261  0.1592
  800YOPS   D2A11952  15.827   5.395   7.740  0.0935 -0.2669 -0.0366
  800YOPS   C3A11953  15.767   5.542   8.081 -0.2379 -0.2582  0.0041
  800YOPS   C4A11954  15.997   5.619   8.541 -0.0378  0.1542 -0.2157
  800YOPS   C1B11955  15.370   5.504   7.323 -0.3205 -0.1399  0.1483
  800YOPS   C2B11956  15.236   5.619   7.819 -0.1011 -0.1945 -0.0739
  800YOPS   D3B11957  15.157   5.462   8.302  0.1233 -0.4139  0.0352
  800YOPS   C4B11958  15.553   5.336   8.474 -0.2361  0.0669 -0.2214
  801POPE   NH311959  13.378  11.597   6.177 -0.1281  0.1874  0.0347
  801POPE   PO411960  12.940  11.346   6.090  0.5673  0.0568 -0.0547
  801POPE   GL111961  12.888  11.340   6.541  0.0441  0.2022  0.1637
  801POPE   GL211962  12.641  11.177   6.652  0.0907  0.2721 -0.0696
  801POPE   C1A11963  12.859  11.489   6.915 -0.1739  0.1641 -0.1775
  801POPE   D2A11964  12.878  11.901   7.077  0.2832  0.2572  0.0572
  801POPE   C3A11965  12.858  11.942   7.558  0.0596 -0.1376 -0.2225
  801POPE   C4A11966  12.796  12.193   7.956 -0.1829 -0.0358 -0.0005
  801POPE   C1B11967  12.368  11.170   6.957 -0.0158  0.1761 -0.1841
  801POPE   C2B11968  12.383  11.169   7.370  0.1099 -0.1288 -0.1948
  801POPE   C3B11969  12.361  11.327   7.791 -0.0444  0.1326  0.3009
  801POPE   C4B11970  12.121  11.531   8.045  0.4229  0.1118 -0.0423
  802POPE   NH311971   7.777   3.674   6.370  0.2142 -0.3845 -0.2249
  802POPE   PO411972   7.446   3.967   6.502 -0.2766  0.2575  0.1186
  802POPE   GL111973   7.433   4.148   6.908 -0.0164 -0.0298 -0.2279
  802POPE   GL211974   7.488   4.468   6.770 -0.0412  0.1439  0.1691
  802POPE   C1A11975   7.418   4.193   7.354 -0.0998  0.1188  0.0985
  802POPE   D2A11976   7.419   3.955   7.656  0.0013 -0.1646  0.0492
  802POPE   C3A11977   7.425   4.003   8.072 -0.0385  0.0399  0.2161
  802POPE   C4A11978   7.402   4.029   8.566 -0.0157 -0.0545  0.2165
  802POPE   C1B11979   7.684   4.578   7.150  0.0295  0.0428  0.0108
  802POPE   C2B11980   7.585   4.744   7.624 -0.5933 -0.2152  0.3080
  802POPE   C3B11981   7.570   5.060   7.968  0.2626 -0.2357  0.1456
  802POPE   C4B11982   7.452   5.410   7.609 -0.1075 -0.2804 -0.2621
  803POPE   NH311983   0.720  14.942   6.394  0.0936 -0.3556  0.0044
  803POPE   PO411984   0.801  14.469   6.401  0.1755  0.3676  0.0379
  803POPE   GL111985   0.696  14.470   6.744 -0.0477 -0.2914  0.0680
  803POPE   GL211986   0.922  14.300   6.899 -0.1790  0.0944  0.0525
  803POPE   C1A11987   0.381  14.623   6.990 -0.1511  0.3717 -0.3029
  803POPE   D2A11988   0.349  14.776   7.369  0.0091 -0.0285  0.0549
  803POPE   C3A11989   0.520  14.550   7.712  0.4009 -0.1987  0.3917
  803POPE   C4A11990   0.711  14.733   8.071 -0.0433  0.0653 -0.2098
  803POPE   C1B11991   0.912  14.470   7.331 -0.1836  0.2105 -0.0002
  803POPE   C2B11992   1.029  14.553   7.701 -0.1082 -0.1213 -0.0616
  803POPE   C3B11993   1.282  14.587   7.919 -0.3694 -0.2084  0.0634
  803POPE   C4B11994   1.425  14.385   8.262 -0.0522 -0.1259 -0.0087
  804POPE   NH311995   7.256   0.985   6.664  0.0588 -0.3009  0.2001
  804POPE   PO411996   7.018   0.675   6.731  0.0448  0.0026 -0.1776
  804POPE   GL111997   7.149   0.702   7.109 -0.2165  0.1615  0.0652
  804POPE   GL211998   7.472   0.577   7.083  0.0263  0.0999 -0.2521
  804POPE   C1A11999   7.322   0.876   7.536 -0.0567  0.2601  0.0341
  804POPE   D2A12000   7.539   0.907   7.805 -0.0133  0.3193  0.0838
  804POPE   C3A12001   7.682   0.803   8.207 -0.0433  0.0506  0.0236
  804POPE   C4A12002   8.006   0.862   8.500  0.1604  0.3055  0.3249
  804POPE   C1B12003   7.431   0.357   7.454  0.1246 -0.0666  0.2966
  804POPE   C2B12004   7.470   0.102   7.838 -0.1764 -0.0844  0.0467
  804POPE   C3B12005   7.321   0.039   8.221 -0.2511  0.3426  0.3058
  804POPE   C4B12006   7.029   0.085   8.494  0.0359  0.1873 -0.1662
  805POPE   NH312007   0.090   9.997   6.584 -0.0824 -0.3702  0.3433
  805POPE   PO412008  -0.189  10.334   6.472  0.1022 -0.0771 -0.3958
  805POPE   GL112009  -0.091  10.539   6.826  0.2503 -0.0049  0.1047
  805POPE   GL212010  -0.110  10.222   6.964  0.1811  0.0362 -0.1905
  805POPE   C1A12011  -0.359  10.581   7.198 -0.2584  0.3644 -0.3198
  805POPE   D2A12012  -0.466  10.739   7.616  0.0858 -0.0165  0.2743
  805POPE   C3A12013  -0.118  10.651   8.001 -0.0426  0.4329 -0.0504
  805POPE   C4A12014   0.041  10.370   8.239  0.0541  0.0766  0.1702
  805POPE   C1B12015  -0.619  10.235   6.987  0.1060  0.2382 -0.3253
  805POPE   C2B12016  -0.968  10.395   7.143 -0.3445  0.0841  0.0368
  805POPE   C3B12017  -1.006  10.497   7.534  0.0317 -0.1804  0.1045
  805POPE   C4B12018  -0.943  10.708   7.907  0.0871  0.3509 -0.0005
  806POPE   NH312019   1.929  16.856   6.649  0.0747  0.1199 -0.0144
  806POPE   PO412020   1.888  17.248   6.646 -0.2192 -0.2559  0.1691
  806POPE   GL112021   2.008  17.217   7.032 -0.0240 -0.0599  0.0588
  806POPE   GL212022   2.233  17.446   7.041  0.5181  0.2298  0.0399
  806POPE   C1A12023   1.945  17.096   7.421 -0.2269  0.1093 -0.1127
  806POPE   D2A12024   1.937  16.793   7.667 -0.0493 -0.1062  0.1443
  806POPE   C3A12025   2.187  16.812   7.972 -0.0026  0.1447 -0.2309
  806POPE   C4A12026   2.374  16.802   8.252 -0.1292 -0.1479 -0.0896
  806POPE   C1B12027   2.401  17.379   7.399  0.0643 -0.0022  0.1315
  806POPE   C2B12028   2.124  17.288   7.822  0.0494 -0.0357  0.0169
  806POPE   C3B12029   1.783  17.544   8.115  0.0200  0.1630 -0.0615
  806POPE   C4B12030   1.735  17.424   8.561  0.0822  0.0604 -0.0812
  807POPE   NH312031  15.466  13.777   6.651  0.0147 -0.1034 -0.3862
  807POPE   PO412032  14.996  13.711   6.629  0.3961 -0.1005 -0.3690
  807POPE   GL112033  14.726  13.649   6.896 -0.2917  0.0117  0.1956
  807POPE   GL212034  14.427  13.634   6.922 -0.2550 -0.0923  0.1271
  807POPE   C1A12035  14.768  13.540   7.339 -0.1183 -0.0459  0.2213
  807POPE   D2A12036  14.562  13.665   7.705 -0.2343  0.0650 -0.2841
  807POPE   C3A12037  14.688  13.656   8.118 -0.2219  0.0673  0.1601
  807POPE   C4A12038  14.777  13.674   8.600 -0.0562  0.1261 -0.1468
  807POPE   C1B12039  14.240  13.674   7.295 -0.4475 -0.2079  0.1880
  807POPE   C2B12040  14.082  13.554   7.740 -0.0250 -0.2063 -0.1460
  807POPE   C3B12041  13.949  13.288   8.096 -0.2074 -0.2250 -0.3432
  807POPE   C4B12042  14.088  13.043   8.467  0.1296 -0.0220 -0.0056
  808POPE   NH312043   1.812  13.244   6.636  0.3231 -0.0329  0.0241
  808POPE   PO412044   1.454  13.522   6.487 -0.2613  0.1632  0.0952
  808POPE   GL112045   1.587  13.499   7.015 -0.1345 -0.0715 -0.0692
  808POPE   GL212046   1.955  13.617   7.145  0.0506 -0.1380  0.2497
  808POPE   C1A12047   1.478  13.689   7.298  0.0523  0.1875  0.0166
  808POPE   D2A12048   1.499  13.615   7.699  0.2325 -0.1345 -0.0573
  808POPE   C3A12049   1.414  13.393   7.992  0.2747  0.1348 -0.1044
  808POPE   C4A12050   1.726  13.262   8.310  0.0556  0.0753  0.0470
  808POPE   C1B12051   2.007  13.649   7.517  0.0316  0.0678  0.0861
  808POPE   C2B12052   1.940  13.640   7.941 -0.0851 -0.1097  0.0859
  808POPE   C3B12053   2.275  13.666   8.254 -0.1691  0.0796 -0.0765
  808POPE   C4B12054   2.324  13.840   8.582  0.0136 -0.2967  0.0891
  809POPE   NH312055   1.542  12.485   6.430  0.1737  0.1634  0.1078
  809POPE   PO412056   1.667  12.779   6.579  0.3128  0.0685 -0.0321
  809POPE   GL112057   1.819  12.803   7.044 -0.0749  0.1675 -0.1693
  809POPE   GL212058   1.854  13.071   7.180  0.3673 -0.2408  0.1791
  809POPE   C1A12059   2.057  12.753   7.582 -0.1552  0.2318 -0.0055
  809POPE   D2A12060   2.379  12.683   7.927  0.1284  0.2147 -0.0514
  809POPE   C3A12061   2.308  12.770   8.321  0.1844 -0.0007  0.2003
  809POPE   C4A12062   2.141  12.739   8.679 -0.0687  0.0217 -0.2319
  809POPE   C1B12063   1.791  13.199   7.547 -0.1623  0.0386  0.0456
  809POPE   C2B12064   1.584  12.885   7.845 -0.0455  0.1043 -0.0306
  809POPE   C3B12065   1.308  12.929   8.110 -0.1776  0.0407 -0.0198
  809POPE   C4B12066   1.046  13.226   8.406  0.0625 -0.1577  0.3427
  810POPE   NH312067   3.580   2.287   6.449  0.1942  0.0214  0.2043
  810POPE   PO412068   3.381   1.836   6.362  0.1826 -0.0315 -0.1500
  810POPE   GL112069   3.145   1.896   6.751 -0.0714 -0.0429 -0.3773
  810POPE   GL212070   3.360   2.146   6.945 -0.0384 -0.0945  0.0936
  810POPE   C1A12071   3.196   1.783   7.266 -0.1500  0.2005 -0.0615
  810POPE   D2A12072   2.925   1.858   7.630 -0.0125 -0.1985 -0.0099
  810POPE   C3A12073   3.038   2.157   7.953 -0.1315 -0.0148 -0.1488
  810POPE   C4A12074   3.436   2.303   8.139 -0.2564 -0.0138  0.1894
  810POPE   C1B12075   3.524   2.191   7.438  0.0420 -0.3142 -0.1144
  810POPE   C2B12076   3.474   1.913   7.745 -0.2276 -0.1611  0.0832
  810POPE   C3B12077   3.763   1.970   8.102  0.0708 -0.0666  0.1217
  810POPE   C4B12078   3.832   1.924   8.543  0.0256 -0.0550  0.2668
  811POPE   NH312079  13.195  14.032   6.325  0.0155 -0.0440 -0.3328
  811POPE   PO412080  13.341  14.522   6.135  0.3009 -0.1108  0.0666
  811POPE   GL112081  13.631  14.564   6.376  0.1822 -0.0220  0.1219
  811POPE   GL212082  13.625  14.211   6.568 -0.3085  0.0815 -0.1381
  811POPE   C1A12083  13.741  14.550   6.861  0.2576  0.0009 -0.0160
  811POPE   D2A12084  14.018  14.450   7.215  0.3586  0.0393 -0.4359
  811POPE   C3A12085  13.838  14.486   7.574 -0.2107 -0.0719  0.1932
  811POPE   C4A12086  13.872  14.488   8.067 -0.0923  0.2034 -0.0749
  811POPE   C1B12087  13.357  14.242   7.008  0.1298 -0.2460  0.1643
  811POPE   C2B12088  13.371  14.331   7.389  0.0916  0.0026 -0.0741
  811POPE   C3B12089  13.387  14.538   7.737  0.1744 -0.4194  0.4144
  811POPE   C4B12090  13.492  14.759   8.056  0.1196  0.0082  0.2291
  812POPE   NH312091  14.784  14.149   6.354 -0.1675  0.1381 -0.0476
  812POPE   PO412092  14.481  13.731   6.422 -0.3200  0.2107 -0.0855
  812POPE   GL112093  14.494  14.102   6.784  0.0600  0.0033 -0.2220
  812POPE   GL212094  14.183  14.217   6.777  0.0132  0.0089  0.0340
  812POPE   C1A12095  14.492  14.454   7.083 -0.2509  0.0085 -0.1204
  812POPE   D2A12096  14.333  14.772   7.370  0.1198  0.1666  0.5006
  812POPE   C3A12097  14.434  14.902   7.628 -0.3302  0.0953  0.1268
  812POPE   C4A12098  14.489  14.626   7.991 -0.2562 -0.1468  0.2888
  812POPE   C1B12099  13.798  14.003   6.981  0.0511  0.3570 -0.0669
  812POPE   C2B12100  13.833  13.976   7.441  0.0355 -0.1111 -0.0052
  812POPE   C3B12101  13.845  13.983   7.883  0.0933 -0.1307 -0.1209
  812POPE   C4B12102  13.467  14.181   8.231 -0.0600  0.2539  0.0411
  813POPE   NH312103  15.963   8.718   6.261 -0.0711  0.2337 -0.2574
  813POPE   PO412104  16.248   8.602   6.559 -0.0494 -0.1561 -0.2954
  813POPE   GL112105  15.978   8.839   6.831  0.0287  0.1446 -0.1770
  813POPE   GL212106  16.179   8.660   7.033  0.3414  0.1675 -0.2645
  813POPE   C1A12107  15.925   9.028   7.301  0.0076 -0.3450 -0.3557
  813POPE   D2A12108  16.002   9.295   7.705 -0.0807 -0.0942  0.0963
  813POPE   C3A12109  15.795   9.463   8.023  0.1524  0.0368  0.1706
  813POPE   C4A12110  15.554   9.823   8.227 -0.1000 -0.0355  0.3782
  813POPE   C1B12111  16.318   8.695   7.350  0.0074 -0.1454  0.0233
  813POPE   C2B12112  16.157   8.712   7.731 -0.0977  0.0279 -0.0937
  813POPE   C3B12113  16.388   8.528   7.976  0.1015  0.2580 -0.2194
  813POPE   C4B12114  16.661   8.259   8.317 -0.0841 -0.1008  0.3190
  814POPE   NH312115  15.452   2.510   6.593  0.0180  0.1313  0.1702
  814POPE   PO412116  15.120   2.698   6.564 -0.1607  0.1508  0.2063
  814POPE   GL112117  15.033   2.491   6.931 -0.1722  0.0947  0.0404
  814POPE   GL212118  15.218   2.314   7.056 -0.0085 -0.2205  0.0862
  814POPE   C1A12119  14.827   2.627   7.367 -0.0064  0.3085  0.1109
  814POPE   D2A12120  14.673   2.456   7.762  0.1531  0.1773 -0.0414
  814POPE   C3A12121  14.732   2.432   8.171 -0.2093 -0.2154 -0.1618
  814POPE   C4A12122  15.126   2.466   8.393  0.1224 -0.2196 -0.3547
  814POPE   C1B12123  15.050   2.203   7.436  0.1327 -0.1584 -0.1421
  814POPE   C2B12124  14.945   2.054   7.852  0.1056 -0.0015 -0.1325
  814POPE   C3B12125  14.711   1.712   7.984 -0.3957 -0.0119 -0.0152
  814POPE   C4B12126  14.351   1.298   7.949 -0.0300 -0.0075  0.0187
  815POPE   NH312127   2.257  10.055   6.642  0.0059 -0.1195 -0.4727
  815POPE   PO412128   2.680  10.083   6.598 -0.2268  0.1213  0.0781
  815POPE   GL112129   2.576   9.930   7.038  0.1425  0.1592 -0.1151
  815POPE   GL212130   2.648   9.642   6.971 -0.1542  0.0214 -0.1918
  815POPE   C1A12131   2.642   9.971   7.519  0.1841  0.1373  0.2948
  815POPE   D2A12132   2.446  10.198   7.852 -0.1694 -0.1201 -0.2642
  815POPE   C3A12133   2.216  10.180   8.245  0.1289  0.0531 -0.0067
  815POPE   C4A12134   1.935  10.387   8.537 -0.2515  0.2036 -0.5127
  815POPE   C1B12135   2.857   9.520   7.287  0.4234 -0.0478 -0.0870
  815POPE   C2B12136   2.902   9.225   7.692  0.0792 -0.1258  0.0892
  815POPE   C3B12137   2.821   9.325   7.957 -0.1767 -0.2011 -0.1669
  815POPE   C4B12138   2.931   9.450   8.291 -0.0360  0.3764 -0.0417
  816POPE   NH312139   7.417  13.026   6.049  0.0626 -0.4394 -0.4260
  816POPE   PO412140   7.076  12.798   6.111 -0.0645  0.6142 -0.1406
  816POPE   GL112141   7.132  12.787   6.568  0.1436  0.0296 -0.1944
  816POPE   GL212142   6.744  12.696   6.746  0.3175  0.1644 -0.0549
  816POPE   C1A12143   7.440  12.703   6.898  0.0537 -0.1512  0.0513
  816POPE   D2A12144   7.639  12.640   7.368  0.3135 -0.3127 -0.3086
  816POPE   C3A12145   7.274  12.682   7.727 -0.0032  0.0506 -0.0975
  816POPE   C4A12146   7.316  12.598   8.181 -0.3442 -0.4074  0.0889
  816POPE   C1B12147   6.947  12.873   7.018  0.1112  0.0545  0.1596
  816POPE   C2B12148   6.978  12.997   7.416 -0.1021  0.1081 -0.0172
  816POPE   C3B12149   6.972  13.111   7.740  0.1826 -0.1310 -0.2938
  816POPE   C4B12150   7.070  13.036   8.085  0.1467  0.1957 -0.1117
  817POPE   NH312151  11.070   8.189   5.679  0.0488  0.1422  0.0886
  817POPE   PO412152  11.222   8.558   5.880 -0.1516  0.2609 -0.0823
  817POPE   GL112153  11.181   8.652   6.348  0.2705 -0.0323  0.2441
  817POPE   GL212154  11.536   8.557   6.466 -0.2086  0.0001 -0.0906
  817POPE   C1A12155  10.881   8.602   6.637  0.1132  0.0985  0.2524
  817POPE   D2A12156  10.593   8.788   6.845  0.1439  0.3488  0.1656
  817POPE   C3A12157  10.487   8.874   7.207  0.1773 -0.4254  0.0229
  817POPE   C4A12158  10.375   8.646   7.640 -0.1047  0.3068 -0.2192
  817POPE   C1B12159  11.337   8.590   6.888 -0.0701 -0.2965  0.0891
  817POPE   C2B12160  10.941   8.607   7.114  0.0438  0.2118 -0.3471
  817POPE   C3B12161  10.819   8.670   7.463  0.0522  0.2393  0.0581
  817POPE   C4B12162  10.866   8.479   7.874  0.1668 -0.0961 -0.3234
  818POPE   NH312163   2.119  14.294   6.547 -0.1466 -0.1947  0.2443
  818POPE   PO412164   1.775  14.254   6.367  0.0449 -0.1541  0.0210
  818POPE   GL112165   1.726  14.506   6.812 -0.0072 -0.0891  0.0336
  818POPE   GL212166   2.032  14.691   6.914 -0.0559 -0.1172 -0.1584
  818POPE   C1A12167   1.751  14.404   7.278  0.1186  0.1676 -0.3793
  818POPE   D2A12168   1.795  14.595   7.685 -0.1400  0.0079  0.2567
  818POPE   C3A12169   2.073  14.747   8.024 -0.0350 -0.3312  0.0405
  818POPE   C4A12170   2.365  14.666   8.346  0.2819 -0.1102  0.0913
  818POPE   C1B12171   1.866  14.940   7.332  0.0559  0.0221  0.1663
  818POPE   C2B12172   2.070  15.209   7.655  0.0225 -0.4892  0.1356
  818POPE   C3B12173   2.420  15.222   8.008 -0.0052  0.3355  0.0864
  818POPE   C4B12174   2.491  15.281   8.519 -0.1279  0.0697 -0.1774
  819POPE   NH312175  13.705   9.872   6.008  0.1181  0.1400 -0.0947
  819POPE   PO412176  13.380   9.655   5.961  0.1238 -0.0419 -0.1867
  819POPE   GL112177  13.218   9.833   6.371  0.2380  0.1697 -0.1653
  819POPE   GL212178  13.526  10.021   6.460 -0.1762 -0.0406  0.0828
  819POPE   C1A12179  13.088   9.983   6.727 -0.2367 -0.1037  0.0811
  819POPE   D2A12180  12.944   9.903   7.062 -0.0209 -0.1394  0.1553
  819POPE   C3A12181  13.022   9.838   7.476  0.3170  0.1085  0.0090
  819POPE   C4A12182  13.061   9.883   7.850  0.0544  0.1667 -0.2015
  819POPE   C1B12183  13.513  10.231   6.830 -0.2184 -0.1611 -0.0156
  819POPE   C2B12184  13.371  10.160   7.322  0.3317 -0.1679  0.0210
  819POPE   C3B12185  13.455  10.190   7.831  0.1315  0.1781  0.1200
  819POPE   C4B12186  13.410  10.391   8.219 -0.2889  0.0463 -0.0245
  820POPE   NH312187   1.688   7.324   6.501  0.1115  0.1703 -0.0458
  820POPE   PO412188   1.667   7.656   6.731  0.4285 -0.1222  0.0424
  820POPE   GL112189   1.579   7.757   7.240  0.2224 -0.0818  0.0968
  820POPE   GL212190   1.918   7.723   7.273 -0.0892  0.1435 -0.2484
  820POPE   C1A12191   1.564   7.850   7.695  0.2594 -0.0076  0.1468
  820POPE   D2A12192   1.592   7.848   8.085  0.0718 -0.3086 -0.2342
  820POPE   C3A12193   1.779   8.161   8.374 -0.0508 -0.1834 -0.2120
  820POPE   C4A12194   1.999   8.535   8.556  0.1083  0.1884 -0.3337
  820POPE   C1B12195   1.990   7.634   7.651 -0.1832 -0.0794 -0.2563
  820POPE   C2B12196   2.076   7.799   8.014 -0.2464  0.1785 -0.0527
  820POPE   C3B12197   2.418   8.018   8.116 -0.1676  0.1169  0.2482
  820POPE   C4B12198   2.736   8.203   8.035  0.0387  0.3158 -0.0868
  821POPE   NH312199   3.237   5.423   6.888 -0.0787 -0.2125  0.0545
  821POPE   PO412200   3.362   4.911   6.909  0.0868 -0.3740 -0.0411
  821POPE   GL112201   3.109   4.781   7.201  0.0492 -0.0416  0.0842
  821POPE   GL212202   2.757   4.690   7.216 -0.0295  0.2211  0.3391
  821POPE   C1A12203   3.132   4.717   7.703  0.2144  0.0012 -0.0421
  821POPE   D2A12204   3.041   4.561   8.160 -0.2407 -0.1526 -0.1896
  821POPE   C3A12205   3.207   4.242   8.357 -0.1686 -0.0274 -0.1333
  821POPE   C4A12206   3.318   3.873   8.623  0.1177 -0.4811  0.1414
  821POPE   C1B12207   2.601   4.507   7.560  0.1388  0.0368 -0.0494
  821POPE   C2B12208   2.575   4.504   7.943  0.1054 -0.0367  0.0645
  821POPE   C3B12209   2.610   4.389   8.417 -0.0777 -0.0774  0.3044
  821POPE   C4B12210   2.429   4.196   8.853 -0.3025  0.2383  0.0852
  822POPE   NH312211   6.638   3.743   6.440 -0.0312  0.1357  0.1989
  822POPE   PO412212   6.757   4.182   6.343 -0.0773 -0.1801  0.1597
  822POPE   GL112213   6.886   4.467   6.664 -0.0425  0.1426 -0.0350
  822POPE   GL212214   6.644   4.640   6.798 -0.0747  0.1711 -0.1702
  822POPE   C1A12215   7.083   4.431   7.075  0.0765 -0.1900 -0.0909
  822POPE   D2A12216   7.088   4.433   7.610 -0.5625 -0.3280  0.0217
  822POPE   C3A12217   7.003   4.186   7.913 -0.1085  0.1643  0.1230
  822POPE   C4A12218   6.904   4.033   8.301 -0.2232  0.0415  0.1488
  822POPE   C1B12219   6.649   4.248   7.086 -0.0392  0.0973 -0.1646
  822POPE   C2B12220   6.553   4.225   7.525 -0.1975  0.2479 -0.0590
  822POPE   C3B12221   6.554   4.006   7.886  0.1183  0.0246 -0.1190
  822POPE   C4B12222   6.506   3.782   8.280  0.1694 -0.1694 -0.0164
  823POPE   NH312223  10.734  15.135   6.065 -0.0910 -0.1414 -0.0416
  823POPE   PO412224  10.827  14.750   5.969  0.2172 -0.0091  0.0516
  823POPE   GL112225  10.968  14.891   6.443  0.0765 -0.0476  0.0103
  823POPE   GL212226  10.999  14.560   6.574 -0.2618 -0.0916  0.0198
  823POPE   C1A12227  10.704  14.836   6.810  0.1872 -0.3749  0.0282
  823POPE   D2A12228  10.513  14.770   7.210  0.2169  0.1234 -0.1099
  823POPE   C3A12229  10.823  14.567   7.493  0.0178  0.1118 -0.1710
  823POPE   C4A12230  10.862  14.380   7.980 -0.2949 -0.1651  0.3889
  823POPE   C1B12231  11.456  14.559   6.821  0.0453 -0.0977 -0.0012
  823POPE   C2B12232  11.778  14.442   7.149 -0.0104 -0.1821 -0.1008
  823POPE   C3B12233  11.706  14.423   7.615  0.1610  0.0996  0.2079
  823POPE   C4B12234  11.657  14.150   7.969  0.1118 -0.3037 -0.1919
  824POPE   NH312235   6.470  11.752   5.882  0.0608 -0.0329  0.0138
  824POPE   PO412236   6.201  11.988   6.235 -0.3528  0.4791 -0.2601
  824POPE   GL112237   6.051  11.782   6.558 -0.0370  0.0458  0.1261
  824POPE   GL212238   5.717  11.664   6.691 -0.0376  0.1873 -0.4814
  824POPE   C1A12239   6.136  11.903   6.935  0.2361 -0.1192 -0.3045
  824POPE   D2A12240   6.141  11.849   7.410  0.1119 -0.2792  0.2166
  824POPE   C3A12241   6.044  12.089   7.797  0.0761  0.3903 -0.0911
  824POPE   C4A12242   5.945  12.376   8.149  0.0438 -0.2012 -0.2100
  824POPE   C1B12243   5.682  11.811   7.089  0.0227  0.0840 -0.2972
  824POPE   C2B12244   5.700  11.748   7.586  0.0481  0.2524 -0.0759
  824POPE   C3B12245   5.497  12.084   7.844 -0.1708  0.0038 -0.0231
  824POPE   C4B12246   5.514  12.145   8.236  0.2522  0.2336 -0.0200
  825POPE   NH312247   3.627   3.483   6.468  0.0867  0.0514  0.0156
  825POPE   PO412248   3.875   3.819   6.365 -0.0098 -0.0521  0.2160
  825POPE   GL112249   4.000   3.870   6.846  0.3441 -0.0930  0.1309
  825POPE   GL212250   3.740   4.048   6.964 -0.1452  0.2235  0.0780
  825POPE   C1A12251   4.255   3.798   7.089  0.1459 -0.0649 -0.1939
  825POPE   D2A12252   4.209   3.824   7.530 -0.1310 -0.4373  0.1293
  825POPE   C3A12253   4.535   3.626   7.893  0.2113 -0.0251 -0.0376
  825POPE   C4A12254   5.069   3.528   8.095  0.1625 -0.0073 -0.2393
  825POPE   C1B12255   3.726   4.083   7.383  0.2761 -0.1080  0.0773
  825POPE   C2B12256   3.911   4.159   7.762 -0.1282 -0.4748  0.3100
  825POPE   C3B12257   3.921   4.062   8.235  0.1340  0.0425  0.4488
  825POPE   C4B12258   3.811   4.093   8.625 -0.1022 -0.0668 -0.1776
  826POPE   NH312259  13.105  10.951   6.390 -0.0112  0.2426 -0.0956
  826POPE   PO412260  13.536  11.123   6.288 -0.1275  0.0056  0.0942
  826POPE   GL112261  13.512  10.891   6.619  0.0790  0.0092 -0.2124
  826POPE   GL212262  13.672  10.696   6.639 -0.2465  0.1342 -0.1948
  826POPE   C1A12263  13.433  10.711   7.108  0.0585  0.1645 -0.0282
  826POPE   D2A12264  13.335  10.607   7.523  0.1985  0.3429  0.4244
  826POPE   C3A12265  12.946  10.369   7.800 -0.0053 -0.2408 -0.0687
  826POPE   C4A12266  12.781  10.295   8.191  0.1100  0.1546 -0.5654
  826POPE   C1B12267  13.883  10.568   6.871 -0.0461 -0.3496 -0.2254
  826POPE   C2B12268  13.913  10.465   7.328 -0.0891 -0.4739 -0.1865
  826POPE   C3B12269  13.977  10.449   7.761 -0.0349  0.0974 -0.2974
  826POPE   C4B12270  13.791  10.699   8.065  0.3024 -0.1447 -0.4739
  827POPE   NH312271   4.249  15.083   6.262  0.0248 -0.0759 -0.0337
  827POPE   PO412272   3.910  15.297   6.287  0.1486  0.3899  0.0164
  827POPE   GL112273   4.111  15.529   6.628 -0.1883  0.2166  0.2368
  827POPE   GL212274   3.820  15.671   6.761  0.2012 -0.1202  0.1289
  827POPE   C1A12275   4.225  15.590   7.131  0.0893 -0.1086  0.2809
  827POPE   D2A12276   4.093  15.636   7.625 -0.0716  0.0257  0.0349
  827POPE   C3A12277   4.324  15.526   8.036  0.0006  0.2379 -0.0828
  827POPE   C4A12278   4.429  15.862   8.346 -0.1792 -0.0536  0.2418
  827POPE   C1B12279   3.708  15.561   7.211 -0.3079 -0.0360  0.1439
  827POPE   C2B12280   3.607  15.535   7.628 -0.2812  0.3887  0.1659
  827POPE   C3B12281   3.769  15.489   8.009  0.1349  0.2528 -0.1611
  827POPE   C4B12282   3.666  15.080   8.040 -0.0775  0.0816 -0.1084
  828POPE   NH312283   2.882   0.496   6.616  0.1169  0.1793  0.0581
  828POPE   PO412284   3.064   0.096   6.736 -0.0775 -0.0386  0.2322
  828POPE   GL112285   3.235  -0.104   7.127 -0.0705  0.2458 -0.1093
  828POPE   GL212286   3.376   0.116   7.093  0.1015  0.0949 -0.2741
  828POPE   C1A12287   3.259  -0.259   7.550  0.2065  0.0826 -0.1741
  828POPE   D2A12288   3.263  -0.355   7.936 -0.1844  0.2438 -0.3061
  828POPE   C3A12289   3.346  -0.491   8.192 -0.1624  0.0386 -0.1957
  828POPE   C4A12290   3.182  -0.606   8.569 -0.0514  0.0924  0.2066
  828POPE   C1B12291   3.415   0.155   7.542  0.2948 -0.1985 -0.0385
  828POPE   C2B12292   3.425   0.093   7.936 -0.2738  0.1896  0.4186
  828POPE   C3B12293   3.328   0.056   8.265 -0.0617  0.1976  0.0128
  828POPE   C4B12294   3.529  -0.240   8.647  0.2292 -0.0177 -0.1103
  829POPE   NH312295   3.834  17.111   6.319 -0.2685  0.1154 -0.0449
  829POPE   PO412296   3.951  17.461   6.429  0.1016 -0.1396 -0.1526
  829POPE   GL112297   4.005  17.669   6.843  0.2329  0.0118 -0.0043
  829POPE   GL212298   4.349  17.567   6.910  0.3678 -0.1289  0.0837
  829POPE   C1A12299   3.896  17.907   7.284 -0.1411  0.1491  0.3809
  829POPE   D2A12300   3.927  17.900   7.761  0.2886 -0.1122  0.2268
  829POPE   C3A12301   4.169  18.170   7.961  0.0617 -0.0305 -0.1383
  829POPE   C4A12302   4.266  17.907   8.367  0.1897  0.1839  0.0155
  829POPE   C1B12303   4.289  17.549   7.334 -0.0943 -0.1433 -0.2434
  829POPE   C2B12304   4.401  17.648   7.756  0.0313 -0.1149  0.1192
  829POPE   C3B12305   4.553  17.593   8.137  0.2075 -0.0670  0.1391
  829POPE   C4B12306   4.620  17.684   8.598  0.0922  0.0134  0.1376
  830POPE   NH312307  12.638  16.201   5.889  0.1238  0.0393 -0.1296
  830POPE   PO412308  12.758  16.696   6.052  0.0190  0.0881 -0.2390
  830POPE   GL112309  12.548  16.795   6.452  0.1054 -0.1129 -0.3541
  830POPE   GL212310  12.152  16.771   6.514  0.1034  0.3713  0.0155
  830POPE   C1A12311  12.594  16.610   6.777 -0.0124 -0.1419 -0.2009
  830POPE   D2A12312  12.792  16.690   7.192 -0.1175 -0.3825 -0.0351
  830POPE   C3A12313  12.731  16.587   7.517 -0.0834  0.0492  0.0111
  830POPE   C4A12314  12.847  16.678   7.812  0.1227  0.3802 -0.2210
  830POPE   C1B12315  12.093  16.625   6.952 -0.1381  0.3456 -0.1978
  830POPE   C2B12316  12.318  16.395   7.232 -0.3903  0.0589 -0.1776
  830POPE   C3B12317  12.241  16.129   7.589 -0.1919 -0.5620  0.0626
  830POPE   C4B12318  12.055  16.012   7.961  0.0361  0.1307 -0.2837
  831YOPE   NH312319   3.107   1.369   6.631  0.1036 -0.2299  0.0062
  831YOPE   PO412320   2.883   0.989   6.842 -0.0745  0.0848 -0.3587
  831YOPE   GL112321   3.181   1.075   7.118  0.2100  0.0189 -0.3042
  831YOPE   GL212322   3.419   1.315   7.090 -0.2358  0.1493  0.1006
  831YOPE   C1A12323   3.469   1.036   7.528  0.0908 -0.1868  0.0386
  831YOPE   D2A12324   3.486   1.018   7.944  0.0340  0.4368 -0.4130
  831YOPE   C3A12325   3.701   0.896   8.290 -0.1753 -0.2150 -0.0225
  831YOPE   C4A12326   3.798   1.089   8.629 -0.1908  0.0056 -0.0954
  831YOPE   C1B12327   3.575   1.503   7.421  0.3835  0.2489 -0.0514
  831YOPE   C2B12328   3.703   1.431   7.923 -0.4323  0.0675  0.2388
  831YOPE   D3B12329   3.626   1.468   8.371  0.3195  0.0664 -0.0507
  831YOPE   C4B12330   3.348   1.502   8.727 -0.2100  0.1182  0.3218
  832YOPE   NH312331   7.796   5.121   5.886 -0.0294 -0.1732 -0.3323
  832YOPE   PO412332   7.776   5.521   6.037 -0.1294  0.0617 -0.1890
  832YOPE   GL112333   8.002   5.822   6.383 -0.2262  0.2898  0.2744
  832YOPE   GL212334   8.246   5.606   6.556 -0.0052 -0.1845 -0.2727
  832YOPE   C1A12335   7.796   6.076   6.760 -0.2628 -0.0361 -0.2745
  832YOPE   D2A12336   7.726   6.248   7.220 -0.2233  0.2735 -0.4653
  832YOPE   C3A12337   7.309   6.292   7.374 -0.1247 -0.0641  0.1826
  832YOPE   C4A12338   7.339   6.436   7.826  0.0663 -0.2175 -0.0495
  832YOPE   C1B12339   8.258   5.926   6.832 -0.0539 -0.0467 -0.2223
  832YOPE   C2B12340   8.238   6.098   7.213  0.2908 -0.0301  0.0748
  832YOPE   D3B12341   8.390   6.164   7.565  0.0846  0.0727 -0.1168
  832YOPE   C4B12342   8.594   6.224   7.880 -0.1595  0.2371  0.0871
  833YOPE   NH312343   9.744  16.710   5.882 -0.1525 -0.3493  0.1453
  833YOPE   PO412344   9.942  16.849   6.313 -0.5309  0.0762  0.2353
  833YOPE   GL112345  10.205  16.816   6.629 -0.0525  0.2698 -0.3003
  833YOPE   GL212346  10.354  17.131   6.562 -0.1584 -0.0932 -0.1888
  833YOPE   C1A12347  10.184  16.805   7.084  0.1084  0.1705  0.1503
  833YOPE   D2A12348  10.039  16.728   7.555 -0.1305 -0.1162 -0.0522
  833YOPE   C3A12349  10.284  16.700   7.874 -0.2030 -0.3927  0.2147
  833YOPE   C4A12350  10.206  16.547   8.314  0.3793  0.0508 -0.1124
  833YOPE   C1B12351  10.493  17.201   6.943  0.1069 -0.0393  0.2157
  833YOPE   C2B12352  10.381  17.116   7.367 -0.1214  0.0440 -0.0085
  833YOPE   D3B12353  10.317  17.274   7.811 -0.1599  0.1501 -0.1487
  833YOPE   C4B12354  10.701  17.304   8.109 -0.0251 -0.0564  0.3354
  834YOPE   NH312355  10.058  14.594   6.166 -0.2366  0.0181 -0.0326
  834YOPE   PO412356  10.238  14.193   6.261  0.2008 -0.1157 -0.0652
  834YOPE   GL112357  10.337  13.998   6.586 -0.0539 -0.1427  0.1306
  834YOPE   GL212358  10.198  13.695   6.608  0.0297 -0.1525 -0.0012
  834YOPE   C1A12359  10.323  13.954   7.059  0.3169  0.2288 -0.0815
  834YOPE   D2A12360  10.657  14.080   7.379 -0.0112  0.0899 -0.0859
  834YOPE   C3A12361  10.529  14.017   7.799  0.1651 -0.2070 -0.2507
  834YOPE   C4A12362  10.478  14.188   8.201  0.0474  0.0863  0.0284
  834YOPE   C1B12363   9.953  13.555   6.937 -0.2164  0.4257  0.1404
  834YOPE   C2B12364   9.995  13.555   7.335  0.1334  0.2016 -0.0042
  834YOPE   D3B12365  10.204  13.566   7.706 -0.1046 -0.0406 -0.2071
  834YOPE   C4B12366  10.278  13.744   8.106  0.2031 -0.1138  0.0713
  835YOPE   NH312367  15.420   1.483   6.606  0.1635  0.0422 -0.0565
  835YOPE   PO412368  15.051   1.478   6.581 -0.0721  0.0841 -0.1907
  835YOPE   GL112369  14.732   1.256   6.721  0.1108  0.2042  0.0238
  835YOPE   GL212370  14.687   1.529   6.942 -0.2923  0.1104 -0.0879
  835YOPE   C1A12371  14.309   1.150   6.724  0.0142 -0.0557  0.3571
  835YOPE   D2A12372  13.912   1.101   6.509  0.1491  0.2383 -0.0231
  835YOPE   C3A12373  13.708   0.785   6.341 -0.0864  0.1265 -0.2962
  835YOPE   C4A12374  13.362   0.538   6.443 -0.0139 -0.0927 -0.1422
  835YOPE   C1B12375  14.287   1.573   7.160 -0.0970 -0.1021  0.0209
  835YOPE   C2B12376  14.034   1.462   7.470 -0.1266 -0.1121 -0.1427
  835YOPE   D3B12377  13.894   1.427   7.809  0.0009  0.0497  0.0237
  835YOPE   C4B12378  13.485   1.408   7.958  0.0186  0.0035  0.0889
  836YOPE   NH312379   9.668   9.866   5.749 -0.2454 -0.0985  0.4558
  836YOPE   PO412380   9.298   9.727   5.906  0.0228  0.3941 -0.0851
  836YOPE   GL112381   9.507   9.817   6.218 -0.0840 -0.0026 -0.1214
  836YOPE   GL212382   9.818   9.794   6.191 -0.1880 -0.2944  0.1196
  836YOPE   C1A12383   9.637  10.135   6.521 -0.1799 -0.0035  0.0328
  836YOPE   D2A12384   9.766  10.210   6.834 -0.1209 -0.0418 -0.3606
  836YOPE   C3A12385  10.044  10.075   7.044 -0.2678  0.1051  0.0662
  836YOPE   C4A12386  10.431   9.927   7.010  0.1110 -0.1352 -0.2959
  836YOPE   C1B12387   9.840   9.569   6.642  0.0204 -0.0204  0.3674
  836YOPE   C2B12388  10.025   9.552   7.040  0.0620  0.1361  0.1762
  836YOPE   D3B12389  10.190   9.686   7.508 -0.0707 -0.2184 -0.2010
  836YOPE   C4B12390  10.186  10.112   7.505 -0.1740 -0.1496 -0.1074
  837YOPE   NH312391  12.325   0.132   6.189  0.3569  0.0744 -0.0987
  837YOPE   PO412392  12.726   0.044   6.224  0.4015  0.2227 -0.1035
  837YOPE   GL112393  12.980  -0.074   6.417  0.0765  0.1236 -0.2218
  837YOPE   GL212394  13.339  -0.164   6.516  0.3378 -0.1056 -0.1782
  837YOPE   C1A12395  13.094   0.237   6.722  0.2577  0.3908 -0.0966
  837YOPE   D2A12396  12.848   0.109   7.150 -0.1933 -0.1154 -0.2685
  837YOPE   C3A12397  12.844   0.389   7.376  0.0395 -0.0970  0.1649
  837YOPE   C4A12398  12.837   0.803   7.338  0.0688  0.0599 -0.1410
  837YOPE   C1B12399  13.198  -0.190   6.944  0.0274 -0.2036 -0.0819
  837YOPE   C2B12400  13.235  -0.181   7.353  0.0544  0.1785 -0.0652
  837YOPE   D3B12401  13.228  -0.036   7.729  0.0301  0.0429  0.0289
  837YOPE   C4B12402  13.384   0.301   8.048 -0.2378  0.1192  0.1458
  838YOPE   NH312403   6.526   4.658   6.300 -0.0734 -0.3291 -0.0314
  838YOPE   PO412404   6.278   5.125   6.294 -0.2744  0.2153  0.1442
  838YOPE   GL112405   6.580   5.131   6.709 -0.0555 -0.0634  0.3078
  838YOPE   GL212406   6.770   5.474   6.825  0.2963 -0.1731 -0.0287
  838YOPE   C1A12407   6.701   5.000   7.144  0.2125 -0.0672 -0.2060
  838YOPE   D2A12408   6.665   4.699   7.458 -0.1427 -0.2379  0.0454
  838YOPE   C3A12409   6.672   4.658   7.877 -0.0099  0.2190  0.0063
  838YOPE   C4A12410   6.637   4.469   8.223 -0.1407  0.1081 -0.2641
  838YOPE   C1B12411   6.551   5.463   7.121  0.0723 -0.2497  0.4060
  838YOPE   C2B12412   6.404   5.665   7.554 -0.1630  0.1327 -0.0252
  838YOPE   D3B12413   6.278   5.704   7.976 -0.2592 -0.0924  0.0372
  838YOPE   C4B12414   6.077   5.684   8.332 -0.3407  0.0049 -0.1412
  839YOPE   NH312415   7.132   5.360   6.543 -0.1814 -0.0552  0.0215
  839YOPE   PO412416   7.306   5.703   6.168  0.2248 -0.0469 -0.3208
  839YOPE   GL112417   7.318   5.960   6.518 -0.0685  0.1174 -0.1643
  839YOPE   GL212418   7.009   5.875   6.681 -0.0945 -0.0105 -0.0487
  839YOPE   C1A12419   7.368   5.999   7.010  0.0641 -0.3243  0.0373
  839YOPE   D2A12420   7.386   5.793   7.343 -0.1416 -0.2008 -0.0930
  839YOPE   C3A12421   7.762   5.978   7.670 -0.2655 -0.1433  0.1142
  839YOPE   C4A12422   7.599   6.063   8.075  0.0380 -0.1961 -0.1582
  839YOPE   C1B12423   6.968   5.814   7.156 -0.0588  0.0062  0.1649
  839YOPE   C2B12424   6.869   5.950   7.487 -0.3320  0.3593 -0.0790
  839YOPE   D3B12425   7.140   5.966   7.767  0.1418  0.2656 -0.0398
  839YOPE   C4B12426   7.322   5.692   8.005 -0.2643 -0.0899  0.1836
  840YOPE   NH312427   7.149   1.458   6.530 -0.0000 -0.1911  0.0308
  840YOPE   PO412428   7.527   1.564   6.332 -0.2541 -0.2287  0.0115
  840YOPE   GL112429   7.805   1.554   6.736  0.0589 -0.4045 -0.3190
  840YOPE   GL212430   7.918   1.867   6.818 -0.1699 -0.1619  0.0216
  840YOPE   C1A12431   8.078   1.241   7.071  0.1441  0.3939  0.0058
  840YOPE   D2A12432   8.372   0.972   7.155 -0.0669  0.0173  0.2221
  840YOPE   C3A12433   8.220   0.983   7.505 -0.0842  0.0378  0.1782
  840YOPE   C4A12434   8.041   0.921   7.907 -0.0219  0.3092  0.3006
  840YOPE   C1B12435   8.145   1.760   7.095  0.2780 -0.0177  0.0136
  840YOPE   C2B12436   8.233   1.507   7.488 -0.0995  0.2057 -0.2509
  840YOPE   D3B12437   8.409   1.333   7.900 -0.1634 -0.0386  0.1384
  840YOPE   C4B12438   8.287   1.214   8.209 -0.0917  0.0778 -0.3504
  841YOPE   NH312439  15.525  14.601   6.258  0.0084 -0.1721 -0.1421
  841YOPE   PO412440  15.717  14.314   6.320  0.1950 -0.0694  0.1614
  841YOPE   GL112441  15.864  14.562   6.592  0.3054 -0.1319  0.0806
  841YOPE   GL212442  16.139  14.621   6.595  0.1262 -0.1221 -0.1831
  841YOPE   C1A12443  15.797  14.718   6.992  0.1337 -0.2092  0.0691
  841YOPE   D2A12444  15.658  14.753   7.377 -0.2756  0.3680  0.1879
  841YOPE   C3A12445  15.481  14.692   7.804  0.0364 -0.0983  0.0256
  841YOPE   C4A12446  15.235  14.480   8.083  0.1158  0.2488 -0.0849
  841YOPE   C1B12447  16.310  14.880   7.000  0.4322 -0.0520  0.1013
  841YOPE   C2B12448  16.197  14.984   7.388 -0.2846  0.3237  0.1403
  841YOPE   D3B12449  16.247  15.038   7.916 -0.0041  0.0221  0.0796
  841YOPE   C4B12450  16.431  14.988   8.358 -0.0404 -0.0105  0.0447
  842YOPE   NH312451  13.081  13.603   5.962 -0.2902 -0.1407  0.1773
  842YOPE   PO412452  13.576  13.753   6.059 -0.0892  0.1358 -0.1042
  842YOPE   GL112453  13.700  13.780   6.401 -0.2881  0.1772  0.2001
  842YOPE   GL212454  14.000  13.718   6.601 -0.0476  0.0090  0.0090
  842YOPE   C1A12455  13.468  13.640   6.825 -0.2353  0.0636 -0.0241
  842YOPE   D2A12456  13.392  13.703   7.269  0.1560  0.1167  0.2941
  842YOPE   C3A12457  13.345  13.932   7.687  0.1044  0.2462 -0.2441
  842YOPE   C4A12458  13.033  13.832   7.967  0.1805 -0.2656 -0.0663
  842YOPE   C1B12459  13.910  13.509   6.999 -0.0833  0.1146  0.0665
  842YOPE   C2B12460  13.685  13.271   7.251 -0.1591  0.2297 -0.0873
  842YOPE   D3B12461  13.827  13.167   7.620 -0.0486  0.2072  0.2538
  842YOPE   C4B12462  13.675  12.912   7.817  0.0286 -0.1157  0.0810
  843YOPE   NH312463   3.343   6.499   6.711 -0.1987 -0.0289 -0.0479
  843YOPE   PO412464   3.434   6.975   6.807 -0.0335  0.1636  0.0151
  843YOPE   GL112465   3.635   7.129   7.147  0.0703 -0.3178 -0.3046
  843YOPE   GL212466   3.744   6.804   7.318  0.1253 -0.0081  0.1757
  843YOPE   C1A12467   3.683   7.145   7.628  0.1471 -0.2587 -0.0624
  843YOPE   D2A12468   3.809   7.308   8.067 -0.0327  0.3984  0.1080
  843YOPE   C3A12469   3.663   7.081   8.397  0.1464  0.2208 -0.0216
  843YOPE   C4A12470   3.622   7.138   8.893  0.4342  0.3143  0.1038
  843YOPE   C1B12471   3.408   6.640   7.670  0.0160  0.0919 -0.1444
  843YOPE   C2B12472   3.154   6.606   7.955 -0.0237 -0.3044  0.3021
  843YOPE   D3B12473   2.722   6.659   8.199  0.0125 -0.0238  0.3546
  843YOPE   C4B12474   2.399   6.252   8.078 -0.1125 -0.0187 -0.1271
  844YOPE   NH312475  14.833   1.235   6.200  0.3999  0.1664 -0.0138
  844YOPE   PO412476  14.706   0.862   6.170  0.0872 -0.0826  0.2321
  844YOPE   GL112477  14.869   0.811   6.502 -0.4966 -0.0635  0.0077
  844YOPE   GL212478  15.005   0.517   6.481 -0.4041 -0.2387  0.0709
  844YOPE   C1A12479  14.673   0.754   6.912  0.0607 -0.1735  0.0818
  844YOPE   D2A12480  14.411   1.059   7.180  0.2874 -0.1003  0.0875
  844YOPE   C3A12481  14.231   0.941   7.599 -0.2149 -0.2725 -0.0071
  844YOPE   C4A12482  14.263   0.608   7.809  0.1354  0.0992 -0.0666
  844YOPE   C1B12483  14.933   0.316   6.815 -0.0000 -0.2973  0.0117
  844YOPE   C2B12484  14.945   0.353   7.240 -0.1081 -0.3510 -0.0011
  844YOPE   D3B12485  15.048   0.402   7.687 -0.1918  0.0770  0.0314
  844YOPE   C4B12486  15.110   0.294   8.172  0.4074 -0.1377 -0.2006
  845YOPE   NH312487   6.318   3.962   6.149  0.3530  0.0760  0.0733
  845YOPE   PO412488   6.117   3.717   6.389  0.0148 -0.1699 -0.1712
  845YOPE   GL112489   6.082   3.792   6.781  0.2678 -0.0310  0.3886
  845YOPE   GL212490   6.432   3.753   6.890  0.0821 -0.3073  0.1449
  845YOPE   C1A12491   5.978   3.604   7.252  0.2675  0.2536  0.0106
  845YOPE   D2A12492   5.986   3.501   7.645 -0.0894 -0.0074  0.2059
  845YOPE   C3A12493   5.673   3.545   7.983  0.1561  0.1804 -0.1675
  845YOPE   C4A12494   5.567   3.682   8.421  0.0592  0.4509 -0.1934
  845YOPE   C1B12495   6.533   3.759   7.259  0.1129 -0.0746 -0.3073
  845YOPE   C2B12496   6.460   3.579   7.703  0.0464  0.0671 -0.0444
  845YOPE   D3B12497   6.149   3.425   8.113 -0.1268 -0.0018 -0.3582
  845YOPE   C4B12498   6.017   3.493   8.499 -0.1272 -0.0926  0.0778
  846YOPE   NH312499   9.638   5.136   5.830  0.2432 -0.0033 -0.0926
  846YOPE   PO412500  10.052   5.009   5.940  0.0812  0.1286  0.1641
  846YOPE   GL112501  10.083   5.038   6.344  0.0653  0.4463  0.0209
  846YOPE   GL212502  10.354   4.857   6.390  0.1109  0.3112 -0.2572
  846YOPE   C1A12503   9.869   5.067   6.639  0.0410 -0.0198  0.2140
  846YOPE   D2A12504   9.758   5.270   6.965 -0.0690  0.3297 -0.1634
  846YOPE   C3A12505   9.774   5.493   7.240  0.2143  0.1846 -0.0391
  846YOPE   C4A12506   9.822   5.623   7.644  0.0722  0.2105 -0.2182
  846YOPE   C1B12507  10.345   4.925   6.792 -0.2912  0.1867 -0.0483
  846YOPE   C2B12508  10.160   5.093   7.215 -0.2182 -0.0561 -0.0283
  846YOPE   D3B12509  10.065   5.211   7.663 -0.1597  0.1239  0.2619
  846YOPE   C4B12510   9.849   5.086   7.932 -0.3112 -0.5004 -0.0786
  847YOPE   NH312511  10.779   0.487   6.425 -0.3197  0.1173 -0.0509
  847YOPE   PO412512  10.383   0.452   6.605 -0.1017 -0.1270  0.2405
  847YOPE   GL112513  10.372   0.528   6.868  0.1962  0.1138 -0.0411
  847YOPE   GL212514  10.016   0.461   6.988  0.0454 -0.1956 -0.1513
  847YOPE   C1A12515  10.319   0.917   7.144  0.2030 -0.1535 -0.4016
  847YOPE   D2A12516  10.360   1.395   7.120 -0.2311  0.2929  0.0945
  847YOPE   C3A12517  10.160   1.679   7.341 -0.1029  0.0758  0.0115
  847YOPE   C4A12518  10.161   1.680   7.734  0.1107 -0.3027  0.1604
  847YOPE   C1B12519  10.258   0.495   7.415 -0.0634 -0.0988  0.0569
  847YOPE   C2B12520  10.469   0.786   7.618  0.2055 -0.2516 -0.0029
  847YOPE   D3B12521  10.617   0.780   7.987 -0.2785  0.1220  0.2096
  847YOPE   C4B12522  10.995   0.947   8.015  0.1712  0.1104  0.0897
  848YOPE   NH312523  13.853  16.222   5.980 -0.0515  0.0269  0.0543
  848YOPE   PO412524  14.093  16.619   5.896  0.0319  0.0869 -0.1013
  848YOPE   GL112525  13.749  16.845   6.193 -0.0649  0.1877  0.1220
  848YOPE   GL212526  13.626  16.604   6.234 -0.0799  0.0175  0.1637
  848YOPE   C1A12527  13.542  16.997   6.557 -0.0428 -0.1044 -0.3727
  848YOPE   D2A12528  13.537  17.024   6.990 -0.1024  0.2618 -0.1539
  848YOPE   C3A12529  13.146  16.995   7.169 -0.0164  0.2731  0.1735
  848YOPE   C4A12530  12.744  17.107   7.523  0.1141  0.3160 -0.0628
  848YOPE   C1B12531  13.833  16.483   6.638 -0.1325  0.2721 -0.0963
  848YOPE   C2B12532  13.771  16.494   7.022  0.0481  0.0633  0.1572
  848YOPE   D3B12533  13.751  16.571   7.377 -0.2273 -0.0270 -0.0139
  848YOPE   C4B12534  13.425  16.631   7.759 -0.0869  0.0015  0.1372
  849YOPE   NH312535   8.272   6.413   5.208 -0.2176 -0.0511 -0.0554
  849YOPE   PO412536   8.249   6.347   5.747  0.2432 -0.0983  0.2751
  849YOPE   GL112537   8.161   6.316   6.225  0.1048  0.0252  0.1911
  849YOPE   GL212538   8.529   6.254   6.430 -0.1263 -0.0463  0.0661
  849YOPE   C1A12539   7.995   6.543   6.548  0.1402 -0.1403 -0.1584
  849YOPE   D2A12540   8.070   6.504   6.961  0.1589 -0.0457  0.1271
  849YOPE   C3A12541   8.143   6.820   7.363 -0.0905  0.1282  0.0831
  849YOPE   C4A12542   7.864   6.998   7.724  0.0288 -0.0917  0.3368
  849YOPE   C1B12543   8.524   6.451   6.747 -0.4253  0.0037  0.1186
  849YOPE   C2B12544   8.533   6.488   7.181 -0.1700  0.1734  0.1383
  849YOPE   D3B12545   8.544   6.639   7.591  0.0085  0.0946 -0.3379
  849YOPE   C4B12546   8.795   6.727   7.885 -0.3079  0.0619  0.0456
  850YOPE   NH312547   0.581  13.999   6.373  0.1329  0.1434  0.1406
  850YOPE   PO412548   1.064  13.850   6.469 -0.3386 -0.2346 -0.2510
  850YOPE   GL112549   1.198  13.826   6.866 -0.1261 -0.0819  0.1591
  850YOPE   GL212550   1.116  13.482   6.917  0.3368 -0.1522  0.0849
  850YOPE   C1A12551   1.159  14.035   7.264 -0.0491 -0.0667 -0.0700
  850YOPE   D2A12552   1.359  14.264   7.507  0.1029  0.1955 -0.1789
  850YOPE   C3A12553   1.287  14.051   7.855  0.1378 -0.0399  0.1780
  850YOPE   C4A12554   1.513  13.893   8.224  0.0145  0.2352  0.0649
  850YOPE   C1B12555   0.967  13.521   7.235  0.1266  0.1279  0.1132
  850YOPE   C2B12556   1.017  13.663   7.584  0.1417 -0.4863  0.1233
  850YOPE   D3B12557   0.988  13.668   8.064 -0.2352  0.0826  0.2943
  850YOPE   C4B12558   1.043  13.733   8.521  0.1171  0.2776 -0.3859
  851YOPE   NH312559   2.119   4.392   6.581  0.0468  0.1656  0.0813
  851YOPE   PO412560   2.421   4.615   6.781 -0.0012 -0.4606 -0.1314
  851YOPE   GL112561   2.337   4.478   7.104  0.2580 -0.1230  0.1538
  851YOPE   GL212562   2.011   4.513   7.136  0.1346  0.2713 -0.1525
  851YOPE   C1A12563   2.316   4.071   7.487  0.0448 -0.3132  0.2137
  851YOPE   D2A12564   2.099   4.090   7.860 -0.2728 -0.1036 -0.0077
  851YOPE   C3A12565   1.597   4.151   8.017  0.1384 -0.2005  0.1115
  851YOPE   C4A12566   1.454   4.141   8.412 -0.0582  0.1857  0.1174
  851YOPE   C1B12567   1.964   4.529   7.516  0.2058 -0.1179  0.1427
  851YOPE   C2B12568   1.975   4.557   8.022  0.0781  0.3656  0.2076
  851YOPE   D3B12569   2.218   4.698   8.326  0.0619 -0.0863 -0.1723
  851YOPE   C4B12570   2.235   4.606   8.742  0.0690  0.1847  0.2056
  852YOPE   NH312571  10.823  17.269   6.350 -0.2050 -0.2182  0.4572
  852YOPE   PO412572  10.551  17.646   6.364 -0.2072 -0.3815  0.3863
  852YOPE   GL112573  10.831  17.721   6.718 -0.0519  0.0035 -0.2374
  852YOPE   GL212574  11.124  17.855   6.770 -0.1565 -0.1871  0.0310
  852YOPE   C1A12575  10.650  17.755   7.070  0.0256 -0.0108 -0.0363
  852YOPE   D2A12576  10.622  17.531   7.488  0.1715  0.1947 -0.1742
  852YOPE   C3A12577  10.963  17.686   7.826  0.0556 -0.0463 -0.1457
  852YOPE   C4A12578  11.097  18.085   8.093 -0.0865 -0.0196  0.0600
  852YOPE   C1B12579  11.125  17.816   7.201 -0.0059  0.1028 -0.0079
  852YOPE   C2B12580  11.203  17.446   7.504 -0.1676  0.1698  0.2487
  852YOPE   D3B12581  11.297  17.127   7.816  0.0686 -0.0767 -0.1079
  852YOPE   C4B12582  11.335  16.668   8.005 -0.1676 -0.0912 -0.0500
  853YOPE   NH312583   5.379  13.092   6.266  0.0065 -0.0688  0.1993
  853YOPE   PO412584   5.798  13.130   6.145 -0.0999 -0.2475  0.1194
  853YOPE   GL112585   5.681  13.232   6.619  0.0214  0.3632 -0.0674
  853YOPE   GL212586   5.589  13.497   6.660 -0.1261 -0.1287  0.0992
  853YOPE   C1A12587   5.648  13.211   7.078 -0.0876  0.0385  0.2116
  853YOPE   D2A12588   5.762  13.161   7.439  0.0069  0.0600 -0.2078
  853YOPE   C3A12589   6.038  13.501   7.669  0.1364  0.0668  0.0779
  853YOPE   C4A12590   5.907  13.752   8.019 -0.0724 -0.1707 -0.1820
  853YOPE   C1B12591   5.286  13.622   6.959  0.0682 -0.1933  0.2153
  853YOPE   C2B12592   4.797  13.454   7.134  0.1332 -0.0406 -0.1024
  853YOPE   D3B12593   4.728  13.307   7.588 -0.2207  0.0567 -0.0433
  853YOPE   C4B12594   4.681  13.240   7.984  0.2372 -0.1949  0.5228
  854YOPE   NH312595   2.456   8.460   6.840 -0.0135 -0.0570  0.4126
  854YOPE   PO412596   2.006   8.562   6.836  0.3336  0.0873 -0.1276
  854YOPE   GL112597   2.069   8.759   7.224 -0.0670  0.2367  0.1336
  854YOPE   GL212598   2.362   8.843   7.117 -0.0175  0.1257 -0.1144
  854YOPE   C1A12599   2.049   8.767   7.593 -0.0821 -0.0469 -0.1823
  854YOPE   D2A12600   1.947   8.870   8.126 -0.0607 -0.0316  0.2332
  854YOPE   C3A12601   1.591   8.646   8.283  0.0696 -0.1778  0.0191
  854YOPE   C4A12602   1.235   8.439   8.327 -0.1750 -0.1458 -0.0095
  854YOPE   C1B12603   2.511   8.944   7.476  0.1664 -0.0082 -0.0221
  854YOPE   C2B12604   2.422   9.043   7.954 -0.0763  0.0187  0.0209
  854YOPE   D3B12605   2.405   9.335   8.284  0.0245 -0.0074 -0.0615
  854YOPE   C4B12606   2.165   9.415   8.690 -0.0618 -0.1286  0.1763
  855YOPE   NH312607   9.204   2.250   6.189 -0.0986  0.2033 -0.1360
  855YOPE   PO412608   8.791   2.241   6.386  0.0810 -0.0526 -0.0506
  855YOPE   GL112609   8.884   2.578   6.611 -0.2430 -0.0427 -0.0964
  855YOPE   GL212610   8.716   2.863   6.718  0.3832  0.0065 -0.1524
  855YOPE   C1A12611   9.086   2.683   6.948  0.1061 -0.1245 -0.0246
  855YOPE   D2A12612   9.232   2.800   7.240  0.0721 -0.2321  0.3978
  855YOPE   C3A12613   9.168   2.728   7.650  0.0563  0.1254 -0.0474
  855YOPE   C4A12614   9.368   2.728   8.034  0.0877 -0.0237 -0.0394
  855YOPE   C1B12615   8.701   2.981   7.143  0.0208 -0.1113 -0.2143
  855YOPE   C2B12616   8.793   3.043   7.501  0.1018  0.0001 -0.3356
  855YOPE   D3B12617   8.693   2.770   7.770 -0.1911 -0.0241  0.0989
  855YOPE   C4B12618   8.939   2.532   8.071 -0.1287 -0.3577 -0.0824
  856YOPE   NH312619   0.994  13.304   6.471 -0.0973  0.1244  0.1509
  856YOPE   PO412620   0.613  13.390   6.534 -0.2370  0.3246  0.4404
  856YOPE   GL112621   0.482  13.598   6.819 -0.1315 -0.1215 -0.0540
  856YOPE   GL212622   0.639  13.884   6.874  0.0035 -0.0167  0.1904
  856YOPE   C1A12623   0.353  13.543   7.250  0.1013  0.0920 -0.0222
  856YOPE   D2A12624   0.512  13.656   7.613 -0.1624  0.3909 -0.0458
  856YOPE   C3A12625   0.544  13.830   8.033  0.0199  0.0904 -0.3325
  856YOPE   C4A12626   0.333  13.542   8.318 -0.2914 -0.1534 -0.0765
  856YOPE   C1B12627   0.654  13.914   7.146 -0.0526  0.0779  0.0305
  856YOPE   C2B12628   0.696  14.103   7.651 -0.1209 -0.1294  0.1002
  856YOPE   D3B12629   0.860  14.204   8.101  0.0055  0.3327 -0.0150
  856YOPE   C4B12630   0.933  14.429   8.487  0.0821 -0.0210 -0.1433
  857YOPE   NH312631   8.979   3.118   6.398 -0.2077  0.1293  0.1324
  857YOPE   PO412632   9.348   3.439   6.471  0.1080 -0.1081  0.1690
  857YOPE   GL112633   9.423   3.314   6.847  0.0424 -0.1198 -0.1394
  857YOPE   GL212634   9.148   3.191   6.933 -0.1987 -0.0507  0.0427
  857YOPE   C1A12635   9.647   3.197   7.229  0.1677 -0.0260  0.1974
  857YOPE   D2A12636   9.645   3.112   7.633  0.2648 -0.1948  0.0165
  857YOPE   C3A12637   9.882   2.999   7.921 -0.0103  0.3702  0.0815
  857YOPE   C4A12638  10.122   3.155   8.262  0.4422  0.0942 -0.2735
  857YOPE   C1B12639   9.173   3.341   7.351 -0.0278 -0.1424  0.0855
  857YOPE   C2B12640   9.256   3.225   7.865  0.1112 -0.0716 -0.1041
  857YOPE   D3B12641   9.113   3.478   8.206  0.0926  0.0714  0.1439
  857YOPE   C4B12642   9.249   3.639   8.593 -0.0287  0.2233 -0.2624
  858YOPE   NH312643   9.162   0.481   6.584  0.0237 -0.0445 -0.3858
  858YOPE   PO412644   9.340   0.869   6.523 -0.1345 -0.3843 -0.1407
  858YOPE   GL112645   9.341   1.208   6.831  0.2124  0.0098  0.2415
  858YOPE   GL212646   9.359   1.525   6.761  0.3258  0.0250 -0.1326
  858YOPE   C1A12647   9.320   1.177   7.310 -0.2011 -0.0156 -0.3928
  858YOPE   D2A12648   9.349   1.292   7.708 -0.0109  0.0351 -0.0584
  858YOPE   C3A12649   9.722   1.471   7.888 -0.1106 -0.0821 -0.1248
  858YOPE   C4A12650   9.793   1.940   8.041  0.0389  0.0749 -0.0459
  858YOPE   C1B12651   9.437   1.617   7.030  0.0812  0.0589 -0.2197
  858YOPE   C2B12652   9.652   1.669   7.428  0.0848  0.0101  0.2239
  858YOPE   D3B12653   9.796   2.069   7.563 -0.0341 -0.2049  0.1356
  858YOPE   C4B12654  10.159   2.182   7.806  0.0147 -0.3658 -0.0350
  859YOPE   NH312655   9.855  13.400   6.301  0.0941 -0.2583 -0.0382
  859YOPE   PO412656  10.182  13.232   6.222  0.0917 -0.1184 -0.2660
  859YOPE   GL112657  10.040  13.100   6.687 -0.1188  0.0666  0.0757
  859YOPE   GL212658   9.935  12.848   6.853  0.2017  0.2727 -0.2523
  859YOPE   C1A12659  10.133  13.115   7.176 -0.0948 -0.0456 -0.2311
  859YOPE   D2A12660   9.926  13.115   7.671 -0.2686 -0.2321  0.0144
  859YOPE   C3A12661   9.855  12.810   7.895  0.2072  0.2428 -0.0066
  859YOPE   C4A12662   9.698  12.559   8.333 -0.0159  0.1631 -0.0283
  859YOPE   C1B12663  10.176  12.582   7.166 -0.1243 -0.0663 -0.1840
  859YOPE   C2B12664  10.256  12.658   7.591 -0.0686  0.0082 -0.0831
  859YOPE   D3B12665  10.284  12.445   7.967  0.2315  0.0462  0.0916
  859YOPE   C4B12666  10.151  12.685   8.263  0.2358 -0.0562  0.1347
  860YOPE   NH312667   0.504   5.736   6.716 -0.0302 -0.0691 -0.3514
  860YOPE   PO412668   0.283   5.361   6.703  0.0957 -0.0213 -0.1660
  860YOPE   GL112669   0.483   5.284   7.069 -0.0422 -0.2520 -0.0607
  860YOPE   GL212670   0.703   5.427   7.045  0.0195 -0.2095  0.1123
  860YOPE   C1A12671   0.512   5.333   7.476  0.4322  0.1733 -0.4482
  860YOPE   D2A12672   0.395   5.211   7.939  0.1083 -0.0441 -0.0796
  860YOPE   C3A12673   0.494   5.139   8.292 -0.2159  0.0252 -0.2636
  860YOPE   C4A12674   0.868   5.067   8.517 -0.0879  0.1924 -0.2506
  860YOPE   C1B12675   1.040   5.484   7.437 -0.4353  0.0528  0.2340
  860YOPE   C2B12676   0.990   5.490   7.910 -0.2339 -0.3807  0.2385
  860YOPE   D3B12677   0.978   5.533   8.355  0.3132  0.0880  0.0433
  860YOPE   C4B12678   0.621   5.503   8.590 -0.1523  0.1118 -0.1331
  861YOPE   NH312679  10.220   3.960   6.172  0.0387  0.1285 -0.0473
  861YOPE   PO412680  10.249   3.564   6.273  0.1835  0.0537 -0.0143
  861YOPE   GL112681  10.470   3.727   6.572  0.2661 -0.0938  0.0296
  861YOPE   GL212682  10.470   4.136   6.575 -0.1050  0.2137  0.2789
  861YOPE   C1A12683  10.651   3.731   7.013  0.2316  0.1415 -0.0323
  861YOPE   D2A12684  10.585   3.604   7.532 -0.1832  0.2106  0.1670
  861YOPE   C3A12685  10.896   3.706   7.895  0.1422  0.0861  0.1449
  861YOPE   C4A12686  10.952   3.569   8.393 -0.4479 -0.1089  0.3300
  861YOPE   C1B12687  10.620   4.253   6.927  0.0550 -0.0942  0.0384
  861YOPE   C2B12688  10.792   4.302   7.322 -0.3369  0.1363  0.0841
  861YOPE   D3B12689  10.717   4.167   7.753 -0.2700 -0.1854  0.4810
  861YOPE   C4B12690  10.868   4.094   8.190 -0.1641 -0.3261  0.2335
  862YOPE   NH312691   9.330  13.503   6.295  0.2576  0.5354  0.0067
  862YOPE   PO412692   9.447  13.095   6.214  0.1305 -0.1692  0.2542
  862YOPE   GL112693   9.490  12.982   6.583 -0.3557  0.4327  0.2987
  862YOPE   GL212694   9.569  13.252   6.731 -0.2843  0.1433  0.1600
  862YOPE   C1A12695   9.253  12.794   6.964  0.1337  0.0251 -0.2576
  862YOPE   D2A12696   9.092  12.933   7.328 -0.1485 -0.2164  0.2643
  862YOPE   C3A12697   9.002  12.763   7.728 -0.1214  0.0956  0.0987
  862YOPE   C4A12698   8.700  12.485   7.894  0.1241  0.1375 -0.1965
  862YOPE   C1B12699   9.629  13.170   7.216  0.0826 -0.0879  0.0019
  862YOPE   C2B12700   9.449  13.071   7.651 -0.0440  0.1574 -0.1732
  862YOPE   D3B12701   9.569  13.099   8.144 -0.0524 -0.1134 -0.4303
  862YOPE   C4B12702   9.533  13.017   8.636  0.1774  0.0899 -0.1322
  863YOPE   NH312703   5.028  16.027   6.325  0.3477 -0.0290 -0.0158
  863YOPE   PO412704   5.166  16.277   6.605 -0.1974  0.2097 -0.1103
  863YOPE   GL112705   5.324  16.483   7.055 -0.0440  0.0928  0.2865
  863YOPE   GL212706   5.643  16.613   7.022  0.0211 -0.0531  0.0397
  863YOPE   C1A12707   5.297  16.328   7.501  0.0266 -0.1469 -0.0809
  863YOPE   D2A12708   5.488  16.289   7.877  0.1518  0.0021 -0.0185
  863YOPE   C3A12709   5.688  15.901   8.020 -0.1718 -0.3281  0.3231
  863YOPE   C4A12710   5.984  15.614   8.147 -0.0230  0.1964  0.1385
  863YOPE   C1B12711   5.728  16.588   7.528  0.1330  0.0146  0.0251
  863YOPE   C2B12712   5.744  16.759   7.889 -0.0133  0.0176  0.0471
  863YOPE   D3B12713   5.887  17.070   8.151  0.0362  0.2511 -0.1177
  863YOPE   C4B12714   5.743  17.056   8.518 -0.0142 -0.1354  0.2266
  864YOPE   NH312715   4.540   1.917   6.513  0.0705 -0.2076  0.0841
  864YOPE   PO412716   4.248   1.674   6.801 -0.0967 -0.1013  0.2221
  864YOPE   GL112717   4.131   1.587   7.226  0.1644  0.5051  0.1341
  864YOPE   GL212718   4.040   1.321   7.251 -0.1494 -0.0891 -0.2026
  864YOPE   C1A12719   3.962   1.732   7.654  0.3870 -0.0752  0.4233
  864YOPE   D2A12720   4.169   1.672   8.034 -0.2684 -0.2017  0.1851
  864YOPE   C3A12721   4.228   1.974   8.320 -0.0653 -0.0102  0.3227
  864YOPE   C4A12722   4.306   2.307   8.569  0.2618  0.1002 -0.2604
  864YOPE   C1B12723   4.149   1.315   7.699  0.0052  0.2065  0.1381
  864YOPE   C2B12724   4.108   1.052   8.044 -0.0419 -0.1243 -0.0806
  864YOPE   D3B12725   4.221   0.806   8.458  0.0512 -0.0482  0.1277
  864YOPE   C4B12726   4.337   0.547   8.734  0.0148 -0.2249  0.0997
  865YOPE   NH312727  16.889   5.198   6.479 -0.1192 -0.0539 -0.1322
  865YOPE   PO412728  17.044   5.494   6.709  0.0957 -0.0929 -0.3530
  865YOPE   GL112729  17.058   5.283   7.116 -0.0090 -0.2887 -0.0421
  865YOPE   GL212730  16.915   5.056   7.113 -0.0298  0.0857  0.2035
  865YOPE   C1A12731  17.042   5.342   7.528 -0.1300 -0.0591 -0.1724
  865YOPE   D2A12732  16.917   5.109   7.914  0.2318 -0.0482 -0.1950
  865YOPE   C3A12733  16.655   5.071   8.237  0.1855 -0.2357  0.0050
  865YOPE   C4A12734  16.508   4.924   8.525  0.0696  0.0814  0.1078
  865YOPE   C1B12735  16.712   4.928   7.504  0.2347  0.0350  0.3695
  865YOPE   C2B12736  16.445   4.891   7.818 -0.1768  0.0432  0.0608
  865YOPE   D3B12737  16.292   4.695   8.132  0.2021  0.2708  0.0942
  865YOPE   C4B12738  16.228   4.319   8.157 -0.4945 -0.0305 -0.0435
  866YOPE   NH312739   8.382  13.053   6.391 -0.1755  0.2251 -0.3649
  866YOPE   PO412740   8.656  12.597   6.213 -0.0846 -0.0209  0.2939
  866YOPE   GL112741   8.450  12.547   6.533 -0.0255 -0.1964  0.2051
  866YOPE   GL212742   8.241  12.607   6.740 -0.0643 -0.0437  0.0095
  866YOPE   C1A12743   8.672  12.687   6.966 -0.0171  0.1750 -0.0668
  866YOPE   D2A12744   8.580  12.551   7.338  0.0168 -0.1278 -0.0373
  866YOPE   C3A12745   8.315  12.722   7.639 -0.1045 -0.1436  0.0158
  866YOPE   C4A12746   8.191  12.651   8.017 -0.0760  0.2102 -0.3288
  866YOPE   C1B12747   8.038  12.412   7.144  0.0707  0.0005 -0.1776
  866YOPE   C2B12748   8.108  12.214   7.446 -0.0051  0.1996 -0.0352
  866YOPE   D3B12749   8.131  12.078   7.949  0.0019  0.2954  0.0541
  866YOPE   C4B12750   8.258  12.149   8.353  0.2768  0.1232  0.1905
  867YOPE   NH312751  14.828  10.113   6.354 -0.0710  0.2573 -0.0195
  867YOPE   PO412752  14.742  10.599   6.372  0.3128  0.0031 -0.0240
  867YOPE   GL112753  14.832  10.699   6.771 -0.3606  0.0987  0.2412
  867YOPE   GL212754  14.839  10.323   6.850  0.2202  0.0877 -0.0337
  867YOPE   C1A12755  14.923  10.637   7.194 -0.1729 -0.0067 -0.0556
  867YOPE   D2A12756  14.997  10.597   7.527 -0.2215  0.0017  0.2972
  867YOPE   C3A12757  15.451  10.607   7.525 -0.0621  0.1995  0.1003
  867YOPE   C4A12758  15.834  10.559   7.202 -0.0185 -0.1925  0.0016
  867YOPE   C1B12759  14.941  10.052   7.199  0.0628  0.2392  0.3350
  867YOPE   C2B12760  14.870   9.841   7.533 -0.3687  0.3064  0.7165
  867YOPE   D3B12761  14.821   9.965   7.908  0.3845 -0.3566  0.2263
  867YOPE   C4B12762  14.934   9.908   8.295 -0.0062 -0.0757 -0.0325
  868YOPE   NH312763   4.786   5.622   6.348  0.2223 -0.1708  0.2222
  868YOPE   PO412764   4.374   5.516   6.447  0.0535 -0.3990  0.1927
  868YOPE   GL112765   4.510   5.711   6.811 -0.1071 -0.2357 -0.5136
  868YOPE   GL212766   4.815   5.864   6.783  0.1069 -0.0300  0.0856
  868YOPE   C1A12767   4.613   5.796   7.251 -0.2171 -0.2188  0.0423
  868YOPE   D2A12768   4.688   5.611   7.675 -0.2671  0.0972  0.0113
  868YOPE   C3A12769   4.802   5.774   7.965 -0.2393 -0.2614  0.0364
  868YOPE   C4A12770   5.173   5.822   8.167  0.0256  0.0008  0.0983
  868YOPE   C1B12771   5.054   6.040   7.076  0.0800 -0.4149 -0.4331
  868YOPE   C2B12772   5.395   6.148   7.358 -0.2296  0.3225 -0.0920
  868YOPE   D3B12773   5.489   6.092   7.869  0.0510 -0.0272 -0.0189
  868YOPE   C4B12774   5.867   6.044   8.023  0.0560  0.1468  0.0882
  869YOPE   NH312775  14.067  14.113   6.293  0.1798 -0.1355 -0.1675
  869YOPE   PO412776  14.328  14.431   6.352  0.0425  0.0865  0.0505
  869YOPE   GL112777  14.552  14.634   6.641  0.1183  0.0765 -0.2089
  869YOPE   GL212778  14.199  14.749   6.750  0.0300  0.0664 -0.0706
  869YOPE   C1A12779  15.004  14.685   6.799 -0.0233  0.1347 -0.1246
  869YOPE   D2A12780  15.278  14.659   7.046 -0.2722 -0.1009  0.1667
  869YOPE   C3A12781  15.180  14.616   7.414  0.1270  0.0171 -0.4265
  869YOPE   C4A12782  14.719  14.486   7.588  0.0794 -0.1888 -0.0196
  869YOPE   C1B12783  14.031  15.053   7.129 -0.0371  0.0896 -0.1985
  869YOPE   C2B12784  14.218  15.365   7.534  0.0322 -0.0632  0.2764
  869YOPE   D3B12785  14.235  15.482   7.936  0.1126 -0.1387 -0.0614
  869YOPE   C4B12786  14.023  15.503   8.407  0.0751  0.2474  0.1823
  870YOPE   NH312787  16.414   8.121   6.620 -0.1056 -0.3543 -0.3958
  870YOPE   PO412788  16.829   8.003   6.670 -0.3201 -0.1679  0.1013
  870YOPE   GL112789  16.942   7.909   7.093 -0.1873  0.0220  0.2988
  870YOPE   GL212790  16.641   7.764   7.180 -0.3382  0.1130 -0.4563
  870YOPE   C1A12791  17.152   7.603   7.312 -0.3152 -0.1588  0.1598
  870YOPE   D2A12792  17.293   7.345   7.590  0.2026  0.1196 -0.0103
  870YOPE   C3A12793  17.083   7.383   8.052  0.1063 -0.0047  0.0006
  870YOPE   C4A12794  16.799   7.269   8.369 -0.1449  0.0943  0.4191
  870YOPE   C1B12795  16.719   7.541   7.557 -0.1340  0.3221 -0.0193
  870YOPE   C2B12796  16.595   7.554   7.899  0.0685 -0.3317  0.1737
  870YOPE   D3B12797  16.458   7.644   8.336  0.0239 -0.0533  0.1821
  870YOPE   C4B12798  16.391   7.385   8.671  0.0261  0.0573 -0.2098
  871YOPE   NH312799  15.087  17.425   6.037  0.2676 -0.2753 -0.2902
  871YOPE   PO412800  14.999  16.972   6.105 -0.1790 -0.0364 -0.3644
  871YOPE   GL112801  15.105  16.709   6.480  0.1137 -0.0195  0.1392
  871YOPE   GL212802  15.110  16.430   6.523 -0.0207 -0.0751 -0.1794
  871YOPE   C1A12803  15.202  16.822   6.962 -0.1053 -0.0353  0.1995
  871YOPE   D2A12804  15.276  17.009   7.359  0.1819  0.2550 -0.0892
  871YOPE   C3A12805  15.395  17.207   7.783  0.1393  0.2986  0.1810
  871YOPE   C4A12806  15.342  17.630   7.835  0.0214  0.4315 -0.0143
  871YOPE   C1B12807  15.298  16.260   6.855 -0.1082  0.2480 -0.0822
  871YOPE   C2B12808  15.400  16.403   7.265  0.1412  0.1009 -0.1568
  871YOPE   D3B12809  15.198  16.605   7.677 -0.0349  0.0548 -0.1498
  871YOPE   C4B12810  15.271  16.768   8.027  0.1082  0.2140  0.2129
  872YOPE   NH312811  14.180  13.058   5.917  0.0663  0.0717  0.0016
  872YOPE   PO412812  14.530  12.912   6.147  0.0741  0.2245 -0.0080
  872YOPE   GL112813  14.590  12.803   6.567  0.0371  0.3077  0.3588
  872YOPE   GL212814  14.460  12.550   6.591 -0.3003 -0.1793 -0.0938
  872YOPE   C1A12815  14.851  12.549   6.934  0.0050 -0.1141 -0.1263
  872YOPE   D2A12816  14.861  12.530   7.396  0.0832 -0.0920 -0.2966
  872YOPE   C3A12817  14.608  12.548   7.727 -0.2701  0.1046 -0.1356
  872YOPE   C4A12818  14.716  12.673   8.212  0.0253  0.2513  0.0602
  872YOPE   C1B12819  14.243  12.566   6.938 -0.0839 -0.0465  0.2783
  872YOPE   C2B12820  14.333  12.472   7.311  0.1784  0.3394  0.2743
  872YOPE   D3B12821  14.270  12.149   7.659 -0.0224  0.1592 -0.2214
  872YOPE   C4B12822  14.426  11.774   7.938 -0.0036  0.1354  0.0329
  873YOPE   NH312823   1.679  11.539   6.115 -0.0681 -0.1192  0.0842
  873YOPE   PO412824   1.860  11.105   6.215 -0.1989 -0.0746 -0.1587
  873YOPE   GL112825   2.023  10.996   6.592 -0.0089 -0.0982 -0.2277
  873YOPE   GL212826   1.815  10.973   6.820  0.0130 -0.0831  0.0960
  873YOPE   C1A12827   2.356  10.950   7.008  0.0820  0.0740 -0.0625
  873YOPE   D2A12828   2.652  10.889   7.321 -0.1508 -0.0287  0.2008
  873YOPE   C3A12829   2.795  11.252   7.580  0.3952  0.0211  0.1229
  873YOPE   C4A12830   2.953  11.486   7.994  0.1079 -0.1903  0.0731
  873YOPE   C1B12831   1.804  11.185   7.170 -0.1986  0.0504  0.0454
  873YOPE   C2B12832   1.906  11.320   7.647 -0.0890 -0.1973  0.0544
  873YOPE   D3B12833   1.972  11.430   8.074 -0.1787 -0.2021 -0.0315
  873YOPE   C4B12834   1.894  11.535   8.560 -0.0083 -0.0497 -0.1976
  874YOPE   NH312835   1.771   8.089   6.903 -0.1298  0.0269 -0.1454
  874YOPE   PO412836   2.201   8.057   7.072  0.0452 -0.3257  0.0746
  874YOPE   GL112837   2.629   8.165   7.199  0.1015  0.0957 -0.2940
  874YOPE   GL212838   2.560   8.442   7.358 -0.0908  0.0234 -0.0968
  874YOPE   C1A12839   2.888   8.100   7.518 -0.3783  0.2214  0.1322
  874YOPE   D2A12840   3.153   7.981   7.836  0.1014 -0.0700  0.2246
  874YOPE   C3A12841   3.176   7.959   8.315 -0.4281 -0.1403  0.0065
  874YOPE   C4A12842   3.237   7.941   8.802  0.0430 -0.0935 -0.3142
  874YOPE   C1B12843   2.471   8.545   7.739 -0.0779 -0.1715  0.2219
  874YOPE   C2B12844   2.336   8.579   8.119  0.3062  0.2749  0.2816
  874YOPE   D3B12845   2.505   8.410   8.474  0.2172  0.0628 -0.0289
  874YOPE   C4B12846   2.184   8.285   8.908  0.0550  0.1014 -0.1260
  875YOPE   NH312847  12.875  14.460   5.942 -0.3063  0.0597  0.2215
  875YOPE   PO412848  12.770  14.001   6.044 -0.0716  0.1379  0.1279
  875YOPE   GL112849  12.624  13.841   6.451 -0.0490 -0.2135  0.0457
  875YOPE   GL212850  12.921  13.637   6.490  0.1800  0.0624 -0.1484
  875YOPE   C1A12851  12.502  13.804   6.880  0.0732 -0.2317  0.0061
  875YOPE   D2A12852  12.588  13.687   7.233 -0.3456 -0.0496 -0.0368
  875YOPE   C3A12853  12.249  13.547   7.486  0.1136 -0.0930 -0.1259
  875YOPE   C4A12854  12.200  13.351   7.936 -0.2060 -0.2529  0.1619
  875YOPE   C1B12855  12.964  13.763   6.909 -0.3494 -0.2078  0.0569
  875YOPE   C2B12856  13.002  13.958   7.290  0.3930  0.1421  0.1667
  875YOPE   D3B12857  12.969  14.228   7.671  0.2490  0.4122 -0.1962
  875YOPE   C4B12858  13.077  14.305   8.045  0.0758 -0.1025 -0.0228
  876YOPE   NH312859  17.490   5.687   6.580  0.1195 -0.0282  0.0024
  876YOPE   PO412860  17.458   5.241   6.366  0.2462 -0.1658 -0.0407
  876YOPE   GL112861  17.405   5.140   6.790  0.0823 -0.3490 -0.3005
  876YOPE   GL212862  17.556   5.488   7.072  0.0740 -0.0394 -0.2430
  876YOPE   C1A12863  17.353   4.767   7.050  0.0115  0.0088  0.2492
  876YOPE   D2A12864  17.215   4.822   7.476  0.2011 -0.1357 -0.2040
  876YOPE   C3A12865  17.188   4.669   7.886  0.2115  0.1409  0.2043
  876YOPE   C4A12866  17.399   4.607   8.265  0.2242  0.0921  0.1645
  876YOPE   C1B12867  17.416   5.744   7.494 -0.3994  0.0595  0.1914
  876YOPE   C2B12868  17.465   5.750   7.948 -0.0712  0.3047 -0.0724
  876YOPE   D3B12869  17.171   5.834   8.339  0.0075 -0.2544  0.2464
  876YOPE   C4B12870  17.014   6.094   8.697 -0.1269 -0.1247  0.0029
  877YOPE   NH312871   4.368   4.112   6.428  0.1709  0.0827 -0.1053
  877YOPE   PO412872   4.285   4.521   6.569  0.1982  0.3606  0.0487
  877YOPE   GL112873   4.323   4.292   6.952 -0.1607  0.0260  0.1734
  877YOPE   GL212874   4.029   4.379   7.170  0.0066  0.0461 -0.1788
  877YOPE   C1A12875   4.523   4.225   7.332 -0.0110 -0.1600  0.0232
  877YOPE   D2A12876   4.752   3.866   7.302 -0.0374 -0.1977 -0.0967
  877YOPE   C3A12877   5.111   3.740   7.572 -0.1531 -0.2975  0.2538
  877YOPE   C4A12878   5.545   3.659   7.487  0.5723 -0.1026 -0.1689
  877YOPE   C1B12879   4.169   4.509   7.491 -0.4192  0.0540 -0.0096
  877YOPE   C2B12880   4.251   4.556   7.919 -0.2876  0.2492  0.1992
  877YOPE   D3B12881   4.232   4.428   8.422  0.1984 -0.1649  0.2037
  877YOPE   C4B12882   4.469   4.554   8.826 -0.1011  0.0610  0.0346
  878YOPE   NH312883  15.277   3.194   6.717 -0.2342  0.1428  0.0488
  878YOPE   PO412884  15.471   3.449   6.411  0.0800 -0.0762 -0.1543
  878YOPE   GL112885  15.718   3.450   6.761 -0.0388  0.0872  0.0154
  878YOPE   GL212886  15.993   3.412   6.710  0.2920 -0.1545  0.3022
  878YOPE   C1A12887  15.584   3.631   7.165  0.1718  0.0523  0.0586
  878YOPE   D2A12888  15.391   3.625   7.567  0.0313 -0.0632  0.1488
  878YOPE   C3A12889  15.509   3.928   7.898  0.1212  0.0129 -0.0746
  878YOPE   C4A12890  15.695   4.260   8.082 -0.0106  0.0234 -0.0249
  878YOPE   C1B12891  16.375   3.384   6.957  0.0730  0.2430  0.0998
  878YOPE   C2B12892  16.681   3.530   7.296  0.1211  0.2232 -0.1824
  878YOPE   D3B12893  16.787   3.678   7.678 -0.1143  0.2107  0.0044
  878YOPE   C4B12894  16.957   3.694   8.019  0.2462  0.3963  0.1240
  879YOPE   NH312895   9.418   3.863   6.210 -0.0539  0.1210 -0.0843
  879YOPE   PO412896   9.733   3.795   6.323  0.3146 -0.3178  0.2635
  879YOPE   GL112897   9.965   3.799   6.669  0.0924 -0.1384  0.0496
  879YOPE   GL212898   9.680   3.768   6.882  0.0988  0.2066 -0.0103
  879YOPE   C1A12899  10.165   3.995   6.965 -0.0734  0.0644  0.0988
  879YOPE   D2A12900  10.395   4.061   7.355 -0.1090  0.0235  0.1825
  879YOPE   C3A12901  10.280   4.376   7.517 -0.0869 -0.0197  0.0141
  879YOPE   C4A12902  10.156   4.737   7.757  0.4192 -0.0212  0.1079
  879YOPE   C1B12903   9.567   3.725   7.326 -0.1490  0.2715  0.0776
  879YOPE   C2B12904   9.466   3.672   7.758 -0.1308 -0.0250 -0.2185
  879YOPE   D3B12905   9.366   3.935   8.089 -0.0700 -0.0388 -0.2898
  879YOPE   C4B12906   9.539   4.069   8.467 -0.2335 -0.0311  0.0263
  880YOPE   NH312907   6.017  16.638   6.638 -0.0789 -0.0883 -0.0379
  880YOPE   PO412908   6.371  16.344   6.710  0.2708 -0.1011  0.0923
  880YOPE   GL112909   6.618  16.366   7.075  0.0410  0.3040  0.0507
  880YOPE   GL212910   6.832  16.142   7.153  0.2367  0.0262 -0.0709
  880YOPE   C1A12911   6.907  16.540   7.387 -0.0955  0.0037 -0.0384
  880YOPE   D2A12912   7.235  16.622   7.794 -0.0697  0.0053 -0.1183
  880YOPE   C3A12913   7.609  16.396   7.788 -0.0692  0.0724  0.2885
  880YOPE   C4A12914   7.818  16.263   8.176  0.2626  0.2365 -0.0878
  880YOPE   C1B12915   6.741  15.859   7.491 -0.1356  0.1524 -0.1525
  880YOPE   C2B12916   6.820  15.649   7.861  0.2667 -0.0387  0.1309
  880YOPE   D3B12917   6.757  15.420   8.115 -0.1312  0.1863  0.0418
  880YOPE   C4B12918   6.627  15.200   8.375 -0.2845 -0.1854  0.1212
  881YOPE   NH312919   6.393  14.164   5.845  0.4285  0.2252 -0.1545
  881YOPE   PO412920   6.708  14.198   6.152 -0.1883  0.1771 -0.0064
  881YOPE   GL112921   6.699  14.134   6.540  0.1993  0.0532 -0.0225
  881YOPE   GL212922   6.445  14.353   6.776 -0.0975  0.0598  0.2410
  881YOPE   C1A12923   6.870  14.177   6.930 -0.1091  0.0150 -0.0074
  881YOPE   D2A12924   7.287  14.081   7.145 -0.0407  0.1158  0.0692
  881YOPE   C3A12925   7.331  13.811   7.358 -0.0360 -0.2601 -0.5424
  881YOPE   C4A12926   7.140  13.632   7.750  0.2969 -0.0677 -0.2684
  881YOPE   C1B12927   6.712  14.679   6.962  0.0421  0.1775  0.1916
  881YOPE   C2B12928   6.882  14.558   7.406 -0.1156  0.1934 -0.0030
  881YOPE   D3B12929   6.889  14.275   7.741  0.1165 -0.3977 -0.2334
  881YOPE   C4B12930   7.113  14.014   8.090  0.2113  0.3643 -0.1933
  882YOPE   NH312931  12.622  13.524   6.044  0.5087 -0.2545 -0.2474
  882YOPE   PO412932  12.851  13.199   5.837 -0.1308  0.3185  0.0889
  882YOPE   GL112933  12.929  13.090   6.264  0.1064  0.0455 -0.0539
  882YOPE   GL212934  12.667  13.212   6.405  0.0053 -0.0378 -0.0925
  882YOPE   C1A12935  13.191  13.164   6.699 -0.2271 -0.0701  0.0104
  882YOPE   D2A12936  13.097  13.302   7.135  0.0914  0.1808 -0.2954
  882YOPE   C3A12937  12.677  13.241   7.362 -0.0668  0.2963 -0.1230
  882YOPE   C4A12938  12.395  12.968   7.626 -0.1253 -0.1509 -0.2943
  882YOPE   C1B12939  12.696  13.230   6.873 -0.0716 -0.0815  0.0150
  882YOPE   C2B12940  12.253  13.300   7.082 -0.1359  0.4741 -0.0899
  882YOPE   D3B12941  11.980  13.024   7.317 -0.1613  0.1269 -0.1771
  882YOPE   C4B12942  11.880  12.852   7.731 -0.0517 -0.1468  0.0300
  883YOPE   NH312943   8.881   4.659   6.082 -0.1509  0.1362 -0.1506
  883YOPE   PO412944   9.262   4.941   6.021 -0.0355  0.0052 -0.2516
  883YOPE   GL112945   9.252   4.883   6.415  0.0982 -0.2179 -0.0963
  883YOPE   GL212946   9.005   4.905   6.636  0.0194  0.1843  0.3078
  883YOPE   C1A12947   9.470   4.696   6.755  0.0642  0.1054 -0.0179
  883YOPE   D2A12948   9.760   4.799   7.078 -0.1312  0.0545  0.1107
  883YOPE   C3A12949   9.655   4.836   7.478 -0.1398  0.0384 -0.0958
  883YOPE   C4A12950   9.351   4.809   7.832 -0.1693 -0.0798  0.2119
  883YOPE   C1B12951   8.762   4.871   7.091 -0.2209  0.0203 -0.2369
  883YOPE   C2B12952   8.461   4.906   7.430 -0.0867  0.1970 -0.2245
  883YOPE   D3B12953   8.445   5.007   7.882 -0.3503  0.0166 -0.1932
  883YOPE   C4B12954   8.355   5.262   8.275 -0.0359 -0.0903  0.1957
  884YOPE   NH312955   8.733  16.712   6.167  0.0942  0.2226  0.1085
  884YOPE   PO412956   8.964  17.103   6.163  0.1488 -0.0619  0.1129
  884YOPE   GL112957   8.870  17.187   6.640 -0.2904  0.0648  0.0407
  884YOPE   GL212958   8.704  17.003   6.730  0.3237  0.1771  0.1750
  884YOPE   C1A12959   8.873  17.294   7.114 -0.2224 -0.1004 -0.1626
  884YOPE   D2A12960   8.633  17.143   7.414 -0.0465  0.1717  0.1255
  884YOPE   C3A12961   8.580  16.817   7.773  0.3120  0.0773  0.4560
  884YOPE   C4A12962   8.885  16.487   7.912  0.0861  0.2783 -0.1211
  884YOPE   C1B12963   8.385  17.146   6.950 -0.3590 -0.1683  0.2301
  884YOPE   C2B12964   7.938  17.080   7.120  0.3983  0.1723 -0.0774
  884YOPE   D3B12965   7.695  17.284   7.138  0.1944  0.1109 -0.0919
  884YOPE   C4B12966   7.363  17.559   7.319  0.2022  0.2901 -0.2110
  885YOPE   NH312967   7.476   7.893   6.202  0.2676 -0.2142  0.2677
  885YOPE   PO412968   7.159   7.909   6.458  0.0973  0.0394  0.2514
  885YOPE   GL112969   6.893   8.089   6.710  0.1219 -0.2094 -0.3631
  885YOPE   GL212970   6.815   7.876   6.937  0.1903  0.0540 -0.3187
  885YOPE   C1A12971   7.008   8.287   7.095  0.0674  0.0270  0.1174
  885YOPE   D2A12972   7.075   8.412   7.512 -0.2325 -0.0485 -0.1269
  885YOPE   C3A12973   7.210   8.107   7.611  0.1824 -0.2093 -0.1479
  885YOPE   C4A12974   7.335   7.815   7.514  0.1036  0.0995  0.0927
  885YOPE   C1B12975   6.914   7.727   7.326 -0.0600  0.2294 -0.1265
  885YOPE   C2B12976   6.977   7.659   7.758  0.0058  0.0922 -0.2895
  885YOPE   D3B12977   7.066   7.376   8.048  0.2586  0.4720 -0.2152
  885YOPE   C4B12978   6.759   7.165   8.319  0.1760 -0.3713  0.2013
  886YOPE   NH312979   9.864   3.292   6.473 -0.1096 -0.1006  0.0428
  886YOPE   PO412980  10.146   2.974   6.194 -0.0006 -0.0937 -0.0924
  886YOPE   GL112981  10.444   3.115   6.541  0.1125  0.1049 -0.3627
  886YOPE   GL212982  10.264   3.320   6.749  0.4965  0.0893 -0.0069
  886YOPE   C1A12983  10.746   3.325   6.701 -0.0361 -0.2557 -0.3898
  886YOPE   D2A12984  11.098   3.605   6.833 -0.1366  0.3673  0.0227
  886YOPE   C3A12985  11.519   3.402   6.991  0.2656 -0.0956  0.0424
  886YOPE   C4A12986  11.540   3.087   7.321 -0.1759 -0.3057 -0.1117
  886YOPE   C1B12987  10.246   3.526   7.150  0.0708  0.1985  0.2164
  886YOPE   C2B12988   9.969   3.439   7.447 -0.1594 -0.3792 -0.0882
  886YOPE   D3B12989   9.950   3.489   7.904  0.1577 -0.1537 -0.0193
  886YOPE   C4B12990  10.041   3.632   8.365 -0.1339  0.2773  0.2944
  887YOPE   NH312991   1.101  12.215   6.574  0.0088 -0.0773  0.0863
  887YOPE   PO412992   1.381  12.030   6.766  0.2354  0.1092  0.1398
  887YOPE   GL112993   1.545  12.268   7.065 -0.0982  0.0864  0.1261
  887YOPE   GL212994   1.290  12.500   6.943  0.3266 -0.2085  0.1067
  887YOPE   C1A12995   1.583  12.166   7.477 -0.0367 -0.3225 -0.3087
  887YOPE   D2A12996   1.763  12.407   7.830  0.0510 -0.0944  0.1548
  887YOPE   C3A12997   2.103  12.345   8.170  0.0976  0.1496  0.1865
  887YOPE   C4A12998   2.440  12.299   8.411  0.1166 -0.3647 -0.2014
  887YOPE   C1B12999   1.411  12.606   7.427 -0.1708  0.1207  0.0917
  887YOPE   C2B13000   1.248  12.527   7.828 -0.2264 -0.0271  0.0111
  887YOPE   D3B13001   1.345  12.423   8.202  0.2627 -0.0396 -0.2078
  887YOPE   C4B13002   1.711  12.481   8.673 -0.0187  0.2332  0.3937
  888YOPE   NH313003   4.101   2.767   6.535  0.1301  0.2393 -0.2168
  888YOPE   PO413004   3.890   2.470   6.789 -0.0598 -0.0724 -0.0107
  888YOPE   GL113005   4.021   2.489   7.230  0.0293  0.1283 -0.1160
  888YOPE   GL213006   4.055   2.251   7.457 -0.0982 -0.2707 -0.0364
  888YOPE   C1A13007   4.351   2.631   7.526  0.0827  0.1250 -0.1007
  888YOPE   D2A13008   4.259   2.674   7.986  0.1435 -0.1912  0.0135
  888YOPE   C3A13009   4.495   2.770   8.330  0.0609 -0.0880  0.1869
  888YOPE   C4A13010   4.765   2.902   8.611  0.0085  0.2410  0.1771
  888YOPE   C1B13011   3.875   2.365   7.803 -0.0039 -0.2773  0.0850
  888YOPE   C2B13012   3.941   2.463   8.247  0.0849  0.2485 -0.3709
  888YOPE   D3B13013   4.064   2.741   8.547 -0.2028  0.0496  0.0629
  888YOPE   C4B13014   4.342   2.711   8.861  0.0351 -0.0204  0.0516
  889YOPE   NH313015  15.657  12.990   6.476 -0.0728 -0.0281  0.1206
  889YOPE   PO413016  15.917  13.340   6.305  0.0586  0.2386  0.2508
  889YOPE   GL113017  15.847  13.354   6.809 -0.1595 -0.1861  0.2000
  889YOPE   GL213018  16.130  13.456   6.955  0.2528  0.0494  0.0447
  889YOPE   C1A13019  15.799  13.130   7.190  0.1514  0.1680 -0.0085
  889YOPE   D2A13020  15.729  13.263   7.660  0.0369  0.2220 -0.2050
  889YOPE   C3A13021  16.017  13.151   8.008  0.0971 -0.0129  0.2722
  889YOPE   C4A13022  16.269  13.118   8.321  0.3181  0.0153  0.1436
  889YOPE   C1B13023  16.143  13.416   7.381  0.0839  0.3226 -0.2381
  889YOPE   C2B13024  16.371  13.388   7.738  0.0571  0.0412  0.5729
  889YOPE   D3B13025  16.271  13.559   8.145 -0.0172 -0.0393 -0.0854
  889YOPE   C4B13026  16.193  13.553   8.584 -0.0338 -0.1320 -0.0366
  890YOPE   NH313027  17.024   6.483   6.430  0.0942 -0.0579 -0.1411
  890YOPE   PO413028  17.340   6.374   6.727 -0.0385  0.1937  0.2520
  890YOPE   GL113029  16.984   6.314   7.016 -0.0823  0.0282  0.1327
  890YOPE   GL213030  16.953   6.530   7.072 -0.0077  0.0581 -0.1111
  890YOPE   C1A13031  16.540   6.258   7.166  0.0146 -0.0671 -0.1513
  890YOPE   D2A13032  16.459   6.004   7.360  0.1057 -0.0492  0.0753
  890YOPE   C3A13033  16.573   5.939   7.768  0.0716 -0.0052  0.1465
  890YOPE   C4A13034  16.780   6.093   8.154 -0.0891  0.0948  0.0820
  890YOPE   C1B13035  16.833   6.498   7.496 -0.0682 -0.1128  0.0030
  890YOPE   C2B13036  16.876   6.518   7.914 -0.1047  0.1808 -0.1651
  890YOPE   D3B13037  16.843   6.587   8.364 -0.1124  0.2161 -0.0425
  890YOPE   C4B13038  16.983   6.816   8.664  0.1757 -0.3609 -0.2353
  891YOPE   NH313039  14.076   7.568   5.808  0.0218 -0.1172  0.1723
  891YOPE   PO413040  14.457   7.558   5.471 -0.0727  0.1219 -0.3118
  891YOPE   GL113041  14.526   7.525   5.973  0.1165 -0.1039 -0.0561
  891YOPE   GL213042  14.612   7.689   6.145  0.2951 -0.0774 -0.1288
  891YOPE   C1A13043  14.723   7.217   6.318 -0.0064 -0.1486  0.1471
  891YOPE   D2A13044  15.062   7.269   6.608 -0.1665 -0.0905  0.3357
  891YOPE   C3A13045  14.911   7.242   7.032  0.0007  0.0561 -0.0286
  891YOPE   C4A13046  15.084   7.150   7.414  0.1070  0.2750 -0.0446
  891YOPE   C1B13047  14.587   7.578   6.655  0.0301 -0.2400 -0.1779
  891YOPE   C2B13048  14.536   7.536   7.132  0.0012 -0.0889 -0.1466
  891YOPE   D3B13049  14.658   7.401   7.529 -0.3843  0.1520 -0.4039
  891YOPE   C4B13050  14.832   7.345   7.848 -0.0218 -0.0078 -0.0420
  892YOPE   NH313051   1.941   5.900   6.671  0.0459 -0.1073 -0.0303
  892YOPE   PO413052   1.966   6.365   6.694 -0.3209  0.0301  0.0826
  892YOPE   GL113053   2.024   6.533   7.097 -0.1755 -0.2307  0.0014
  892YOPE   GL213054   1.875   6.848   7.217  0.0173 -0.1260 -0.0891
  892YOPE   C1A13055   2.277   6.680   7.476  0.3664 -0.1499 -0.5041
  892YOPE   D2A13056   2.263   6.799   8.008  0.1010 -0.0154  0.0659
  892YOPE   C3A13057   2.310   6.640   8.442  0.2467  0.2102  0.0507
  892YOPE   C4A13058   2.028   6.583   8.802  0.1000 -0.0615 -0.2371
  892YOPE   C1B13059   1.825   6.814   7.704 -0.1011 -0.0915 -0.1758
  892YOPE   C2B13060   1.808   6.926   8.102 -0.2606 -0.2800 -0.1398
  892YOPE   D3B13061   1.540   7.070   8.418  0.0352  0.1681  0.0204
  892YOPE   C4B13062   1.341   7.314   8.717 -0.0840 -0.2199  0.1484
  893YOPE   NH313063   4.489  10.300   6.374  0.1351  0.1717  0.0315
  893YOPE   PO413064   4.823  10.340   6.208  0.2607  0.1689 -0.2704
  893YOPE   GL113065   5.143  10.470   6.446  0.0088 -0.0435 -0.0700
  893YOPE   GL213066   5.329  10.763   6.387 -0.2227  0.1986 -0.0349
  893YOPE   C1A13067   5.371  10.180   6.738  0.2033 -0.1552  0.4308
  893YOPE   D2A13068   5.306   9.755   6.738  0.1744 -0.0576  0.1239
  893YOPE   C3A13069   5.207   9.669   7.062 -0.0426 -0.0102  0.2589
  893YOPE   C4A13070   4.956   9.735   7.438  0.1094  0.0893 -0.0300
  893YOPE   C1B13071   5.450  10.718   6.840  0.1004 -0.0437  0.1909
  893YOPE   C2B13072   5.579  10.611   7.174  0.1097 -0.0280  0.0592
  893YOPE   D3B13073   5.719  10.320   7.600  0.2668  0.0117 -0.3245
  893YOPE   C4B13074   5.702  10.247   8.132 -0.1752  0.0023  0.3057
  894YOPE   NH313075   9.084   8.479   6.012 -0.0889  0.0461  0.1169
  894YOPE   PO413076   9.540   8.536   5.911  0.1293  0.4519 -0.3038
  894YOPE   GL113077   9.718   8.361   6.243 -0.1676 -0.2540 -0.1252
  894YOPE   GL213078  10.055   8.323   6.290 -0.0229  0.1787  0.2320
  894YOPE   C1A13079   9.705   8.311   6.714 -0.2560 -0.0949  0.1374
  894YOPE   D2A13080   9.632   8.222   7.130  0.2709 -0.0743  0.2152
  894YOPE   C3A13081   9.577   8.492   7.486  0.1170  0.3232 -0.1753
  894YOPE   C4A13082   9.389   8.642   7.874  0.4237 -0.0692 -0.1930
  894YOPE   C1B13083  10.075   7.998   6.555  0.0854  0.2246 -0.2086
  894YOPE   C2B13084  10.138   8.007   7.040 -0.2125  0.1880  0.3345
  894YOPE   D3B13085  10.257   7.735   7.411  0.2967  0.0189  0.2616
  894YOPE   C4B13086  10.564   7.510   7.748  0.1893 -0.0564 -0.0520
  895YOPE   NH313087   8.171  13.476   6.031 -0.1692  0.0932 -0.1934
  895YOPE   PO413088   7.916  13.100   5.923 -0.1535 -0.0626  0.1029
  895YOPE   GL113089   7.899  12.944   6.310  0.0292 -0.2666  0.3055
  895YOPE   GL213090   7.880  12.602   6.424 -0.0091 -0.0355 -0.0918
  895YOPE   C1A13091   7.862  12.888   6.831 -0.0841 -0.0409 -0.2754
  895YOPE   D2A13092   8.169  12.935   7.227  0.0218 -0.0916  0.0601
  895YOPE   C3A13093   7.954  13.110   7.584  0.1140  0.2198 -0.3231
  895YOPE   C4A13094   7.763  12.833   7.856 -0.5059 -0.0308  0.0165
  895YOPE   C1B13095   7.628  12.302   6.603  0.0018  0.0909  0.0688
  895YOPE   C2B13096   7.601  12.091   7.080  0.3090  0.4419  0.1639
  895YOPE   D3B13097   7.625  11.962   7.483 -0.1014 -0.1192  0.0896
  895YOPE   C4B13098   7.639  12.327   7.774 -0.1651 -0.2339  0.2161
  896YOPE   NH313099   1.430  16.298   6.477 -0.3519 -0.1733 -0.1351
  896YOPE   PO413100   1.611  15.850   6.497 -0.1050 -0.0260  0.0451
  896YOPE   GL113101   1.464  15.985   6.870  0.0754 -0.0254  0.1160
  896YOPE   GL213102   1.146  15.918   6.962  0.2281  0.3376  0.2810
  896YOPE   C1A13103   1.477  15.915   7.306  0.1960 -0.0848  0.2303
  896YOPE   D2A13104   1.494  16.001   7.743  0.0063 -0.1085  0.2824
  896YOPE   C3A13105   1.494  15.838   8.170 -0.1070 -0.0292  0.0113
  896YOPE   C4A13106   1.416  15.734   8.617 -0.3737 -0.0393  0.0405
  896YOPE   C1B13107   1.017  15.954   7.435 -0.0509  0.1249 -0.1926
  896YOPE   C2B13108   1.009  16.103   7.873 -0.1578  0.1094 -0.1831
  896YOPE   D3B13109   0.993  16.109   8.274  0.1030  0.0123  0.0284
  896YOPE   C4B13110   0.946  15.961   8.806 -0.1332 -0.3560 -0.1135
  897YOPE   NH313111   7.258   8.793   6.382 -0.2395 -0.1580 -0.1577
  897YOPE   PO413112   7.472   9.181   6.673 -0.1080 -0.3153 -0.0066
  897YOPE   GL113113   7.960   9.141   6.796  0.2860 -0.1921 -0.0837
  897YOPE   GL213114   8.120   8.866   6.754  0.2529  0.1296 -0.1400
  897YOPE   C1A13115   8.200   9.326   7.081 -0.2729 -0.1935  0.1705
  897YOPE   D2A13116   8.466   9.309   7.512  0.0875 -0.0423  0.3714
  897YOPE   C3A13117   8.383   9.345   7.908  0.0058  0.0274  0.0086
  897YOPE   C4A13118   8.048   9.484   8.266  0.0042 -0.0462 -0.1281
  897YOPE   C1B13119   8.194   8.523   6.917  0.0530 -0.2264  0.0556
  897YOPE   C2B13120   8.077   8.372   7.349  0.0784 -0.0846 -0.1411
  897YOPE   D3B13121   8.190   8.367   7.749  0.1328 -0.0379 -0.0904
  897YOPE   C4B13122   8.142   8.128   8.107  0.3867  0.1873 -0.0205
  898YOPE   NH313123  16.310   7.281   6.423 -0.1801 -0.0020 -0.1887
  898YOPE   PO413124  16.455   7.563   6.571  0.1284 -0.1569  0.3718
  898YOPE   GL113125  16.191   7.775   6.917 -0.1059  0.0396  0.1241
  898YOPE   GL213126  16.097   8.178   6.992  0.0681  0.0225  0.3128
  898YOPE   C1A13127  16.225   7.738   7.359  0.1096  0.1730  0.0707
  898YOPE   D2A13128  16.156   7.810   7.729  0.0575 -0.1235  0.0391
  898YOPE   C3A13129  16.017   7.583   8.055 -0.1900  0.0918 -0.1444
  898YOPE   C4A13130  15.988   7.602   8.503  0.2845 -0.0909 -0.0053
  898YOPE   C1B13131  16.019   8.265   7.494 -0.1611 -0.4039  0.1158
  898YOPE   C2B13132  15.962   8.256   7.877 -0.3652 -0.3669  0.1983
  898YOPE   D3B13133  16.191   8.038   8.185 -0.5072  0.3153 -0.5329
  898YOPE   C4B13134  16.431   8.043   8.650 -0.0268 -0.1567  0.0025
  899YOPE   NH313135  14.925   1.979   6.773 -0.1916 -0.3953  0.2008
  899YOPE   PO413136  15.329   2.040   6.647 -0.1451  0.1345  0.2524
  899YOPE   GL113137  15.339   1.815   7.058 -0.1030 -0.1194  0.1316
  899YOPE   GL213138  15.195   1.511   7.076 -0.1581  0.1909  0.0862
  899YOPE   C1A13139  15.493   1.715   7.424 -0.1740 -0.2014 -0.3717
  899YOPE   D2A13140  15.629   1.831   7.895  0.2817  0.1475  0.1789
  899YOPE   C3A13141  15.698   1.654   8.213  0.0170  0.4817 -0.1371
  899YOPE   C4A13142  15.680   1.423   8.617 -0.1359 -0.0067 -0.3247
  899YOPE   C1B13143  15.037   1.722   7.449  0.4334 -0.0011  0.1111
  899YOPE   C2B13144  15.176   1.619   7.858 -0.3248  0.0108  0.1410
  899YOPE   D3B13145  15.254   1.382   8.246  0.2115  0.0836  0.3968
  899YOPE   C4B13146  15.137   1.048   8.448  0.1417 -0.0075 -0.3363
  900YOPE   NH313147   5.053   3.751   6.474 -0.1851  0.0805 -0.4174
  900YOPE   PO413148   5.467   3.724   6.307  0.3234 -0.0318  0.0459
  900YOPE   GL113149   5.604   3.565   6.649  0.0214 -0.1736  0.2243
  900YOPE   GL213150   5.712   3.331   6.831 -0.3288 -0.1104 -0.2265
  900YOPE   C1A13151   5.562   3.837   6.996  0.1544 -0.1523 -0.3089
  900YOPE   D2A13152   5.387   4.125   7.314  0.1303 -0.1899 -0.0534
  900YOPE   C3A13153   5.493   4.109   7.735  0.0232  0.1412  0.1259
  900YOPE   C4A13154   5.288   3.956   8.150 -0.3698 -0.0997 -0.1008
  900YOPE   C1B13155   5.735   3.186   7.242  0.1006 -0.2137  0.1603
  900YOPE   C2B13156   5.690   2.943   7.602  0.0557 -0.0980  0.2262
  900YOPE   D3B13157   5.804   2.965   7.992 -0.0054 -0.0626  0.1564
  900YOPE   C4B13158   5.796   2.865   8.372  0.0169  0.3656  0.2307
  901POPC   NC313159   3.389   0.995   6.480 -0.0096 -0.1950 -0.0072
  901POPC   PO413160   3.352   0.644   6.729 -0.1564 -0.0736  0.1678
  901POPC   GL113161   3.056   0.480   7.086  0.0899 -0.1377 -0.1140
  901POPC   GL213162   2.740   0.587   7.153 -0.1017 -0.0762  0.0284
  901POPC   C1A13163   3.086   0.732   7.521  0.1193  0.2320  0.4672
  901POPC   D2A13164   2.995   0.814   7.801  0.2159 -0.2804 -0.1534
  901POPC   C3A13165   2.913   0.803   8.163  0.0466 -0.0468 -0.0692
  901POPC   C4A13166   2.759   0.828   8.612  0.1275  0.3701  0.1359
  901POPC   C1B13167   2.575   0.732   7.562  0.0676  0.0081 -0.0848
  901POPC   C2B13168   2.474   0.502   7.950 -0.0898 -0.0184 -0.1888
  901POPC   C3B13169   2.405   0.631   8.376 -0.0529  0.1077  0.2983
  901POPC   C4B13170   2.285   0.715   8.812  0.1711  0.1399 -0.3243
  902POPC   NC313171  10.429   5.318   6.122  0.1128 -0.0917  0.0668
  902POPC   PO413172  10.664   5.624   6.029  0.1324 -0.1032  0.0979
  902POPC   GL113173  10.631   5.827   6.428  0.0479 -0.2566 -0.2178
  902POPC   GL213174  10.951   5.999   6.473  0.4005  0.2268 -0.3187
  902POPC   C1A13175  10.395   5.948   6.691  0.2711  0.0838 -0.1556
  902POPC   D2A13176  10.217   6.269   6.944 -0.0214 -0.2563 -0.2546
  902POPC   C3A13177  10.255   6.443   7.362 -0.1435  0.1276 -0.0758
  902POPC   C4A13178  10.222   6.707   7.856  0.1909  0.0364 -0.1808
  902POPC   C1B13179  10.741   6.243   6.824  0.0199  0.0941  0.1771
  902POPC   C2B13180  10.702   6.567   7.072  0.1360  0.2150 -0.0694
  902POPC   C3B13181  10.700   6.669   7.509 -0.0676  0.1730 -0.1574
  902POPC   C4B13182  10.605   7.026   7.859 -0.1844  0.3523 -0.0959
  903POPC   NC313183  16.303  15.018   6.153  0.1669 -0.0695  0.1418
  903POPC   PO413184  16.734  14.951   6.096 -0.0420  0.1319 -0.0817
  903POPC   GL113185  16.736  14.739   6.458  0.2837 -0.1514  0.1275
  903POPC   GL213186  16.583  14.971   6.564 -0.2263  0.2333 -0.3924
  903POPC   C1A13187  16.634  14.527   6.757 -0.0072  0.0650  0.2078
  903POPC   D2A13188  16.571  14.425   7.227  0.2411 -0.1671  0.1119
  903POPC   C3A13189  16.464  14.550   7.641  0.1532 -0.0126  0.5107
  903POPC   C4A13190  16.548  14.610   8.062  0.5855  0.0435 -0.1619
  903POPC   C1B13191  16.839  15.008   6.936  0.2085 -0.2486 -0.1084
  903POPC   C2B13192  16.766  15.016   7.400  0.0644  0.0001  0.1897
  903POPC   C3B13193  16.767  15.141   7.852 -0.1184 -0.3562 -0.0882
  903POPC   C4B13194  16.528  15.471   8.119  0.1982 -0.3692  0.0037
  904POPC   NC313195   5.146   2.750   6.283  0.1294 -0.2960 -0.0992
  904POPC   PO413196   4.974   2.873   6.591  0.3028 -0.0511  0.1874
  904POPC   GL113197   4.797   2.920   6.964  0.4066  0.0065  0.0413
  904POPC   GL213198   4.472   2.675   7.035 -0.0658 -0.0610 -0.0632
  904POPC   C1A13199   4.839   2.846   7.447  0.0135  0.1238  0.2256
  904POPC   D2A13200   4.760   2.694   7.835  0.0538  0.1668  0.0216
  904POPC   C3A13201   5.046   2.746   8.176 -0.1102 -0.3287 -0.0255
  904POPC   C4A13202   5.295   2.826   8.591  0.1344  0.0311  0.1168
  904POPC   C1B13203   4.705   2.393   7.242  0.2248  0.0978 -0.1347
  904POPC   C2B13204   5.016   2.250   7.500  0.0981 -0.1199 -0.2864
  904POPC   C3B13205   5.416   2.190   7.748 -0.0807  0.0233  0.1684
  904POPC   C4B13206   5.833   2.061   7.814  0.0679  0.1428 -0.0507
  905POPC   NC313207   7.971  16.339   6.302 -0.2343 -0.2332  0.0325
  905POPC   PO413208   7.715  16.022   6.499  0.1430 -0.1501 -0.0691
  905POPC   GL113209   8.003  15.931   6.765 -0.0938 -0.0973  0.1437
  905POPC   GL213210   8.218  16.105   6.741  0.2101  0.1711  0.0343
  905POPC   C1A13211   8.183  15.731   7.068 -0.1939 -0.0073  0.0074
  905POPC   D2A13212   8.396  15.725   7.477  0.1491  0.0301 -0.3151
  905POPC   C3A13213   8.161  15.550   7.771  0.0669  0.3098 -0.1333
  905POPC   C4A13214   8.009  15.424   8.162 -0.0018 -0.0707  0.0589
  905POPC   C1B13215   8.157  16.227   7.161  0.2230  0.2586 -0.1748
  905POPC   C2B13216   8.481  16.298   7.564  0.0123  0.1860  0.2184
  905POPC   C3B13217   8.660  16.074   7.998 -0.1243  0.0184  0.3081
  905POPC   C4B13218   8.624  15.644   7.907  0.4175 -0.1017 -0.1269
  906POPC   NC313219  11.730  17.372   5.583 -0.1470 -0.1976 -0.1425
  906POPC   PO413220  11.870  17.300   5.997  0.0381  0.1998 -0.0174
  906POPC   GL113221  11.943  17.407   6.383 -0.1709  0.0824  0.0615
  906POPC   GL213222  12.270  17.278   6.462  0.2434 -0.1530 -0.1498
  906POPC   C1A13223  11.824  17.625   6.819  0.2048  0.0013  0.0333
  906POPC   D2A13224  11.561  17.685   7.008  0.4298  0.1440 -0.2141
  906POPC   C3A13225  11.602  17.642   7.428 -0.1525 -0.1181 -0.0592
  906POPC   C4A13226  11.505  17.550   7.877  0.2368 -0.3490 -0.0836
  906POPC   C1B13227  12.141  17.163   6.850  0.0967  0.1537 -0.1755
  906POPC   C2B13228  12.319  16.923   7.274 -0.3127 -0.0369  0.2198
  906POPC   C3B13229  12.263  17.117   7.762  0.1920 -0.2811  0.2655
  906POPC   C4B13230  12.220  17.140   8.113  0.2170 -0.2220 -0.1866
  907POPC   NC313231  16.222   0.674   6.227  0.0549 -0.2736  0.0056
  907POPC   PO413232  16.273   0.981   6.480 -0.3018 -0.0224  0.1089
  907POPC   GL113233  16.121   0.830   6.905 -0.0475  0.0016  0.0292
  907POPC   GL213234  15.718   0.792   6.921 -0.1667  0.3249  0.0597
  907POPC   C1A13235  16.044   1.063   7.323  0.0399 -0.1228  0.3086
  907POPC   D2A13236  15.823   1.403   7.559  0.0926 -0.1139 -0.0366
  907POPC   C3A13237  15.528   1.284   7.861 -0.0080  0.1085  0.1509
  907POPC   C4A13238  15.603   1.103   8.246  0.0246  0.3190 -0.1000
  907POPC   C1B13239  15.866   0.604   7.321 -0.1561 -0.1397 -0.1505
  907POPC   C2B13240  15.832   0.880   7.743 -0.1472  0.1924 -0.2746
  907POPC   C3B13241  15.925   0.793   8.069 -0.1653  0.1103 -0.2155
  907POPC   C4B13242  16.124   0.509   8.493 -0.0074  0.0412 -0.0804
  908POPC   NC313243  16.887   7.499   6.743 -0.1397  0.4810 -0.2429
  908POPC   PO413244  16.813   7.116   6.434  0.1557 -0.2743  0.0196
  908POPC   GL113245  16.602   6.994   6.724 -0.0181 -0.0021  0.0773
  908POPC   GL213246  16.442   7.196   6.923 -0.1963  0.0457 -0.0375
  908POPC   C1A13247  16.466   6.746   7.112 -0.1914  0.1572 -0.0562
  908POPC   D2A13248  16.258   6.862   7.410  0.2210  0.0246 -0.4549
  908POPC   C3A13249  16.049   6.737   7.851  0.1645 -0.2216  0.0357
  908POPC   C4A13250  15.716   6.803   8.175  0.1506  0.1003  0.0728
  908POPC   C1B13251  16.364   7.280   7.287  0.2050  0.0628 -0.2197
  908POPC   C2B13252  16.063   7.286   7.561 -0.1288  0.1586  0.1882
  908POPC   C3B13253  15.823   7.150   7.844 -0.0956  0.0870 -0.0194
  908POPC   C4B13254  15.600   7.335   8.268 -0.0678  0.1238  0.3372
  909POPC   NC313255   5.298   6.026   5.909 -0.1253 -0.1727  0.2722
  909POPC   PO413256   5.056   6.136   6.328 -0.0799 -0.0867  0.0125
  909POPC   GL113257   5.003   6.430   6.700  0.2478 -0.0235 -0.0282
  909POPC   GL213258   5.190   6.713   6.585 -0.0857 -0.1251 -0.2187
  909POPC   C1A13259   5.058   6.533   7.222 -0.2100  0.1102  0.0266
  909POPC   D2A13260   5.076   6.939   7.497  0.0190  0.0174  0.0352
  909POPC   C3A13261   5.175   6.898   7.977  0.1955 -0.1479 -0.0382
  909POPC   C4A13262   5.254   6.784   8.319 -0.2560 -0.2092  0.2989
  909POPC   C1B13263   5.028   6.978   6.976 -0.2015  0.1662  0.0234
  909POPC   C2B13264   5.262   7.306   7.189 -0.2113  0.3882 -0.0259
  909POPC   C3B13265   5.442   7.340   7.591  0.1334 -0.2058 -0.0100
  909POPC   C4B13266   5.539   7.260   8.057  0.2092  0.2207 -0.2200
  910POPC   NC313267   0.205   6.493   6.816 -0.0632 -0.4504 -0.1185
  910POPC   PO413268   0.577   6.176   6.986 -0.1213  0.0370  0.1810
  910POPC   GL113269   0.448   6.384   7.292 -0.1831 -0.0355 -0.0400
  910POPC   GL213270   0.365   6.651   7.283 -0.0264 -0.0594  0.0157
  910POPC   C1A13271   0.541   6.461   7.748  0.0129  0.1326  0.2311
  910POPC   D2A13272   0.747   6.782   7.926  0.1530 -0.0046  0.0520
  910POPC   C3A13273   0.501   6.958   8.192  0.3740  0.0221 -0.2877
  910POPC   C4A13274   0.331   7.072   8.519  0.3383 -0.1666 -0.0318
  910POPC   C1B13275   0.674   6.947   7.420 -0.2331 -0.0929  0.2786
  910POPC   C2B13276   0.721   7.177   7.677  0.1924 -0.0257 -0.0078
  910POPC   C3B13277   0.697   7.344   8.012  0.0665 -0.2704  0.0245
  910POPC   C4B13278   0.797   7.799   8.232  0.2152  0.0275 -0.0569
  911POPC   NC313279   6.425   0.934   6.249  0.2237  0.3207 -0.2167
  911POPC   PO413280   6.797   1.059   6.431  0.1432  0.1725 -0.1622
  911POPC   GL113281   6.803   1.178   6.819 -0.1782  0.0670  0.0435
  911POPC   GL213282   6.748   0.992   7.071 -0.1150 -0.3503  0.0806
  911POPC   C1A13283   6.712   1.444   7.268  0.1045 -0.1913 -0.0691
  911POPC   D2A13284   6.380   1.521   7.531  0.5851 -0.1575  0.1896
  911POPC   C3A13285   6.303   1.864   7.881  0.2678  0.1898  0.0151
  911POPC   C4A13286   6.134   1.963   8.263  0.1565 -0.0926 -0.1164
  911POPC   C1B13287   6.838   1.035   7.480 -0.0592  0.0472  0.1764
  911POPC   C2B13288   6.979   1.000   7.901 -0.3610  0.0018 -0.0154
  911POPC   C3B13289   7.188   1.025   8.202 -0.1816 -0.1295  0.0618
  911POPC   C4B13290   7.356   1.042   8.537  0.2787  0.1197 -0.0078
  912POPC   NC313291   1.646   4.261   6.301  0.0091 -0.1360  0.0581
  912POPC   PO413292   2.006   3.944   6.427  0.0027  0.0174 -0.0783
  912POPC   GL113293   2.070   4.015   6.921  0.1148  0.2015  0.1854
  912POPC   GL213294   2.293   3.962   6.986 -0.0430 -0.1321  0.3321
  912POPC   C1A13295   1.798   4.075   7.282 -0.1694 -0.0222 -0.2084
  912POPC   D2A13296   1.387   4.239   7.396  0.1302 -0.0318 -0.1674
  912POPC   C3A13297   1.423   4.534   7.712  0.1671  0.1512  0.4161
  912POPC   C4A13298   1.450   4.635   8.129  0.0325 -0.2332 -0.1394
  912POPC   C1B13299   2.079   3.676   7.378  0.0799 -0.0331  0.0066
  912POPC   C2B13300   1.832   3.649   7.748  0.2717  0.0765  0.0191
  912POPC   C3B13301   1.736   3.676   8.206 -0.0220  0.1466  0.1904
  912POPC   C4B13302   1.579   3.662   8.710  0.3059  0.2383  0.0672
  913POPC   NC313303   0.664   6.264   6.523 -0.0063 -0.2192 -0.0931
  913POPC   PO413304   0.144   6.119   6.574  0.3400 -0.1362  0.2926
  913POPC   GL113305   0.076   5.964   7.044  0.0552  0.1291 -0.1106
  913POPC   GL213306  -0.023   6.205   7.189 -0.2290  0.0461 -0.0976
  913POPC   C1A13307   0.241   5.725   7.363  0.2506 -0.0349 -0.0840
  913POPC   D2A13308   0.274   5.643   7.786  0.0408 -0.1065  0.0314
  913POPC   C3A13309   0.215   5.602   8.230  0.4339  0.0614  0.0527
  913POPC   C4A13310  -0.127   5.517   8.417 -0.1368 -0.1729  0.0297
  913POPC   C1B13311   0.207   6.101   7.612  0.3066 -0.2039  0.2022
  913POPC   C2B13312   0.174   6.064   8.077 -0.2699  0.3218 -0.0560
  913POPC   C3B13313  -0.004   6.076   8.469  0.0730 -0.0827  0.1293
  913POPC   C4B13314   0.183   6.128   8.823 -0.0594 -0.0658  0.0013
  914POPC   NC313315   9.743   0.454   6.585 -0.0781 -0.2953  0.4033
  914POPC   PO413316   9.537   0.180   6.558 -0.1088 -0.0461 -0.2586
  914POPC   GL113317   9.465   0.240   6.970  0.1303 -0.1554  0.0241
  914POPC   GL213318   9.693   0.112   7.184 -0.0341  0.0634  0.0801
  914POPC   C1A13319   9.059   0.163   7.165  0.1396  0.3506 -0.1470
  914POPC   D2A13320   8.731  -0.026   7.485  0.1327 -0.0832  0.0759
  914POPC   C3A13321   8.783  -0.272   7.829  0.0679 -0.0275  0.0405
  914POPC   C4A13322   8.467  -0.382   8.113 -0.2995  0.1053 -0.2680
  914POPC   C1B13323   9.388   0.319   7.508  0.0660  0.0846 -0.1977
  914POPC   C2B13324   9.004   0.320   7.661  0.0056 -0.1081 -0.3528
  914POPC   C3B13325   8.750   0.575   7.756  0.0390  0.1399 -0.2853
  914POPC   C4B13326   8.513   0.807   8.014  0.0774 -0.0496  0.0324
  915POPC   NC313327  10.536   4.890   5.845 -0.0893  0.2732  0.1058
  915POPC   PO413328  10.877   5.174   5.933 -0.2125  0.0456  0.1512
  915POPC   GL113329  10.864   5.027   6.353 -0.0404 -0.0384  0.0171
  915POPC   GL213330  10.683   5.216   6.617 -0.2099 -0.0228 -0.2565
  915POPC   C1A13331  10.800   4.646   6.588  0.2045 -0.3339  0.3743
  915POPC   D2A13332  10.983   4.593   6.971 -0.1868 -0.0729  0.1073
  915POPC   C3A13333  11.083   4.886   7.333 -0.1098 -0.1643 -0.1131
  915POPC   C4A13334  11.033   5.169   7.569  0.3020 -0.0145  0.0258
  915POPC   C1B13335  10.871   5.558   6.695 -0.0374 -0.0786 -0.1796
  915POPC   C2B13336  10.787   5.833   7.063 -0.2843  0.1656 -0.0594
  915POPC   C3B13337  10.631   6.100   7.336  0.0588 -0.0043  0.0139
  915POPC   C4B13338  10.598   6.155   7.744  0.2126 -0.0614 -0.0539
  916POPC   NC313339  10.989   7.032   5.548 -0.0823 -0.0770  0.1312
  916POPC   PO413340  10.880   6.768   5.189 -0.1302 -0.1467 -0.0424
  916POPC   GL113341  10.698   6.514   5.518 -0.1529  0.2225 -0.0289
  916POPC   GL213342  10.368   6.398   5.526  0.0402 -0.2596 -0.3533
  916POPC   C1A13343  10.665   6.337   5.905  0.0497 -0.4364 -0.0798
  916POPC   D2A13344  10.376   6.291   6.304  0.1357 -0.0323 -0.1113
  916POPC   C3A13345  10.323   6.556   6.570  0.3203  0.0023  0.1586
  916POPC   C4A13346  10.469   6.960   6.910 -0.0089  0.0698  0.1361
  916POPC   C1B13347  10.126   6.754   5.753  0.0514  0.2676  0.3092
  916POPC   C2B13348  10.295   6.994   6.241 -0.1350 -0.2704 -0.0248
  916POPC   C3B13349  10.296   7.285   6.483  0.1474  0.0591 -0.1151
  916POPC   C4B13350  10.166   7.497   6.810  0.0041 -0.0530 -0.2140
  917POPC   NC313351  10.237   8.110   5.495 -0.1030  0.1597  0.1015
  917POPC   PO413352  10.620   7.955   5.677 -0.0129  0.1869  0.3451
  917POPC   GL113353  10.719   7.915   6.154  0.2173  0.2366 -0.3509
  917POPC   GL213354  10.520   8.157   6.212 -0.2247  0.1061  0.2614
  917POPC   C1A13355  10.526   7.787   6.569 -0.0086 -0.2279 -0.0142
  917POPC   D2A13356  10.583   7.795   7.033 -0.6057  0.2215 -0.1379
  917POPC   C3A13357  10.549   7.393   7.204  0.0665 -0.1081  0.2915
  917POPC   C4A13358  10.424   7.022   7.397 -0.3902 -0.0851  0.2999
  917POPC   C1B13359  10.521   8.662   6.284 -0.2302  0.0518  0.0264
  917POPC   C2B13360  10.257   8.927   6.462 -0.2400  0.0289  0.1372
  917POPC   C3B13361  10.005   9.076   6.747 -0.1173 -0.0332  0.2204
  917POPC   C4B13362   9.964   9.035   7.119  0.0315 -0.0104 -0.0020
  918POPC   NC313363   3.766  13.054   6.304  0.0839  0.1937 -0.0068
  918POPC   PO413364   4.263  12.902   6.392 -0.0177  0.2869 -0.1674
  918POPC   GL113365   4.440  12.714   6.732 -0.1365  0.1890  0.2780
  918POPC   GL213366   4.392  12.479   6.781  0.2379 -0.1783 -0.0607
  918POPC   C1A13367   4.890  12.491   6.880 -0.0572  0.0710  0.0043
  918POPC   D2A13368   5.068  12.580   7.243 -0.1996 -0.0218  0.1535
  918POPC   C3A13369   5.528  12.661   7.130  0.1396  0.0401  0.3243
  918POPC   C4A13370   5.955  12.748   7.214 -0.1457 -0.0169 -0.1908
  918POPC   C1B13371   4.116  12.131   7.079  0.0531 -0.0211 -0.3060
  918POPC   C2B13372   3.978  11.895   7.443  0.1132 -0.1158 -0.1301
  918POPC   C3B13373   3.755  11.972   7.825 -0.1921  0.1803 -0.0754
  918POPC   C4B13374   3.714  11.782   8.318 -0.1389  0.0164  0.1390
  919POPC   NC313375  11.538  13.288   6.083 -0.0474  0.1154 -0.0812
  919POPC   PO413376  11.920  13.227   5.893 -0.2470 -0.2860  0.2109
  919POPC   GL113377  12.091  13.505   6.185  0.0216 -0.1939  0.1455
  919POPC   GL213378  11.726  13.635   6.374  0.1802  0.0105 -0.2703
  919POPC   C1A13379  12.199  13.530   6.565 -0.1858 -0.2218 -0.5103
  919POPC   D2A13380  12.023  13.739   6.958 -0.0994 -0.1591  0.2170
  919POPC   C3A13381  11.801  13.614   7.285 -0.3100  0.1807  0.0812
  919POPC   C4A13382  11.644  13.801   7.645 -0.1036  0.2623  0.2802
  919POPC   C1B13383  11.556  13.521   6.815 -0.0208  0.2988 -0.3320
  919POPC   C2B13384  11.697  13.171   6.988  0.1695 -0.3095 -0.0184
  919POPC   C3B13385  12.044  12.870   6.836  0.0282 -0.1337  0.1913
  919POPC   C4B13386  12.437  12.840   7.081 -0.0098 -0.0865 -0.2389
  920POPC   NC313387  11.539   9.961   5.848 -0.1993 -0.0921 -0.0849
  920POPC   PO413388  12.051   9.955   5.934 -0.2900  0.1909 -0.0685
  920POPC   GL113389  11.883   9.795   6.309 -0.0684  0.2367  0.0611
  920POPC   GL213390  12.096   9.759   6.419 -0.1687  0.2256 -0.2493
  920POPC   C1A13391  11.638   9.657   6.676 -0.0635 -0.1837 -0.1026
  920POPC   D2A13392  11.418   9.424   6.967 -0.2559 -0.0218  0.0534
  920POPC   C3A13393  11.294   9.635   7.249 -0.0294  0.1580  0.1499
  920POPC   C4A13394  11.146   9.787   7.639 -0.4087  0.1291 -0.3504
  920POPC   C1B13395  12.465   9.761   6.620  0.1097  0.0173 -0.0490
  920POPC   C2B13396  12.517   9.737   7.117  0.0086 -0.1323  0.0675
  920POPC   C3B13397  12.503   9.890   7.506 -0.3474  0.1407 -0.1100
  920POPC   C4B13398  12.582  10.013   7.884  0.2537 -0.1208  0.0472
  921POPC   NC313399   2.816   3.868   6.198 -0.0365 -0.2253  0.1333
  921POPC   PO413400   3.014   3.622   6.415 -0.0430 -0.0746 -0.0235
  921POPC   GL113401   2.990   3.286   6.730 -0.0689 -0.1079  0.0245
  921POPC   GL213402   3.279   3.219   6.697 -0.1473 -0.2129 -0.1580
  921POPC   C1A13403   2.861   3.409   7.105 -0.2135  0.0834  0.1754
  921POPC   D2A13404   2.516   3.645   7.313 -0.1052 -0.0340  0.1321
  921POPC   C3A13405   2.496   3.697   7.782 -0.0800  0.2810 -0.1353
  921POPC   C4A13406   2.278   3.533   8.188 -0.1470 -0.0036  0.1223
  921POPC   C1B13407   3.388   3.173   7.105  0.1794 -0.2061  0.2677
  921POPC   C2B13408   3.555   3.168   7.559  0.3040 -0.1588 -0.1395
  921POPC   C3B13409   3.360   3.330   7.958 -0.1991  0.0535  0.0727
  921POPC   C4B13410   3.283   3.388   8.500 -0.0446 -0.3413 -0.0139
  922POPC   NC313411   3.050  14.256   6.163  0.2122  0.1464  0.1223
  922POPC   PO413412   3.081  13.837   6.296  0.0245 -0.2958 -0.1410
  922POPC   GL113413   3.264  13.707   6.722 -0.4009 -0.0030 -0.1765
  922POPC   GL213414   3.142  13.450   6.944  0.2425 -0.0103  0.1295
  922POPC   C1A13415   3.301  14.011   7.123  0.0009 -0.0143 -0.1815
  922POPC   D2A13416   3.433  14.249   7.474 -0.1848  0.0764  0.0450
  922POPC   C3A13417   3.589  13.893   7.718  0.2501 -0.0922  0.4422
  922POPC   C4A13418   3.918  13.841   8.043 -0.1407  0.1452  0.2077
  922POPC   C1B13419   3.305  13.067   7.214 -0.1761  0.0823  0.0723
  922POPC   C2B13420   3.387  12.590   7.017  0.3095  0.0921 -0.0023
  922POPC   C3B13421   3.087  12.183   7.145  0.0141  0.3086 -0.1954
  922POPC   C4B13422   2.919  11.748   7.220  0.0613 -0.0559  0.0265
  923POPC   NC313423   0.309  17.448   5.913  0.1631  0.1772 -0.1832
  923POPC   PO413424   0.465  17.258   6.276  0.0796 -0.4164  0.4297
  923POPC   GL113425   0.426  17.045   6.568  0.1099  0.0561 -0.0591
  923POPC   GL213426   0.588  16.714   6.596 -0.0960  0.0652  0.2819
  923POPC   C1A13427   0.463  17.119   6.973 -0.1142  0.1432 -0.1187
  923POPC   D2A13428   0.568  17.159   7.376  0.0875  0.1186 -0.1010
  923POPC   C3A13429   0.579  17.079   7.748  0.2022 -0.1414  0.1561
  923POPC   C4A13430   0.385  16.817   8.000 -0.2024 -0.0606 -0.0788
  923POPC   C1B13431   0.469  16.647   7.009  0.1287  0.2013 -0.0104
  923POPC   C2B13432   0.623  16.579   7.444  0.0720  0.0248  0.0733
  923POPC   C3B13433   0.795  16.591   7.829  0.0621  0.2232 -0.1161
  923POPC   C4B13434   0.668  16.445   8.148  0.1583 -0.0124 -0.0813
  924POPC   NC313435   0.345   4.923   6.519 -0.1080  0.2350  0.0739
  924POPC   PO413436   0.331   4.488   6.278  0.0347  0.2505  0.1953
  924POPC   GL113437   0.415   4.408   6.760 -0.0228 -0.2485 -0.1160
  924POPC   GL213438   0.646   4.624   6.828  0.1753 -0.0428 -0.0878
  924POPC   C1A13439   0.191   4.480   7.142 -0.0367 -0.3205  0.1379
  924POPC   D2A13440  -0.001   4.621   7.574 -0.0073  0.1875  0.1676
  924POPC   C3A13441  -0.058   4.284   7.904 -0.1945 -0.1048  0.1787
  924POPC   C4A13442  -0.033   4.069   8.305  0.2447 -0.1833 -0.2272
  924POPC   C1B13443   0.660   4.793   7.182 -0.1924 -0.0104  0.1160
  924POPC   C2B13444   0.446   4.769   7.506 -0.2126  0.0044 -0.0412
  924POPC   C3B13445   0.345   4.748   8.037  0.2665 -0.0073 -0.0525
  924POPC   C4B13446   0.170   4.821   8.401  0.1016  0.3174 -0.0402
  925POPC   NC313447   1.317  17.195   6.422 -0.1499 -0.1334 -0.1347
  925POPC   PO413448   1.436  16.824   6.601  0.0903 -0.0130 -0.0697
  925POPC   GL113449   1.623  16.927   7.011 -0.0284 -0.2928 -0.1280
  925POPC   GL213450   1.398  17.240   6.889  0.0553 -0.0658 -0.0979
  925POPC   C1A13451   1.671  16.650   7.267  0.0247 -0.2061  0.0557
  925POPC   D2A13452   1.713  16.396   7.639  0.3400 -0.1431 -0.2104
  925POPC   C3A13453   1.861  16.174   8.048 -0.1070 -0.2118  0.0845
  925POPC   C4A13454   2.250  16.193   8.289 -0.0466 -0.1246  0.0823
  925POPC   C1B13455   1.503  17.347   7.318 -0.0510 -0.1226 -0.3409
  925POPC   C2B13456   1.579  17.338   7.703 -0.0753 -0.1356 -0.2051
  925POPC   C3B13457   1.688  17.018   8.073  0.0003 -0.3106  0.0514
  925POPC   C4B13458   1.752  16.641   8.156 -0.1795 -0.0742 -0.0403
  926POPC   NC313459   0.686   9.807   6.187  0.1244  0.3270  0.0678
  926POPC   PO413460   0.643  10.086   6.491 -0.1849  0.0684 -0.2050
  926POPC   GL113461   0.891   9.988   6.855  0.0475  0.1666 -0.2289
  926POPC   GL213462   1.112  10.104   7.034 -0.2966 -0.0836  0.4417
  926POPC   C1A13463   0.686   9.616   7.023  0.0980  0.1477 -0.0199
  926POPC   D2A13464   0.662   9.187   7.101  0.1141  0.1032 -0.3457
  926POPC   C3A13465   0.509   9.060   7.409 -0.2192 -0.2017  0.0491
  926POPC   C4A13466   0.486   9.256   7.787  0.2342 -0.0608 -0.2919
  926POPC   C1B13467   0.883   9.869   7.354  0.1501  0.4591 -0.1903
  926POPC   C2B13468   0.822   9.832   7.796  0.2487  0.3777 -0.1361
  926POPC   C3B13469   0.952   9.498   7.991 -0.0923  0.0141  0.1351
  926POPC   C4B13470   0.685   9.122   8.218 -0.0054  0.3430  0.1056
  927POPC   NC313471   1.822   2.331   6.119  0.2777 -0.0655 -0.1109
  927POPC   PO413472   1.571   2.062   5.989 -0.2204  0.0019  0.2141
  927POPC   GL113473   1.729   1.842   6.464  0.1872  0.0280 -0.1618
  927POPC   GL213474   1.523   1.833   6.619 -0.0558  0.1047  0.2406
  927POPC   C1A13475   2.026   2.000   6.844 -0.0570 -0.1829  0.0161
  927POPC   D2A13476   1.977   2.316   7.184 -0.0842  0.1289  0.0888
  927POPC   C3A13477   2.168   2.803   7.148 -0.1854  0.0432 -0.1100
  927POPC   C4A13478   2.522   2.946   7.337  0.3516  0.0432  0.2527
  927POPC   C1B13479   1.537   2.158   6.945  0.3722  0.1864 -0.0902
  927POPC   C2B13480   1.480   2.210   7.371  0.0331 -0.2770  0.2867
  927POPC   C3B13481   1.481   2.232   7.880 -0.1657  0.1531 -0.0104
  927POPC   C4B13482   1.367   2.340   8.369 -0.0158 -0.0249 -0.0850
  928POPC   NC313483   6.286   6.418   5.734 -0.0469  0.0359 -0.3980
  928POPC   PO413484   5.942   6.128   5.838  0.2313  0.2011  0.2571
  928POPC   GL113485   6.107   6.305   6.212 -0.0258  0.0528  0.0759
  928POPC   GL213486   5.964   6.566   6.398  0.0929 -0.0401 -0.1419
  928POPC   C1A13487   6.380   6.463   6.563 -0.0272 -0.1480  0.1157
  928POPC   D2A13488   6.628   6.662   6.878  0.0682  0.1500 -0.0839
  928POPC   C3A13489   6.621   6.722   7.224  0.3237  0.0454  0.1183
  928POPC   C4A13490   6.475   6.667   7.648  0.1064 -0.1268  0.2687
  928POPC   C1B13491   6.001   6.499   6.854 -0.2367 -0.3233  0.0910
  928POPC   C2B13492   5.847   6.432   7.322 -0.0267  0.0479  0.1465
  928POPC   C3B13493   5.838   6.422   7.681  0.1480 -0.0339  0.0098
  928POPC   C4B13494   5.654   6.515   8.122  0.0142 -0.1132 -0.1542
  929POPC   NC313495  14.438   3.544   6.241  0.0929 -0.0221  0.2682
  929POPC   PO413496  14.740   3.873   6.429  0.1282  0.1705 -0.1630
  929POPC   GL113497  14.479   3.573   6.699 -0.0621  0.3973 -0.1542
  929POPC   GL213498  14.220   3.696   6.703 -0.1821  0.2604 -0.1805
  929POPC   C1A13499  14.505   3.402   7.191  0.0825  0.3266 -0.0061
  929POPC   D2A13500  14.553   3.005   7.480  0.0121  0.0431  0.0068
  929POPC   C3A13501  14.246   2.974   7.714 -0.1961  0.1034 -0.2631
  929POPC   C4A13502  13.894   2.874   8.024  0.0964 -0.0710 -0.2885
  929POPC   C1B13503  14.038   3.420   7.067  0.1110  0.0637  0.0517
  929POPC   C2B13504  14.012   3.301   7.406  0.0353  0.1097 -0.0692
  929POPC   C3B13505  14.024   3.445   7.869 -0.0296 -0.3023  0.1325
  929POPC   C4B13506  13.936   3.711   8.256 -0.3073 -0.0581  0.0963
  930POPC   NC313507   7.034   6.103   6.075 -0.2901 -0.2523 -0.0097
  930POPC   PO413508   7.255   6.514   5.908 -0.1338 -0.0153 -0.0144
  930POPC   GL113509   7.242   6.541   6.382  0.3388 -0.1108 -0.0671
  930POPC   GL213510   6.857   6.357   6.548  0.0357 -0.2058 -0.2051
  930POPC   C1A13511   7.469   6.537   6.726 -0.0002  0.2707  0.2252
  930POPC   D2A13512   7.595   6.735   7.068  0.1045  0.0244  0.2130
  930POPC   C3A13513   7.629   6.643   7.508 -0.1100  0.0912 -0.0902
  930POPC   C4A13514   8.017   6.486   7.644  0.2964  0.0334  0.0072
  930POPC   C1B13515   6.919   6.306   7.016  0.1755  0.1348  0.2113
  930POPC   C2B13516   6.851   6.452   7.496 -0.0144  0.2924 -0.1694
  930POPC   C3B13517   6.770   6.347   7.946 -0.1301 -0.1364 -0.1104
  930POPC   C4B13518   6.636   6.452   8.333 -0.1248  0.2232  0.1727
  931POPC   NC313519   9.724   1.473   5.987  0.0083  0.0590 -0.2441
  931POPC   PO413520  10.111   1.665   5.955  0.1306 -0.4391 -0.0436
  931POPC   GL113521  10.079   1.735   6.331  0.1992 -0.0114  0.1752
  931POPC   GL213522  10.159   2.012   6.449 -0.1879  0.0555 -0.0466
  931POPC   C1A13523   9.678   1.894   6.572 -0.2222 -0.2988  0.0372
  931POPC   D2A13524   9.685   2.066   7.050 -0.1823 -0.3780  0.2843
  931POPC   C3A13525   9.553   2.416   6.986 -0.2367 -0.1025  0.4748
  931POPC   C4A13526   9.646   2.811   6.883 -0.0323  0.0666  0.1612
  931POPC   C1B13527  10.023   2.299   6.745  0.3495  0.2126  0.0220
  931POPC   C2B13528  10.028   2.561   7.081 -0.0129 -0.1581  0.0632
  931POPC   C3B13529   9.705   2.574   7.423 -0.0240 -0.0207 -0.3127
  931POPC   C4B13530   9.788   2.500   7.859 -0.4350  0.0541 -0.0670
  932POPC   NC313531   7.339   9.575   6.363 -0.0005 -0.1040  0.0478
  932POPC   PO413532   7.718   9.864   6.426  0.3428  0.0665 -0.1686
  932POPC   GL113533   7.613   9.653   6.742  0.1556  0.2300 -0.3016
  932POPC   GL213534   7.929   9.661   6.856  0.1421  0.3009 -0.1238
  932POPC   C1A13535   7.573   9.448   7.189  0.2563 -0.0287 -0.1053
  932POPC   D2A13536   7.342   9.283   7.534  0.1765 -0.1996 -0.0625
  932POPC   C3A13537   7.292   9.599   7.932  0.0580 -0.0580  0.3160
  932POPC   C4A13538   7.473   9.803   8.230  0.1025  0.0596  0.0040
  932POPC   C1B13539   8.136   9.766   7.330  0.0308  0.2231  0.1326
  932POPC   C2B13540   8.163   9.786   7.832  0.1659  0.4083  0.2762
  932POPC   C3B13541   7.943   9.941   8.139 -0.0111 -0.0258 -0.0247
  932POPC   C4B13542   7.863   9.800   8.615  0.0912 -0.0638 -0.1431
  933POPC   NC313543   4.649   8.684   6.171 -0.1527 -0.2545  0.0501
  933POPC   PO413544   4.989   8.493   6.437 -0.0252 -0.1767 -0.4033
  933POPC   GL113545   4.687   8.820   6.742 -0.1257  0.0499  0.3357
  933POPC   GL213546   4.889   9.015   6.748  0.2230 -0.0253 -0.0338
  933POPC   C1A13547   4.416   8.797   7.103 -0.1255  0.0367 -0.1698
  933POPC   D2A13548   4.335   8.594   7.514  0.1972 -0.0963 -0.0852
  933POPC   C3A13549   4.448   8.515   7.878 -0.3943 -0.2005  0.0581
  933POPC   C4A13550   4.818   8.448   8.216 -0.1748  0.1213  0.0175
  933POPC   C1B13551   5.079   9.171   7.146 -0.0654 -0.3067 -0.0951
  933POPC   C2B13552   5.273   9.352   7.454  0.0076  0.4278 -0.1118
  933POPC   C3B13553   5.387   9.516   7.844 -0.0962 -0.0400  0.1118
  933POPC   C4B13554   5.359   9.858   8.112 -0.1138  0.0935  0.3650
  934POPC   NC313555  17.625   1.764   6.360 -0.2988 -0.1587 -0.0827
  934POPC   PO413556  17.172   1.696   6.286  0.0561 -0.1548 -0.0164
  934POPC   GL113557  17.033   1.663   6.716  0.1690 -0.2476 -0.2130
  934POPC   GL213558  16.892   1.968   6.829 -0.0497  0.0581 -0.1791
  934POPC   C1A13559  16.893   1.518   7.127  0.0805 -0.0755  0.0368
  934POPC   D2A13560  16.951   1.618   7.539 -0.2967 -0.1758 -0.1266
  934POPC   C3A13561  17.142   1.441   7.898 -0.3833 -0.3019 -0.2045
  934POPC   C4A13562  17.129   1.096   7.922  0.2302  0.0416  0.0082
  934POPC   C1B13563  16.483   1.972   7.161 -0.3393  0.2088 -0.3147
  934POPC   C2B13564  16.525   2.029   7.647 -0.3045  0.2717  0.0407
  934POPC   C3B13565  16.498   2.317   7.967  0.0133  0.3898 -0.1737
  934POPC   C4B13566  16.424   2.641   8.225 -0.1836 -0.0026  0.0003
  935POPC   NC313567   4.587  12.921   6.032  0.1129 -0.0987 -0.1869
  935POPC   PO413568   4.854  13.262   6.170  0.2126 -0.0302 -0.2899
  935POPC   GL113569   4.905  12.940   6.567  0.1308 -0.2185  0.1448
  935POPC   GL213570   4.719  13.166   6.727 -0.2214  0.1017  0.0686
  935POPC   C1A13571   5.195  12.966   6.953  0.0870 -0.1195  0.2371
  935POPC   D2A13572   5.126  13.124   7.369  0.0628  0.0844 -0.1602
  935POPC   C3A13573   5.147  13.281   7.842  0.1431  0.2829 -0.0511
  935POPC   C4A13574   5.596  13.371   7.896 -0.1478 -0.0302  0.0558
  935POPC   C1B13575   4.705  12.920   7.145  0.0696  0.1962  0.2016
  935POPC   C2B13576   4.864  12.816   7.637  0.1550 -0.0483 -0.0920
  935POPC   C3B13577   5.100  12.775   8.078  0.3215  0.0970  0.1482
  935POPC   C4B13578   5.458  12.630   8.134 -0.0846  0.3023 -0.0468
  936POPC   NC313579   7.669   6.774   5.515 -0.4270  0.1732  0.2273
  936POPC   PO413580   8.169   6.832   5.535 -0.1465 -0.1999  0.0648
  936POPC   GL113581   8.125   6.822   6.084 -0.0448 -0.2039  0.1325
  936POPC   GL213582   8.346   6.782   6.280 -0.3792 -0.1338 -0.0550
  936POPC   C1A13583   7.948   7.074   6.445 -0.2133 -0.1862  0.0801
  936POPC   D2A13584   7.618   7.126   6.746  0.2342 -0.2144 -0.2267
  936POPC   C3A13585   7.499   7.504   7.140 -0.1127 -0.3903  0.3809
  936POPC   C4A13586   7.295   7.884   7.045  0.1654  0.1795 -0.2405
  936POPC   C1B13587   8.372   6.906   6.671 -0.1251  0.1582 -0.1959
  936POPC   C2B13588   8.131   7.150   6.929 -0.0654  0.2077 -0.1426
  936POPC   C3B13589   7.820   7.181   7.229  0.0512  0.0954  0.1097
  936POPC   C4B13590   7.839   7.525   7.548 -0.0945  0.4281 -0.0812
  937POPC   NC313591  15.805   0.886   6.401 -0.2297 -0.0729  0.1927
  937POPC   PO413592  15.409   0.989   6.447 -0.0267  0.0777  0.1122
  937POPC   GL113593  15.229   1.085   6.844  0.0440  0.0748 -0.0851
  937POPC   GL213594  15.156   0.729   6.938 -0.1782 -0.3976 -0.0467
  937POPC   C1A13595  14.889   1.116   7.157  0.1437 -0.1298 -0.1215
  937POPC   D2A13596  14.851   0.850   7.476  0.0168  0.1832 -0.0923
  937POPC   C3A13597  14.691   0.727   7.938  0.0304 -0.0498 -0.3629
  937POPC   C4A13598  14.818   0.717   8.328  0.1038 -0.2521 -0.1172
  937POPC   C1B13599  15.296   0.726   7.290  0.3913  0.1406 -0.0288
  937POPC   C2B13600  15.373   0.790   7.591  0.1854 -0.4155 -0.0010
  937POPC   C3B13601  15.340   0.693   8.025  0.0455 -0.0178  0.2439
  937POPC   C4B13602  15.433   0.628   8.413  0.2729 -0.0228  0.2277
  938POPC   NC313603   6.673  16.350   6.163  0.3170 -0.0991 -0.2076
  938POPC   PO413604   6.539  16.729   6.426  0.3625  0.1133  0.1108
  938POPC   GL113605   6.683  16.784   6.820  0.0744 -0.2110 -0.0333
  938POPC   GL213606   6.307  16.789   7.028  0.1715 -0.2709 -0.2048
  938POPC   C1A13607   6.729  17.021   7.138  0.0894 -0.0112 -0.1040
  938POPC   D2A13608   6.628  17.009   7.535 -0.2030 -0.0820  0.1389
  938POPC   C3A13609   6.601  17.361   7.789 -0.2462 -0.0432  0.3595
  938POPC   C4A13610   6.437  17.732   7.758  0.0627 -0.0704  0.0277
  938POPC   C1B13611   6.151  16.916   7.373 -0.1361 -0.1693  0.0491
  938POPC   C2B13612   6.197  16.946   7.781 -0.0452 -0.2437  0.0922
  938POPC   C3B13613   6.518  16.913   8.165 -0.1477 -0.0995  0.4172
  938POPC   C4B13614   6.692  16.878   8.560 -0.0766  0.0257  0.0312
  939POPC   NC313615  15.321  11.478   6.278 -0.0286  0.0191  0.1682
  939POPC   PO413616  14.947  11.575   6.303 -0.0736 -0.0167  0.1774
  939POPC   GL113617  14.915  11.305   6.654 -0.0926 -0.3415  0.0605
  939POPC   GL213618  15.180  11.128   6.736 -0.2368 -0.3039  0.3015
  939POPC   C1A13619  14.815  11.131   7.135  0.2832 -0.2715  0.0639
  939POPC   D2A13620  14.778  11.062   7.614 -0.0150  0.1529 -0.0696
  939POPC   C3A13621  15.105  11.256   7.954  0.2212  0.1453  0.0035
  939POPC   C4A13622  15.480  11.400   8.030 -0.3344 -0.1645 -0.2503
  939POPC   C1B13623  15.299  11.458   7.091  0.2497 -0.0135 -0.2746
  939POPC   C2B13624  15.474  11.721   7.392  0.2767  0.1008  0.3635
  939POPC   C3B13625  15.743  11.836   7.690  0.0596  0.0666  0.2097
  939POPC   C4B13626  15.885  11.714   8.223 -0.0381  0.1838  0.3915
  940POPC   NC313627  13.980   2.280   6.170  0.2674 -0.1359  0.1905
  940POPC   PO413628  13.805   2.661   6.123 -0.2454 -0.1774  0.1661
  940POPC   GL113629  13.857   2.496   6.590 -0.3354  0.2154  0.1346
  940POPC   GL213630  14.117   2.453   6.808  0.1759 -0.1956 -0.1007
  940POPC   C1A13631  13.685   2.490   7.080  0.2529 -0.0709 -0.1409
  940POPC   D2A13632  13.742   2.670   7.501 -0.1522  0.0324 -0.1942
  940POPC   C3A13633  13.671   2.433   7.890  0.0163 -0.3323 -0.0885
  940POPC   C4A13634  13.845   2.420   8.267  0.1063  0.3068  0.0788
  940POPC   C1B13635  14.412   2.345   7.156  0.0211  0.0258 -0.1936
  940POPC   C2B13636  14.548   2.039   7.411 -0.2405  0.1242  0.0656
  940POPC   C3B13637  14.466   1.700   7.549  0.2727  0.0811  0.1889
  940POPC   C4B13638  14.704   1.386   7.612 -0.2836  0.1530  0.0004
  941YOPC   NC313639  11.001   0.896   6.102  0.1382  0.0730 -0.0336
  941YOPC   PO413640  11.220   0.592   6.182  0.1479 -0.0974 -0.0585
  941YOPC   GL113641  11.406   0.627   6.575  0.2527 -0.0450 -0.1334
  941YOPC   GL213642  11.697   0.801   6.511  0.0382  0.0782  0.0122
  941YOPC   C1A13643  11.385   0.622   7.076  0.1416  0.2789 -0.3185
  941YOPC   D2A13644  11.383   0.415   7.589  0.1078  0.1236  0.0376
  941YOPC   C3A13645  11.530   0.714   7.917 -0.1558 -0.1727  0.4512
  941YOPC   C4A13646  11.836   0.991   8.009 -0.1684  0.0263 -0.0178
  941YOPC   C1B13647  11.806   0.612   6.906 -0.0388 -0.2689 -0.0223
  941YOPC   C2B13648  11.807   0.413   7.219 -0.0575 -0.4684  0.0493
  941YOPC   D3B13649  11.885   0.490   7.669  0.1265 -0.0414 -0.1468
  941YOPC   C4B13650  12.052   0.512   8.037 -0.2685  0.1693 -0.1200
  942YOPC   NC313651  14.427   0.535   5.920 -0.0413 -0.2241  0.2906
  942YOPC   PO413652  14.704   0.307   6.064 -0.0894 -0.3431  0.0702
  942YOPC   GL113653  14.489   0.354   6.439 -0.0392 -0.0644 -0.3633
  942YOPC   GL213654  14.237   0.233   6.335 -0.2974 -0.1281 -0.0352
  942YOPC   C1A13655  14.350   0.246   6.882 -0.1344  0.0796  0.0933
  942YOPC   D2A13656  14.434   0.499   7.273  0.4904 -0.3322 -0.0673
  942YOPC   C3A13657  14.530   0.277   7.611  0.1375  0.2474  0.0727
  942YOPC   C4A13658  14.575   0.209   8.049 -0.1070 -0.1186 -0.1014
  942YOPC   C1B13659  13.926   0.372   6.590  0.3394  0.3367 -0.0017
  942YOPC   C2B13660  13.600   0.207   6.883  0.1678 -0.1765  0.1127
  942YOPC   D3B13661  13.357   0.337   7.271  0.1310 -0.1963 -0.1427
  942YOPC   C4B13662  13.630   0.246   7.603  0.3738 -0.2814  0.2016
  943YOPC   NC313663  10.180  17.568   5.990  0.2835  0.3627  0.2130
  943YOPC   PO413664  10.040  17.795   6.308 -0.1016  0.0166  0.0239
  943YOPC   GL113665   9.968  17.631   6.716 -0.1965 -0.2254  0.2622
  943YOPC   GL213666  10.217  17.674   6.842  0.1060  0.0560 -0.2798
  943YOPC   C1A13667   9.910  17.285   7.093  0.3140  0.1165  0.2948
  943YOPC   D2A13668   9.898  17.261   7.559  0.1412 -0.1322  0.2035
  943YOPC   C3A13669   9.748  17.339   7.999 -0.1160 -0.3236  0.0897
  943YOPC   C4A13670   9.820  17.364   8.464 -0.0228 -0.6037  0.0906
  943YOPC   C1B13671  10.147  17.661   7.310  0.2583 -0.0509 -0.3275
  943YOPC   C2B13672   9.990  17.764   7.669  0.2443 -0.1139 -0.0233
  943YOPC   D3B13673   9.693  17.888   7.933 -0.1059 -0.2152 -0.3005
  943YOPC   C4B13674   9.278  18.160   8.031 -0.1237  0.0228 -0.0528
  944YOPC   NC313675  11.868   4.146   5.339  0.0327  0.2249 -0.0704
  944YOPC   PO413676  11.800   4.212   5.740 -0.0204 -0.1605  0.2810
  944YOPC   GL113677  11.939   4.085   6.152  0.1201  0.0743 -0.2522
  944YOPC   GL213678  11.738   4.063   6.437 -0.0373 -0.1582 -0.1479
  944YOPC   C1A13679  12.169   3.775   6.463  0.0494 -0.1172 -0.0644
  944YOPC   D2A13680  12.459   3.725   6.826 -0.0632 -0.0146  0.1972
  944YOPC   C3A13681  12.465   3.821   7.204 -0.0095  0.0062 -0.2531
  944YOPC   C4A13682  12.797   3.966   7.638 -0.2066 -0.3297  0.0713
  944YOPC   C1B13683  11.479   3.902   6.699 -0.2775  0.0959  0.0077
  944YOPC   C2B13684  11.623   3.867   7.152 -0.2481  0.1765  0.1189
  944YOPC   D3B13685  11.490   3.651   7.447 -0.0602  0.1005 -0.5096
  944YOPC   C4B13686  11.250   3.291   7.767 -0.0936  0.0705 -0.0027
  945YOPC   NC313687  12.470   8.540   6.181 -0.0713 -0.0635  0.0409
  945YOPC   PO413688  12.934   8.503   6.062 -0.0001  0.1180  0.2419
  945YOPC   GL113689  13.050   8.836   6.356 -0.0085  0.2386  0.0529
  945YOPC   GL213690  12.802   8.976   6.515 -0.0779  0.2613  0.0742
  945YOPC   C1A13691  13.196   8.718   6.724 -0.1525  0.1216 -0.0403
  945YOPC   D2A13692  13.209   8.600   7.160 -0.0630  0.1229  0.0671
  945YOPC   C3A13693  12.857   8.434   7.384  0.2133  0.1552  0.0812
  945YOPC   C4A13694  12.430   8.479   7.231 -0.4159  0.1477  0.0516
  945YOPC   C1B13695  12.853   9.014   6.976  0.1499  0.3716  0.1116
  945YOPC   C2B13696  12.767   8.973   7.345 -0.2575 -0.0827  0.2234
  945YOPC   D3B13697  13.066   8.811   7.605 -0.2970 -0.0207  0.0320
  945YOPC   C4B13698  13.238   8.918   8.058  0.2416  0.1509 -0.0336
  946YOPC   NC313699   4.782   0.229   6.573  0.2343 -0.2461  0.1127
  946YOPC   PO413700   4.668   0.663   6.667 -0.1861  0.0321  0.1525
  946YOPC   GL113701   4.813   0.981   6.923 -0.1247 -0.2404  0.2628
  946YOPC   GL213702   5.168   0.923   7.012  0.2584 -0.1036 -0.3480
  946YOPC   C1A13703   4.990   1.170   7.393 -0.1396 -0.1596 -0.0226
  946YOPC   D2A13704   5.072   1.313   7.859  0.1184 -0.0556 -0.1150
  946YOPC   C3A13705   5.122   1.536   8.323 -0.1482 -0.2514  0.2213
  946YOPC   C4A13706   5.151   1.180   8.668 -0.0895 -0.1159 -0.0282
  946YOPC   C1B13707   5.325   0.787   7.349  0.0048 -0.1620  0.1985
  946YOPC   C2B13708   5.463   0.949   7.729 -0.1700 -0.3593 -0.3065
  946YOPC   D3B13709   5.543   1.150   8.038 -0.1736  0.1435  0.1613
  946YOPC   C4B13710   5.521   1.167   8.419 -0.2709 -0.2973  0.2630
  947YOPC   NC313711  11.438   2.823   5.807 -0.1754 -0.2284  0.0714
  947YOPC   PO413712  11.113   2.869   6.120 -0.0993  0.2173 -0.2637
  947YOPC   GL113713  11.215   2.872   6.504  0.3394 -0.1022 -0.0003
  947YOPC   GL213714  11.337   3.278   6.505 -0.1005 -0.2159 -0.1803
  947YOPC   C1A13715  11.117   3.103   6.922  0.1942  0.0973  0.0336
  947YOPC   D2A13716  10.996   3.394   7.301  0.0463  0.0364 -0.1908
  947YOPC   C3A13717  10.762   3.165   7.699 -0.2511  0.2712 -0.0334
  947YOPC   C4A13718  10.619   2.958   8.178 -0.1191  0.0298 -0.1384
  947YOPC   C1B13719  11.711   3.543   6.454 -0.0369 -0.0992  0.0535
  947YOPC   C2B13720  11.970   3.585   6.848  0.1866  0.1020 -0.0791
  947YOPC   D3B13721  12.034   3.536   7.282  0.0190 -0.0858 -0.0890
  947YOPC   C4B13722  12.195   3.581   7.628  0.2251 -0.0857  0.0857
  948YOPC   NC313723  14.569  14.952   6.276 -0.1374  0.0272  0.2139
  948YOPC   PO413724  14.917  14.990   6.017 -0.0335  0.2589 -0.0698
  948YOPC   GL113725  15.115  15.154   6.285  0.2402  0.0245  0.2375
  948YOPC   GL213726  14.945  15.159   6.573 -0.4240 -0.1175 -0.1693
  948YOPC   C1A13727  15.324  15.519   6.531 -0.1579 -0.0088  0.0628
  948YOPC   D2A13728  15.655  15.526   6.676  0.0912 -0.0727  0.1538
  948YOPC   C3A13729  15.753  15.827   6.960  0.1699 -0.0076 -0.0064
  948YOPC   C4A13730  16.093  15.725   7.259 -0.1653 -0.3282  0.2822
  948YOPC   C1B13731  15.000  15.394   6.872 -0.0997 -0.1364 -0.1134
  948YOPC   C2B13732  15.213  15.745   6.947  0.1995 -0.0116 -0.1984
  948YOPC   D3B13733  15.489  15.698   7.321  0.0694 -0.0148 -0.2716
  948YOPC   C4B13734  15.715  15.840   7.660 -0.0005 -0.3376  0.0083
  949YOPC   NC313735  13.082   7.647   5.904 -0.1924 -0.1051 -0.1621
  949YOPC   PO413736  12.872   7.649   6.256  0.0460 -0.1077 -0.2867
  949YOPC   GL113737  13.063   7.644   6.610 -0.1740  0.1946 -0.1346
  949YOPC   GL213738  13.248   7.865   6.620 -0.1074  0.1552 -0.1929
  949YOPC   C1A13739  13.003   7.570   7.071  0.3071 -0.0604 -0.0272
  949YOPC   D2A13740  12.925   7.574   7.489 -0.2435 -0.0683 -0.0718
  949YOPC   C3A13741  13.240   7.767   7.595  0.0002  0.0667  0.0198
  949YOPC   C4A13742  13.733   7.988   7.725  0.2476 -0.0333  0.3093
  949YOPC   C1B13743  13.079   8.248   6.624 -0.3171 -0.1911 -0.2156
  949YOPC   C2B13744  12.730   8.527   6.848  0.0894 -0.0116 -0.0745
  949YOPC   D3B13745  12.384   8.514   6.648 -0.2618  0.1262 -0.1125
  949YOPC   C4B13746  11.985   8.506   6.729 -0.1191 -0.1851 -0.1127
  950YOPC   NC313747  15.394   8.068   6.214  0.0512 -0.0676 -0.3117
  950YOPC   PO413748  15.061   8.002   6.052 -0.0441 -0.0179  0.0953
  950YOPC   GL113749  15.062   8.374   6.353  0.1521  0.1372  0.1840
  950YOPC   GL213750  14.911   8.738   6.258 -0.1367 -0.1756  0.0750
  950YOPC   C1A13751  15.088   8.358   6.781  0.1303 -0.1575  0.2480
  950YOPC   D2A13752  15.152   8.286   7.223  0.3253 -0.3228 -0.0520
  950YOPC   C3A13753  14.953   8.367   7.557  0.0769 -0.0070  0.1480
  950YOPC   C4A13754  14.630   8.365   7.838  0.1290 -0.1465  0.0478
  950YOPC   C1B13755  15.058   8.923   6.637 -0.0645 -0.1408  0.1532
  950YOPC   C2B13756  14.973   9.370   6.648  0.1190 -0.3739 -0.2105
  950YOPC   D3B13757  14.985   9.392   7.164  0.1128 -0.0063  0.1386
  950YOPC   C4B13758  14.682   9.407   7.547  0.1514  0.0395 -0.2755
  951YOPC   NC313759  15.853   0.127   5.725  0.0239 -0.2269 -0.0623
  951YOPC   PO413760  15.861   0.410   6.087  0.2269 -0.0894 -0.1685
  951YOPC   GL113761  15.959   0.315   6.417  0.2262  0.2235 -0.5293
  951YOPC   GL213762  16.242   0.398   6.644 -0.0342  0.0710 -0.0909
  951YOPC   C1A13763  15.733   0.312   6.845  0.2051 -0.0903  0.2594
  951YOPC   D2A13764  15.386   0.234   7.062 -0.0209 -0.1206  0.0773
  951YOPC   C3A13765  15.439   0.286   7.423 -0.0215 -0.3913 -0.1703
  951YOPC   C4A13766  15.663   0.369   7.762  0.0320 -0.0591 -0.0176
  951YOPC   C1B13767  16.143  -0.006   6.818  0.0088  0.0439  0.3235
  951YOPC   C2B13768  16.195  -0.123   7.293 -0.2783 -0.2358 -0.0706
  951YOPC   D3B13769  16.097   0.207   7.591 -0.0551 -0.0667  0.2459
  951YOPC   C4B13770  16.049   0.319   8.069 -0.1332  0.3888 -0.2559
  952YOPC   NC313771   1.519  15.349   6.495 -0.2484  0.0883  0.0294
  952YOPC   PO413772   1.045  15.324   6.381 -0.0699 -0.0865  0.1464
  952YOPC   GL113773   0.915  15.490   6.741  0.1408  0.0202  0.0858
  952YOPC   GL213774   0.684  15.198   6.861 -0.1214  0.2140 -0.1852
  952YOPC   C1A13775   1.115  15.435   7.156 -0.1476  0.1481  0.2610
  952YOPC   D2A13776   1.062  15.377   7.514  0.1526 -0.1907  0.1047
  952YOPC   C3A13777   1.130  15.579   7.956  0.0931  0.2287  0.0776
  952YOPC   C4A13778   0.935  15.617   8.422 -0.2389 -0.0901 -0.2606
  952YOPC   C1B13779   0.796  14.995   7.198 -0.0606  0.0458  0.0877
  952YOPC   C2B13780   0.825  14.989   7.660  0.1211  0.1026 -0.0345
  952YOPC   D3B13781   1.101  15.027   7.900 -0.1407 -0.1417 -0.0643
  952YOPC   C4B13782   1.120  14.874   8.323  0.0441 -0.2416  0.2243
  953YOPC   NC313783  14.169  17.598   5.883  0.1488 -0.2203  0.0211
  953YOPC   PO413784  13.727  17.531   5.801 -0.1288 -0.2097 -0.0331
  953YOPC   GL113785  13.787  17.354   6.175  0.0824 -0.1689  0.3044
  953YOPC   GL213786  13.891  17.535   6.309  0.1649  0.0968  0.0489
  953YOPC   C1A13787  14.053  17.090   6.426  0.2357  0.0377 -0.1655
  953YOPC   D2A13788  13.986  17.020   6.843 -0.0427  0.0027 -0.1983
  953YOPC   C3A13789  14.038  17.054   7.321  0.0367 -0.0751 -0.0175
  953YOPC   C4A13790  14.086  17.305   7.589 -0.0381  0.0615 -0.0268
  953YOPC   C1B13791  13.843  17.486   6.759 -0.0423 -0.0996 -0.0760
  953YOPC   C2B13792  13.740  17.430   7.212  0.0324 -0.3107  0.1316
  953YOPC   D3B13793  13.599  17.093   7.509 -0.0229 -0.0077  0.0684
  953YOPC   C4B13794  13.876  16.998   7.915 -0.0783  0.1766 -0.1600
  954YOPC   NC313795  10.511   0.896   5.891  0.0249  0.0307  0.0586
  954YOPC   PO413796  10.508   0.884   6.328 -0.1396 -0.0638 -0.0953
  954YOPC   GL113797  10.642   0.940   6.740  0.0729  0.0021  0.0664
  954YOPC   GL213798  10.985   0.833   6.720 -0.0726 -0.0513  0.2199
  954YOPC   C1A13799  10.795   0.654   7.152  0.0434  0.0419 -0.1137
  954YOPC   D2A13800  10.914   0.482   7.595  0.0644 -0.0497  0.0698
  954YOPC   C3A13801  10.510   0.362   7.823 -0.7087 -0.0301  0.6583
  954YOPC   C4A13802  10.187   0.505   7.961  0.0911 -0.1165 -0.0286
  954YOPC   C1B13803  11.292   1.084   6.972  0.1612  0.0889  0.0878
  954YOPC   C2B13804  11.299   1.391   7.252  0.1477  0.0330  0.0713
  954YOPC   D3B13805  11.166   1.398   7.748  0.0186 -0.0101  0.1672
  954YOPC   C4B13806  11.427   1.299   7.935  0.2425 -0.0155  0.0930
  955YOPC   NC313807   3.388  16.723   5.885 -0.1834  0.0859 -0.0940
  955YOPC   PO413808   3.373  16.942   6.289 -0.0593  0.2110 -0.2552
  955YOPC   GL113809   3.451  16.744   6.613  0.0775  0.1643 -0.0670
  955YOPC   GL213810   3.812  16.629   6.643 -0.1658  0.3211  0.0590
  955YOPC   C1A13811   3.462  16.596   6.983  0.0529 -0.0562 -0.0341
  955YOPC   D2A13812   3.605  16.362   7.364 -0.1048  0.0242  0.0847
  955YOPC   C3A13813   3.390  16.404   7.642  0.2133  0.1206 -0.1012
  955YOPC   C4A13814   3.122  16.319   7.996 -0.3768  0.0366  0.0018
  955YOPC   C1B13815   3.948  16.597   7.132  0.1038  0.0258 -0.1464
  955YOPC   C2B13816   4.242  16.517   7.437  0.1998  0.0900 -0.1332
  955YOPC   D3B13817   4.506  16.668   7.803  0.4852  0.0405 -0.1952
  955YOPC   C4B13818   4.686  16.688   8.250 -0.0615  0.1719  0.1435
  956YOPC   NC313819   9.283  16.049   6.035  0.1947  0.0146  0.0222
  956YOPC   PO413820   8.898  16.238   6.062  0.0386  0.0671  0.1740
  956YOPC   GL113821   9.007  16.285   6.398 -0.1268 -0.1438  0.4762
  956YOPC   GL213822   8.942  16.036   6.631  0.1643  0.0594  0.3350
  956YOPC   C1A13823   9.382  16.339   6.650  0.0000 -0.2219 -0.3006
  956YOPC   D2A13824   9.844  16.325   6.729  0.0503 -0.1368  0.0866
  956YOPC   C3A13825  10.010  16.301   7.124  0.1196 -0.2562  0.0258
  956YOPC   C4A13826  10.364  16.415   7.406  0.2831 -0.2638 -0.0788
  956YOPC   C1B13827   9.111  16.123   7.044  0.1482 -0.2208 -0.1019
  956YOPC   C2B13828   9.511  16.429   7.132 -0.0244 -0.0263  0.0990
  956YOPC   D3B13829   9.711  16.369   7.558  0.2451 -0.1880 -0.0392
  956YOPC   C4B13830   9.933  16.348   7.939  0.4124  0.2035  0.1645
  957YOPC   NC313831   9.741  12.012   5.861  0.3184 -0.0300 -0.2309
  957YOPC   PO413832   9.427  12.107   6.134 -0.2948  0.2866  0.1860
  957YOPC   GL113833   9.451  12.172   6.556  0.0279 -0.1608 -0.0165
  957YOPC   GL213834   9.174  12.324   6.702  0.2505  0.0193  0.0210
  957YOPC   C1A13835   9.449  11.991   7.027  0.0847 -0.2965 -0.1226
  957YOPC   D2A13836   9.517  12.053   7.472 -0.1984  0.2217  0.0762
  957YOPC   C3A13837   9.137  12.147   7.791 -0.4331 -0.0923  0.1979
  957YOPC   C4A13838   9.072  12.295   8.177 -0.2525  0.2376  0.3926
  957YOPC   C1B13839   9.044  12.315   7.141  0.1019  0.1663  0.1336
  957YOPC   C2B13840   9.070  12.432   7.409 -0.2151 -0.1126  0.0011
  957YOPC   D3B13841   9.465  12.559   7.452 -0.2069  0.1559 -0.0947
  957YOPC   C4B13842   9.792  12.732   7.392  0.1829 -0.1161 -0.1351
  958YOPC   NC313843  17.236  11.958   5.975 -0.0088 -0.1110  0.1584
  958YOPC   PO413844  17.655  12.152   6.034 -0.1543  0.1282  0.2072
  958YOPC   GL113845  17.370  12.140   6.411  0.2789 -0.4101 -0.0092
  958YOPC   GL213846  17.120  11.879   6.544  0.4160  0.1259 -0.2566
  958YOPC   C1A13847  17.395  12.283   6.791 -0.0352  0.4489 -0.1254
  958YOPC   D2A13848  17.425  12.321   7.269 -0.2747  0.2212 -0.2063
  958YOPC   C3A13849  17.265  12.234   7.583 -0.0976 -0.2152 -0.2209
  958YOPC   C4A13850  17.181  12.377   8.041  0.1908  0.0723  0.0104
  958YOPC   C1B13851  16.692  11.853   6.693  0.0837  0.0706  0.3237
  958YOPC   C2B13852  16.500  11.851   7.004 -0.1690  0.0695  0.1093
  958YOPC   D3B13853  16.023  11.721   6.991 -0.1031 -0.0121  0.3440
  958YOPC   C4B13854  15.664  11.865   6.911 -0.0215 -0.5178 -0.1436
  959YOPC   NC313855   0.807   7.528   6.133  0.0376  0.3832 -0.0356
  959YOPC   PO413856   0.610   7.475   6.605  0.3017  0.1761 -0.0322
  959YOPC   GL113857   0.702   7.677   7.009 -0.2356  0.2963  0.1770
  959YOPC   GL213858   0.681   7.469   7.268  0.0427  0.0489 -0.2073
  959YOPC   C1A13859   0.566   8.006   7.326  0.0033  0.1693  0.0273
  959YOPC   D2A13860   0.252   8.237   7.531  0.3064 -0.0112  0.1885
  959YOPC   C3A13861   0.049   8.215   7.878 -0.1343  0.2181  0.1390
  959YOPC   C4A13862   0.281   8.127   8.238 -0.1371  0.0183 -0.0103
  959YOPC   C1B13863   0.743   7.711   7.677 -0.1250 -0.1599  0.1328
  959YOPC   C2B13864   0.578   8.094   7.843 -0.2599  0.1313  0.0484
  959YOPC   D3B13865   0.780   8.275   8.260 -0.2042  0.0767  0.2076
  959YOPC   C4B13866   0.789   8.143   8.666 -0.1504 -0.1040  0.0665
  960YOPC   NC313867  16.329  13.175   6.071  0.1342  0.0909 -0.0713
  960YOPC   PO413868  16.140  12.858   6.369 -0.0521 -0.1482 -0.1316
  960YOPC   GL113869  16.048  12.845   6.731 -0.2532 -0.0233  0.0262
  960YOPC   GL213870  15.800  12.733   6.883 -0.1613 -0.1184  0.0132
  960YOPC   C1A13871  16.253  12.964   7.152  0.0496  0.0195  0.1784
  960YOPC   D2A13872  16.119  12.910   7.530  0.2277  0.0898 -0.0171
  960YOPC   C3A13873  16.252  12.476   7.712 -0.1024 -0.1050  0.0659
  960YOPC   C4A13874  16.075  12.142   7.920  0.0350 -0.0542 -0.2514
  960YOPC   C1B13875  15.767  12.679   7.189  0.1727  0.1825 -0.0267
  960YOPC   C2B13876  15.729  12.580   7.621 -0.1329  0.1966  0.1350
  960YOPC   D3B13877  15.930  12.643   8.072  0.1936  0.1921  0.1653
  960YOPC   C4B13878  16.232  12.575   8.338 -0.0501  0.0552  0.0310
  961YOPC   NC313879  11.324   4.247   6.041 -0.2014  0.1835  0.0745
  961YOPC   PO413880  10.871   4.057   6.291  0.0955 -0.0183 -0.3419
  961YOPC   GL113881  10.984   4.209   6.622 -0.2841  0.1429  0.3029
  961YOPC   GL213882  11.291   4.397   6.522 -0.0342  0.1155 -0.2163
  961YOPC   C1A13883  11.083   4.029   7.064 -0.1077  0.6837 -0.2090
  961YOPC   D2A13884  11.078   3.923   7.475  0.1219 -0.0981 -0.1487
  961YOPC   C3A13885  11.314   3.929   7.881 -0.0744 -0.0452  0.0402
  961YOPC   C4A13886  11.346   3.591   8.149 -0.3084 -0.0025 -0.2996
  961YOPC   C1B13887  11.497   4.347   6.923  0.0127  0.1532 -0.1325
  961YOPC   C2B13888  11.382   4.420   7.201  0.1900 -0.1999  0.1144
  961YOPC   D3B13889  11.574   4.201   7.558 -0.0778  0.0275  0.0214
  961YOPC   C4B13890  11.623   4.329   7.940 -0.0979 -0.1851 -0.0530
  962YOPC   NC313891   9.463   9.092   5.875  0.4606  0.3243  0.0977
  962YOPC   PO413892   9.049   8.954   6.094 -0.3077  0.2431  0.0459
  962YOPC   GL113893   9.161   8.785   6.490  0.0450  0.0719  0.0635
  962YOPC   GL213894   9.475   8.725   6.375 -0.2338  0.0368  0.5392
  962YOPC   C1A13895   8.892   8.876   6.830  0.2168  0.2085  0.1589
  962YOPC   D2A13896   8.454   8.952   7.075 -0.4712  0.1880  0.0927
  962YOPC   C3A13897   8.401   8.730   7.445 -0.0489 -0.2287 -0.2293
  962YOPC   C4A13898   8.354   8.873   7.870  0.0071  0.1843  0.2107
  962YOPC   C1B13899   9.621   8.806   6.764  0.0777  0.3381  0.0644
  962YOPC   C2B13900   9.276   8.884   7.091  0.0759 -0.1552  0.2098
  962YOPC   D3B13901   9.354   9.066   7.550 -0.1622 -0.1996 -0.4302
  962YOPC   C4B13902   9.303   9.158   8.060 -0.1612 -0.0524  0.2366
  963YOPC   NC313903  13.010   4.792   6.107  0.1665  0.0736 -0.0448
  963YOPC   PO413904  12.716   5.125   6.160 -0.1089 -0.3455  0.0993
  963YOPC   GL113905  12.735   5.260   6.499  0.0014  0.5058  0.1511
  963YOPC   GL213906  13.022   5.404   6.636  0.1345 -0.2474  0.1227
  963YOPC   C1A13907  12.579   5.385   6.874  0.0842  0.1059 -0.0984
  963YOPC   D2A13908  12.573   5.306   7.313  0.3167 -0.2325 -0.1542
  963YOPC   C3A13909  12.327   5.401   7.610 -0.1678 -0.3644 -0.1852
  963YOPC   C4A13910  12.092   5.519   8.009 -0.1814 -0.1227  0.0649
  963YOPC   C1B13911  13.031   5.163   7.059  0.0777 -0.2468  0.0893
  963YOPC   C2B13912  13.044   5.124   7.547 -0.3138 -0.2635 -0.1861
  963YOPC   D3B13913  12.802   5.346   7.843  0.1172 -0.2903  0.0411
  963YOPC   C4B13914  12.615   5.483   8.258 -0.0458 -0.1121 -0.0615
  964YOPC   NC313915   5.219   2.184   6.145 -0.1554 -0.2445 -0.1769
  964YOPC   PO413916   4.885   2.327   6.370  0.3158 -0.1292  0.0569
  964YOPC   GL113917   4.885   2.360   6.827 -0.3907 -0.0325  0.1351
  964YOPC   GL213918   4.985   2.040   6.948 -0.2948  0.0024  0.0877
  964YOPC   C1A13919   5.206   2.605   7.192  0.0557  0.1544  0.1677
  964YOPC   D2A13920   5.261   2.651   7.653  0.2594  0.0413 -0.0063
  964YOPC   C3A13921   5.502   2.579   8.100  0.0618  0.1405 -0.0230
  964YOPC   C4A13922   5.770   2.310   8.270  0.1158 -0.1517  0.1163
  964YOPC   C1B13923   5.301   2.044   7.163 -0.0627  0.2933 -0.0505
  964YOPC   C2B13924   5.606   1.864   7.354  0.0426  0.1147 -0.1859
  964YOPC   D3B13925   6.086   1.868   7.361  0.2674 -0.0633  0.0378
  964YOPC   C4B13926   6.387   1.712   7.038 -0.1680  0.0745 -0.3301
  965YOPC   NC313927  16.205   9.650   6.524  0.0784 -0.1468 -0.1933
  965YOPC   PO413928  16.199  10.103   6.619 -0.0646  0.1516 -0.3076
  965YOPC   GL113929  16.235  10.103   7.011  0.1057 -0.0735 -0.1963
  965YOPC   GL213930  16.186   9.794   7.102 -0.1082 -0.2713 -0.1636
  965YOPC   C1A13931  16.239  10.303   7.340  0.2425 -0.2386  0.2547
  965YOPC   D2A13932  16.045  10.458   7.661  0.1338 -0.3815  0.0948
  965YOPC   C3A13933  16.218  10.644   8.066 -0.0007  0.1134  0.0092
  965YOPC   C4A13934  15.888  10.694   8.417 -0.2132  0.2329 -0.1007
  965YOPC   C1B13935  16.200   9.831   7.480  0.1150 -0.0726  0.0092
  965YOPC   C2B13936  16.201  10.064   7.937  0.0086  0.0018 -0.0553
  965YOPC   D3B13937  16.159   9.882   8.232  0.0975  0.0274  0.0535
  965YOPC   C4B13938  15.957   9.461   8.454 -0.1949  0.1016  0.0216
  966YOPC   NC313939   5.915   8.711   5.811  0.1106  0.2101  0.1437
  966YOPC   PO413940   5.575   8.830   6.040 -0.1558 -0.1309 -0.1682
  966YOPC   GL113941   5.593   8.978   6.486  0.0671 -0.0349  0.0225
  966YOPC   GL213942   5.349   9.179   6.627 -0.1541  0.0774  0.2070
  966YOPC   C1A13943   5.879   8.947   6.773  0.1199 -0.0849 -0.0354
  966YOPC   D2A13944   5.854   9.049   7.242 -0.2560  0.0296 -0.2546
  966YOPC   C3A13945   5.862   8.745   7.555  0.1141 -0.0930  0.1291
  966YOPC   C4A13946   5.807   8.530   7.884  0.1651  0.3649 -0.1576
  966YOPC   C1B13947   5.527   9.297   6.979 -0.2377  0.1158 -0.1726
  966YOPC   C2B13948   5.617   9.522   7.199 -0.0569 -0.0294 -0.2739
  966YOPC   D3B13949   5.796   9.458   7.514  0.2027 -0.0233  0.0151
  966YOPC   C4B13950   5.807   9.139   7.805  0.0561  0.2709 -0.1915
  967YOPC   NC313951   1.087   2.859   6.473  0.0172 -0.0736  0.1846
  967YOPC   PO413952   0.969   2.427   6.234  0.1331 -0.0702  0.1206
  967YOPC   GL113953   0.911   2.403   6.647 -0.1980  0.3252  0.0240
  967YOPC   GL213954   0.650   2.331   6.745  0.2160 -0.2399 -0.1664
  967YOPC   C1A13955   1.121   2.397   7.042  0.1252 -0.0071 -0.0754
  967YOPC   D2A13956   1.077   2.560   7.361 -0.3633  0.0054 -0.1567
  967YOPC   C3A13957   1.122   2.469   7.680 -0.2060  0.0097  0.0950
  967YOPC   C4A13958   0.906   2.441   8.007 -0.0083  0.1724  0.0356
  967YOPC   C1B13959   0.602   2.445   7.167  0.0284 -0.3059  0.0173
  967YOPC   C2B13960   0.618   2.612   7.601 -0.4405 -0.0507 -0.3444
  967YOPC   D3B13961   0.426   2.356   8.029 -0.0820 -0.0553 -0.0293
  967YOPC   C4B13962   0.108   2.247   8.360  0.1481 -0.1985 -0.0057
  968YOPC   NC313963   5.271  15.001   6.202 -0.0303  0.0480 -0.0253
  968YOPC   PO413964   5.554  15.380   6.374  0.0637  0.0314  0.0809
  968YOPC   GL113965   5.782  15.548   6.804 -0.2624 -0.2126  0.1102
  968YOPC   GL213966   5.885  15.271   6.924 -0.0546  0.3327 -0.1230
  968YOPC   C1A13967   5.811  15.687   7.275 -0.0177  0.0268 -0.0132
  968YOPC   D2A13968   5.849  15.605   7.644 -0.0293  0.0041 -0.1960
  968YOPC   C3A13969   6.173  15.866   7.760  0.1241  0.0910 -0.1545
  968YOPC   C4A13970   6.484  15.954   7.937  0.0120  0.0017  0.2001
  968YOPC   C1B13971   5.975  15.099   7.287 -0.1563  0.2441 -0.3956
  968YOPC   C2B13972   6.020  14.852   7.678 -0.3825  0.2274  0.0420
  968YOPC   D3B13973   5.977  14.486   7.675 -0.0396  0.2005 -0.3802
  968YOPC   C4B13974   5.895  14.004   7.594  0.3103 -0.1334  0.2672
  969YOPC   NC313975   7.373  13.556   5.997 -0.3415  0.1804 -0.1259
  969YOPC   PO413976   7.709  13.467   6.220  0.0421  0.4295 -0.0814
  969YOPC   GL113977   7.848  13.537   6.586  0.1856  0.0516  0.0025
  969YOPC   GL213978   8.088  13.377   6.636 -0.0044  0.1026 -0.0001
  969YOPC   C1A13979   7.725  13.770   6.982 -0.2576 -0.0266 -0.2006
  969YOPC   D2A13980   7.858  14.138   7.345  0.1713 -0.2378  0.0394
  969YOPC   C3A13981   8.028  14.025   7.691 -0.1696  0.0213 -0.0181
  969YOPC   C4A13982   8.295  13.997   8.002  0.0168 -0.0386  0.2413
  969YOPC   C1B13983   8.060  13.397   7.095 -0.1060 -0.0121 -0.0736
  969YOPC   C2B13984   7.872  13.604   7.449 -0.2025 -0.0537  0.0113
  969YOPC   D3B13985   7.914  13.536   7.870  0.0513 -0.1397  0.1858
  969YOPC   C4B13986   8.000  13.467   8.358  0.0279  0.1875 -0.1148
  970YOPC   NC313987  14.529  16.827   5.943 -0.1824 -0.3239 -0.0941
  970YOPC   PO413988  14.603  17.347   5.872  0.2164  0.2904 -0.0168
  970YOPC   GL113989  14.573  17.467   6.185 -0.0441 -0.1297 -0.3879
  970YOPC   GL213990  14.733  17.555   6.399  0.0645  0.0371 -0.2868
  970YOPC   C1A13991  14.305  17.456   6.612 -0.0665  0.0445  0.0373
  970YOPC   D2A13992  14.221  17.462   7.062 -0.1192  0.3304  0.2871
  970YOPC   C3A13993  14.146  17.777   7.383 -0.1090 -0.1534 -0.3239
  970YOPC   C4A13994  14.101  17.777   7.848  0.2045 -0.1970  0.1611
  970YOPC   C1B13995  14.719  17.523   6.836  0.0816 -0.1267 -0.1951
  970YOPC   C2B13996  14.672  17.627   7.224  0.0529 -0.0152 -0.1706
  970YOPC   D3B13997  14.532  17.433   7.528 -0.3541  0.0297  0.1595
  970YOPC   C4B13998  14.452  17.333   7.928  0.1098  0.0585  0.2935
  971YOPC   NC313999   0.582  10.598   6.435 -0.0014  0.1310 -0.3440
  971YOPC   PO414000   0.394  11.010   6.604 -0.0672 -0.3431  0.1194
  971YOPC   GL114001   0.432  10.847   6.923 -0.3676  0.1751 -0.0647
  971YOPC   GL214002   0.523  11.170   7.093 -0.1993  0.0752  0.1125
  971YOPC   C1A14003   0.470  10.516   7.234  0.1026 -0.0653  0.0500
  971YOPC   D2A14004   0.433  10.181   7.528 -0.6366 -0.1463  0.0686
  971YOPC   C3A14005   0.425  10.184   7.980  0.0309 -0.3238  0.0775
  971YOPC   C4A14006   0.541  10.272   8.386  0.6117 -0.1669 -0.0110
  971YOPC   C1B14007   0.491  11.010   7.491 -0.0506  0.1698  0.0401
  971YOPC   C2B14008   0.432  10.609   7.748  0.0129 -0.1222 -0.4324
  971YOPC   D3B14009   0.678  10.761   8.239  0.1008  0.1743  0.2133
  971YOPC   C4B14010   0.843  10.977   8.656 -0.1047 -0.0456  0.1459
  972YOPC   NC314011  12.830  15.225   6.024 -0.1951  0.0309  0.1380
  972YOPC   PO414012  12.995  14.868   6.198 -0.1052  0.0196 -0.2922
  972YOPC   GL114013  12.982  15.105   6.545  0.0960  0.1835 -0.2146
  972YOPC   GL214014  13.141  15.377   6.480 -0.0497  0.0151 -0.2418
  972YOPC   C1A14015  13.164  15.215   7.008  0.0647  0.0921  0.0953
  972YOPC   D2A14016  13.259  15.289   7.365 -0.2490  0.2649  0.1681
  972YOPC   C3A14017  13.199  15.115   7.787 -0.3393  0.1443  0.1856
  972YOPC   C4A14018  12.998  14.944   8.130 -0.0098  0.1124  0.0520
  972YOPC   C1B14019  12.995  15.646   6.867 -0.2401 -0.0498  0.3742
  972YOPC   C2B14020  13.081  15.772   7.368  0.0528 -0.1658 -0.1288
  972YOPC   D3B14021  13.306  15.621   7.826 -0.1356  0.0285 -0.2320
  972YOPC   C4B14022  13.530  15.282   8.119  0.1109  0.0787  0.0446
  973YOPC   NC314023   5.623   1.486   6.364  0.0924 -0.4115  0.1667
  973YOPC   PO414024   5.550   1.911   6.443  0.0749 -0.3376 -0.3934
  973YOPC   GL114025   5.660   1.736   6.825 -0.1986 -0.1372 -0.0451
  973YOPC   GL214026   5.963   1.870   6.891 -0.0525 -0.2658  0.1338
  973YOPC   C1A14027   5.522   1.473   7.082  0.2961 -0.2390 -0.0198
  973YOPC   D2A14028   5.404   1.376   7.447  0.0826  0.2354  0.1678
  973YOPC   C3A14029   5.473   1.642   7.852 -0.0979  0.2375  0.0566
  973YOPC   C4A14030   5.494   1.886   8.134  0.1696 -0.0395 -0.2751
  973YOPC   C1B14031   5.785   2.228   7.046 -0.0095 -0.0229  0.0974
  973YOPC   C2B14032   5.638   2.411   7.333  0.2151  0.2187 -0.1232
  973YOPC   D3B14033   5.937   2.560   7.659 -0.1497 -0.3224  0.0351
  973YOPC   C4B14034   6.154   2.412   7.973 -0.3554  0.0901 -0.3437
  974YOPC   NC314035   0.565  12.903   6.499  0.1789 -0.2430 -0.0489
  974YOPC   PO414036   0.233  12.847   6.639  0.1842  0.4097 -0.0498
  974YOPC   GL114037   0.314  12.742   7.040 -0.0899  0.3674  0.2879
  974YOPC   GL214038   0.198  12.474   6.972 -0.1733  0.0904  0.0713
  974YOPC   C1A14039   0.116  12.660   7.510  0.4475 -0.0417 -0.2046
  974YOPC   D2A14040  -0.002  12.390   7.879 -0.0239 -0.2274  0.0325
  974YOPC   C3A14041  -0.066  12.490   8.251 -0.0691  0.2671  0.2978
  974YOPC   C4A14042   0.027  12.851   8.553  0.1513 -0.0980  0.0127
  974YOPC   C1B14043   0.484  12.350   7.373  0.0583 -0.3201 -0.3278
  974YOPC   C2B14044   0.456  12.247   7.907  0.0968  0.0055  0.0546
  974YOPC   D3B14045   0.268  12.087   8.232  0.2474 -0.0962 -0.0159
  974YOPC   C4B14046   0.046  12.218   8.672  0.0018 -0.0797 -0.0090
  975YOPC   NC314047  15.800   1.811   6.548  0.0692  0.0970 -0.2717
  975YOPC   PO414048  15.920   2.214   6.518 -0.0092  0.2243  0.4055
  975YOPC   GL114049  15.793   2.206   6.965 -0.1265  0.1330  0.3917
  975YOPC   GL214050  15.839   1.914   7.087 -0.1827  0.1878  0.0077
  975YOPC   C1A14051  15.577   2.220   7.381 -0.0513 -0.3261  0.1400
  975YOPC   D2A14052  15.446   2.257   7.722  0.1639  0.1498 -0.0919
  975YOPC   C3A14053  15.559   2.310   8.172  0.3382 -0.2031  0.0557
  975YOPC   C4A14054  15.763   2.726   8.512  0.0079  0.3696  0.0675
  975YOPC   C1B14055  16.064   1.830   7.514  0.2423  0.0993  0.1225
  975YOPC   C2B14056  16.221   1.779   8.039 -0.2420  0.4011  0.0640
  975YOPC   D3B14057  16.245   1.482   8.399  0.0235 -0.0506 -0.2201
  975YOPC   C4B14058  16.151   0.996   8.435 -0.1045 -0.0893  0.1946
  976YOPC   NC314059   3.967  11.262   6.431  0.0993 -0.1033  0.0562
  976YOPC   PO414060   4.282  10.840   6.466  0.0466  0.3419  0.3933
  976YOPC   GL114061   4.137  10.716   6.854  0.2421 -0.3465  0.0211
  976YOPC   GL214062   3.938  11.030   6.864 -0.4034 -0.1998  0.0638
  976YOPC   C1A14063   4.129  10.584   7.310 -0.1744 -0.0425  0.2422
  976YOPC   D2A14064   4.013  10.551   7.691 -0.1162 -0.2729  0.2886
  976YOPC   C3A14065   4.393  10.456   7.998  0.1990  0.0079 -0.3304
  976YOPC   C4A14066   4.452  10.497   8.427 -0.0619 -0.1559 -0.2401
  976YOPC   C1B14067   3.661  10.834   7.229  0.3529  0.1224 -0.0133
  976YOPC   C2B14068   3.505  10.627   7.618  0.2521  0.0965  0.1193
  976YOPC   D3B14069   3.440  10.894   7.956  0.2541 -0.1454  0.1500
  976YOPC   C4B14070   3.140  11.101   8.289 -0.1634  0.2291  0.4739
  977YOPC   NC314071   3.592   9.705   6.393 -0.1155  0.0060  0.2965
  977YOPC   PO414072   3.466   9.374   6.518  0.1259 -0.2611  0.0944
  977YOPC   GL114073   3.690   9.530   6.823 -0.0417  0.0987 -0.0454
  977YOPC   GL214074   3.544   9.566   7.075  0.0136  0.0477  0.0450
  977YOPC   C1A14075   4.030   9.585   6.958 -0.0800  0.0275 -0.0253
  977YOPC   D2A14076   4.281   9.590   7.395  0.0982 -0.3696 -0.1425
  977YOPC   C3A14077   4.574   9.363   7.729 -0.2064 -0.0374 -0.0033
  977YOPC   C4A14078   4.966   9.310   7.875  0.3008 -0.0717 -0.0420
  977YOPC   C1B14079   3.756   9.688   7.476  0.3167 -0.0647 -0.0338
  977YOPC   C2B14080   3.771   9.705   7.899 -0.0623  0.0277 -0.1510
  977YOPC   D3B14081   3.396   9.805   8.157 -0.2276 -0.1394 -0.3601
  977YOPC   C4B14082   3.227  10.136   8.398 -0.0088  0.0804 -0.2834
  978YOPC   NC314083   9.534   6.103   5.552  0.2167 -0.2284 -0.0774
  978YOPC   PO414084  10.080   5.993   5.661 -0.0438 -0.0996  0.2164
  978YOPC   GL114085   9.951   6.295   5.961  0.1296 -0.2871 -0.1119
  978YOPC   GL214086   9.634   6.559   5.868 -0.1691 -0.4429 -0.1289
  978YOPC   C1A14087   9.878   6.576   6.314 -0.2566 -0.5718 -0.0421
  978YOPC   D2A14088  10.027   6.930   6.679  0.1834  0.1039  0.2712
  978YOPC   C3A14089  10.060   6.744   7.066 -0.1467 -0.2962 -0.3392
  978YOPC   C4A14090   9.945   6.774   7.474 -0.0072  0.1547 -0.3757
  978YOPC   C1B14091   9.193   6.617   6.212  0.0455  0.0996  0.1961
  978YOPC   C2B14092   8.792   6.734   6.420 -0.0575 -0.0364 -0.1368
  978YOPC   D3B14093   8.801   6.793   6.949  0.1108 -0.2043  0.2399
  978YOPC   C4B14094   8.592   7.053   7.200  0.3006 -0.0239 -0.1470
  979YOPC   NC314095   1.108   3.622   6.064 -0.1639  0.1134 -0.1245
  979YOPC   PO414096   1.318   3.239   6.230 -0.2977  0.0398 -0.2100
  979YOPC   GL114097   1.547   3.080   6.587  0.1214 -0.0013 -0.0593
  979YOPC   GL214098   1.530   2.790   6.697 -0.1753  0.1163  0.3498
  979YOPC   C1A14099   1.694   3.155   7.034 -0.2283 -0.1409  0.0028
  979YOPC   D2A14100   1.796   3.268   7.378 -0.2433  0.0941  0.1395
  979YOPC   C3A14101   1.863   3.118   7.782  0.2389 -0.1148  0.1390
  979YOPC   C4A14102   2.043   2.950   8.168  0.1773 -0.0339 -0.0402
  979YOPC   C1B14103   1.540   2.668   7.071 -0.1408 -0.1105  0.1466
  979YOPC   C2B14104   1.730   2.647   7.419 -0.0665  0.1895 -0.2947
  979YOPC   D3B14105   1.540   2.678   7.792 -0.0339  0.2044  0.0780
  979YOPC   C4B14106   1.388   2.773   8.166  0.0443 -0.1679 -0.3109
  980YOPC   NC314107  10.854  16.495   6.117 -0.0347 -0.2792 -0.2093
  980YOPC   PO414108  10.679  16.802   6.367  0.1982  0.0945  0.0937
  980YOPC   GL114109  10.851  16.878   6.749  0.1023 -0.3153  0.1250
  980YOPC   GL214110  11.173  16.907   6.853  0.0523  0.2110  0.1311
  980YOPC   C1A14111  10.757  16.666   7.117 -0.2026  0.0700 -0.3040
  980YOPC   D2A14112  11.101  16.395   7.438  0.2165 -0.7085  0.2561
  980YOPC   C3A14113  11.196  16.192   7.786 -0.1481  0.3017 -0.2710
  980YOPC   C4A14114  11.071  16.224   8.281  0.0574  0.0017  0.1685
  980YOPC   C1B14115  11.399  16.697   7.180 -0.2957 -0.1936  0.1023
  980YOPC   C2B14116  11.502  16.752   7.554  0.2575 -0.0714  0.0599
  980YOPC   D3B14117  11.888  16.707   7.459  0.1959  0.0851  0.0821
  980YOPC   C4B14118  12.282  16.614   7.712  0.0767 -0.0478  0.1872
  981YOPC   NC314119  16.862   8.847   6.366 -0.2050 -0.0911  0.0498
  981YOPC   PO414120  16.752   8.510   6.607  0.0196 -0.0632 -0.0751
  981YOPC   GL114121  16.943   8.548   6.929 -0.0235  0.2335 -0.0317
  981YOPC   GL214122  16.791   8.783   7.193  0.0133 -0.1144  0.1265
  981YOPC   C1A14123  17.108   8.361   7.332  0.0138  0.1651  0.1408
  981YOPC   D2A14124  17.209   8.477   7.693  0.0438 -0.1521 -0.1271
  981YOPC   C3A14125  17.210   8.258   8.082  0.2749 -0.0191  0.1202
  981YOPC   C4A14126  17.497   8.312   8.434 -0.1059  0.0370  0.0413
  981YOPC   C1B14127  16.703   8.674   7.633  0.3957 -0.0264 -0.2488
  981YOPC   C2B14128  16.841   8.637   7.945  0.0394  0.0222 -0.0747
  981YOPC   D3B14129  17.115   8.713   8.361  0.1262  0.3258 -0.1549
  981YOPC   C4B14130  17.087   8.798   8.725 -0.1814 -0.3542  0.0208
  982YOPC   NC314131  13.052   4.528   5.682 -0.1517 -0.2276  0.1035
  982YOPC   PO414132  12.803   4.326   5.971 -0.1076  0.0246 -0.2122
  982YOPC   GL114133  12.777   4.351   6.403  0.0356  0.0999 -0.1152
  982YOPC   GL214134  12.777   4.080   6.625 -0.0918 -0.1693  0.1041
  982YOPC   C1A14135  13.056   4.422   6.811 -0.0831  0.0520  0.1135
  982YOPC   D2A14136  13.315   4.740   7.002 -0.1102  0.1473  0.0948
  982YOPC   C3A14137  13.600   4.630   7.210 -0.2506  0.1587 -0.1734
  982YOPC   C4A14138  13.691   4.515   7.657 -0.0298 -0.0122 -0.2856
  982YOPC   C1B14139  12.579   4.289   7.023  0.0155  0.3853  0.1922
  982YOPC   C2B14140  12.477   4.242   7.402 -0.0417 -0.1541 -0.4444
  982YOPC   D3B14141  12.643   4.422   7.711 -0.0621 -0.0101  0.0304
  982YOPC   C4B14142  12.896   4.335   8.045  0.0094  0.1144  0.0677
  983YOPC   NC314143  11.756   4.949   6.103 -0.1451  0.0421  0.0582
  983YOPC   PO414144  11.769   4.556   6.264 -0.0112 -0.2565  0.2366
  983YOPC   GL114145  11.979   4.561   6.572 -0.2359 -0.0409 -0.1494
  983YOPC   GL214146  12.264   4.292   6.645 -0.0104  0.1834 -0.0273
  983YOPC   C1A14147  12.084   4.626   6.979  0.0432  0.1569  0.3771
  983YOPC   D2A14148  11.917   4.479   7.289 -0.1767 -0.2115  0.3069
  983YOPC   C3A14149  11.680   4.724   7.594  0.1697 -0.3329 -0.0216
  983YOPC   C4A14150  11.408   4.985   7.867  0.0808  0.0059  0.1595
  983YOPC   C1B14151  12.077   4.064   6.979  0.1554 -0.1997  0.0811
  983YOPC   C2B14152  12.050   4.019   7.398  0.2939  0.0013 -0.4007
  983YOPC   D3B14153  11.830   3.871   7.824 -0.1007 -0.2389  0.1714
  983YOPC   C4B14154  11.742   3.547   7.831 -0.1989 -0.2669  0.3545
  984YOPC   NC314155  13.506  15.599   5.608 -0.1721  0.2128 -0.0161
  984YOPC   PO414156  13.465  15.946   5.805  0.0489  0.0350  0.1449
  984YOPC   GL114157  13.372  15.855   6.171 -0.2029 -0.1225 -0.0008
  984YOPC   GL214158  13.638  16.058   6.393 -0.0732  0.0649  0.1233
  984YOPC   C1A14159  13.173  15.966   6.470 -0.1989  0.2349 -0.0843
  984YOPC   D2A14160  13.364  16.404   6.585 -0.5266 -0.2266  0.1725
  984YOPC   C3A14161  13.320  16.559   6.856  0.1749 -0.2282 -0.3326
  984YOPC   C4A14162  13.251  16.511   7.314  0.0324 -0.0648  0.0882
  984YOPC   C1B14163  13.672  16.016   6.835  0.1776 -0.0225 -0.0898
  984YOPC   C2B14164  13.405  16.070   7.036  0.2203  0.2215  0.3739
  984YOPC   D3B14165  13.542  16.133   7.469 -0.2880 -0.2716  0.1598
  984YOPC   C4B14166  13.981  16.266   7.700  0.0277  0.0282 -0.0441
  985YOPC   NC314167   1.439   0.519   6.179  0.2583 -0.2703 -0.0131
  985YOPC   PO414168   1.577   0.446   6.570  0.0334 -0.2770 -0.0627
  985YOPC   GL114169   1.579   0.553   6.964  0.0953  0.0747 -0.0257
  985YOPC   GL214170   1.365   0.543   7.056  0.0523  0.0879 -0.2486
  985YOPC   C1A14171   1.736   0.845   7.319 -0.1481  0.0689 -0.2993
  985YOPC   D2A14172   1.673   0.898   7.713  0.1169 -0.2873 -0.0124
  985YOPC   C3A14173   1.382   1.198   7.912  0.1108  0.0647  0.1246
  985YOPC   C4A14174   1.244   1.509   8.057  0.2576 -0.3229  0.1156
  985YOPC   C1B14175   1.311   0.631   7.518 -0.1478 -0.0379  0.0797
  985YOPC   C2B14176   1.255   0.662   7.920 -0.1893 -0.2094 -0.1355
  985YOPC   D3B14177   1.563   0.810   8.234 -0.0777  0.0877 -0.2074
  985YOPC   C4B14178   1.466   1.182   8.484 -0.1208  0.1746 -0.0817
  986YOPC   NC314179  11.995   5.875   5.810 -0.1939 -0.3615  0.1912
  986YOPC   PO414180  11.820   6.190   6.004  0.0342 -0.3717 -0.3628
  986YOPC   GL114181  12.062   6.280   6.310 -0.2108  0.2995  0.3511
  986YOPC   GL214182  11.849   6.523   6.443 -0.1122 -0.2801  0.1314
  986YOPC   C1A14183  12.183   6.261   6.670 -0.0349 -0.0186 -0.0587
  986YOPC   D2A14184  12.088   6.230   7.108 -0.2252  0.1673 -0.0905
  986YOPC   C3A14185  12.106   6.443   7.499 -0.0216  0.0288  0.2228
  986YOPC   C4A14186  12.327   6.446   7.978  0.0137  0.2463  0.1367
  986YOPC   C1B14187  11.752   6.564   6.940 -0.5917 -0.2866 -0.0142
  986YOPC   C2B14188  11.652   6.559   7.356 -0.0417  0.0605  0.2215
  986YOPC   D3B14189  11.735   6.843   7.561 -0.2972  0.1685  0.0251
  986YOPC   C4B14190  11.957   6.785   7.853 -0.0571 -0.0968 -0.3750
  987YOPC   NC314191  11.003  13.055   5.655  0.0123  0.0387  0.3121
  987YOPC   PO414192  11.237  12.956   6.021  0.1779  0.0882  0.2568
  987YOPC   GL114193  11.164  12.678   6.324  0.1178  0.1149  0.2432
  987YOPC   GL214194  11.291  12.357   6.360 -0.0548 -0.1744  0.0602
  987YOPC   C1A14195  10.940  12.566   6.707  0.1560 -0.1995  0.3046
  987YOPC   D2A14196  10.952  12.429   7.102 -0.2189  0.0438 -0.0823
  987YOPC   C3A14197  11.040  12.543   7.462  0.1682  0.0508  0.0917
  987YOPC   C4A14198  10.723  12.755   7.838 -0.1630 -0.0657  0.2739
  987YOPC   C1B14199  11.318  12.211   6.833 -0.1623 -0.1581  0.1509
  987YOPC   C2B14200  11.486  11.990   7.287 -0.1102 -0.3320 -0.0247
  987YOPC   D3B14201  11.447  12.245   7.583 -0.2479 -0.1925  0.0243
  987YOPC   C4B14202  11.449  12.566   7.835  0.0379 -0.2413 -0.0029
  988YOPC   NC314203  11.642  16.897   5.953  0.1911  0.0912 -0.1047
  988YOPC   PO414204  11.764  16.589   6.145 -0.2701  0.2130 -0.0188
  988YOPC   GL114205  11.647  16.834   6.493 -0.0151  0.1152 -0.1315
  988YOPC   GL214206  11.535  16.590   6.655  0.1366 -0.1858  0.0137
  988YOPC   C1A14207  11.648  17.100   6.812  0.1887 -0.3953  0.1239
  988YOPC   D2A14208  11.454  17.164   7.145 -0.0087 -0.1370 -0.2733
  988YOPC   C3A14209  11.804  17.217   7.528  0.2810  0.0131 -0.3074
  988YOPC   C4A14210  12.054  17.663   7.721 -0.0077 -0.0111  0.2459
  988YOPC   C1B14211  11.647  16.362   6.960  0.2120 -0.0763  0.4085
  988YOPC   C2B14212  11.654  16.258   7.416  0.0611  0.1044  0.0177
  988YOPC   D3B14213  11.753  16.408   7.787 -0.0434  0.0643 -0.3048
  988YOPC   C4B14214  11.878  16.857   7.935 -0.0604 -0.1191 -0.0687
  989YOPC   NC314215   6.277  17.107   6.590  0.1395  0.0456 -0.0769
  989YOPC   PO414216   6.623  17.554   6.574  0.0378  0.0522  0.1096
  989YOPC   GL114217   6.541  17.456   6.928 -0.0421 -0.0662 -0.1193
  989YOPC   GL214218   6.307  17.284   7.079 -0.2676  0.1490 -0.0664
  989YOPC   C1A14219   6.757  17.512   7.344  0.1091  0.0268 -0.2774
  989YOPC   D2A14220   6.983  17.613   7.651 -0.1287 -0.2131  0.1674
  989YOPC   C3A14221   6.879  17.802   7.967  0.0607  0.3744 -0.1807
  989YOPC   C4A14222   6.576  17.818   8.256 -0.2158 -0.0269  0.2715
  989YOPC   C1B14223   6.227  17.428   7.387 -0.1671 -0.0047 -0.0800
  989YOPC   C2B14224   6.061  17.468   7.830  0.0793 -0.1952 -0.1698
  989YOPC   D3B14225   6.056  17.867   8.098 -0.1390  0.1327 -0.1870
  989YOPC   C4B14226   6.204  18.231   8.304  0.0418  0.1229  0.1356
  990YOPC   NC314227   3.210  11.562   6.679 -0.1957  0.0819 -0.1060
  990YOPC   PO414228   3.004  11.927   6.574  0.4070  0.2721  0.2441
  990YOPC   GL114229   3.485  11.937   6.870  0.1992  0.0692 -0.0162
  990YOPC   GL214230   3.647  12.209   6.779  0.1027 -0.1276  0.0859
  990YOPC   C1A14231   3.480  11.745   7.291 -0.1004  0.1059 -0.1784
  990YOPC   D2A14232   3.248  11.634   7.546  0.0908  0.0398 -0.0112
  990YOPC   C3A14233   3.426  11.578   7.884  0.0444 -0.3279  0.0054
  990YOPC   C4A14234   3.652  11.285   8.166 -0.0517  0.0257 -0.0774
  990YOPC   C1B14235   3.594  12.209   7.246 -0.0742 -0.3127  0.1015
  990YOPC   C2B14236   3.275  12.194   7.623  0.0432 -0.0345  0.1102
  990YOPC   D3B14237   3.089  12.358   8.003 -0.0622 -0.2993  0.0615
  990YOPC   C4B14238   2.804  12.626   8.215 -0.0158  0.1223 -0.0121
  991YOPC   NC314239   8.784   6.120   5.597  0.0230 -0.0050  0.1635
  991YOPC   PO414240   9.177   6.434   5.493 -0.1326 -0.1187 -0.1992
  991YOPC   GL114241   9.204   6.181   5.889  0.1518 -0.1569  0.2523
  991YOPC   GL214242   8.909   6.062   6.072  0.0836 -0.0165  0.2880
  991YOPC   C1A14243   9.469   6.219   6.247 -0.3070  0.1011  0.0964
  991YOPC   D2A14244   9.858   6.159   6.474 -0.1384 -0.1758  0.1631
  991YOPC   C3A14245   9.728   6.395   6.787  0.0508  0.2514 -0.2727
  991YOPC   C4A14246   9.764   6.368   7.151  0.1632 -0.5580 -0.1318
  991YOPC   C1B14247   8.984   6.235   6.507 -0.3471  0.0620  0.0712
  991YOPC   C2B14248   9.264   6.507   6.688  0.2016 -0.0689 -0.0700
  991YOPC   D3B14249   9.238   6.540   7.133 -0.2220 -0.3265 -0.1097
  991YOPC   C4B14250   9.000   6.465   7.454  0.0366  0.1097 -0.1268
  992YOPC   NC314251   7.052  10.493   6.364  0.0903  0.0518 -0.0010
  992YOPC   PO414252   7.445  10.672   6.550  0.0072  0.1934  0.2026
  992YOPC   GL114253   7.448  10.430   6.857 -0.0214  0.2162  0.0418
  992YOPC   GL214254   7.699  10.290   6.818 -0.2951  0.2592 -0.0898
  992YOPC   C1A14255   7.522  10.461   7.302 -0.0739 -0.2020 -0.1583
  992YOPC   D2A14256   7.563  10.439   7.773 -0.2310 -0.3234  0.0682
  992YOPC   C3A14257   7.905  10.441   8.122 -0.0235 -0.1682 -0.1119
  992YOPC   C4A14258   8.343  10.593   8.224  0.0797 -0.4130  0.0626
  992YOPC   C1B14259   7.770  10.012   7.193 -0.0378  0.1201 -0.0609
  992YOPC   C2B14260   7.467   9.819   7.544 -0.2440 -0.1927  0.3022
  992YOPC   D3B14261   7.283  10.033   7.785 -0.1781  0.2515  0.0825
  992YOPC   C4B14262   7.010  10.034   8.053  0.1317 -0.3006  0.1085
  993YOPC   NC314263  12.046  14.132   5.558 -0.0698 -0.1603 -0.0138
  993YOPC   PO414264  12.301  13.820   5.833  0.1706 -0.3468  0.0929
  993YOPC   GL114265  12.049  14.054   6.043 -0.0375  0.0873 -0.1075
  993YOPC   GL214266  12.194  14.361   6.168 -0.0823 -0.1735  0.1016
  993YOPC   C1A14267  11.678  14.070   6.184  0.0491 -0.0567 -0.2842
  993YOPC   D2A14268  11.340  14.257   6.384  0.2203  0.0663  0.1335
  993YOPC   C3A14269  11.141  13.983   6.668  0.0805  0.0094 -0.2719
  993YOPC   C4A14270  10.777  13.867   6.890  0.0904  0.6927  0.0435
  993YOPC   C1B14271  12.148  14.095   6.552  0.2775 -0.4294  0.1808
  993YOPC   C2B14272  12.211  14.189   7.020 -0.1864  0.0034  0.1047
  993YOPC   D3B14273  12.024  14.041   7.382  0.2294 -0.2461 -0.1100
  993YOPC   C4B14274  12.086  13.870   7.862 -0.1686  0.0233 -0.4206
  994YOPC   NC314275   4.223   7.485   6.050  0.2289  0.0368  0.1637
  994YOPC   PO414276   4.319   7.795   6.255  0.0943  0.2813  0.2577
  994YOPC   GL114277   4.371   7.778   6.652 -0.1819 -0.1629  0.1063
  994YOPC   GL214278   4.108   7.888   6.778  0.2845  0.0512 -0.0031
  994YOPC   C1A14279   4.368   7.599   7.127 -0.2635 -0.1782  0.2088
  994YOPC   D2A14280   4.434   7.481   7.540 -0.3907  0.1035  0.2441
  994YOPC   C3A14281   4.711   7.827   7.864  0.1059 -0.1417  0.2329
  994YOPC   C4A14282   4.521   8.049   8.000  0.1564 -0.0394 -0.1231
  994YOPC   C1B14283   4.338   8.254   7.016 -0.0214 -0.0378  0.0972
  994YOPC   C2B14284   4.791   8.369   7.155  0.0951 -0.0123  0.4986
  994YOPC   D3B14285   4.889   8.383   7.694 -0.1212 -0.3369  0.0075
  994YOPC   C4B14286   5.239   8.225   7.982 -0.0721 -0.0463 -0.0408
  995YOPC   NC314287   8.791   1.763   6.380  0.1147 -0.2568 -0.0128
  995YOPC   PO414288   8.765   1.447   6.092 -0.2986 -0.3386  0.2576
  995YOPC   GL114289   8.407   1.344   6.317 -0.2386  0.1552 -0.1221
  995YOPC   GL214290   8.327   1.425   6.741  0.0268  0.1476  0.3779
  995YOPC   C1A14291   8.451   0.968   6.658  0.1633  0.0619  0.1267
  995YOPC   D2A14292   8.810   0.852   6.805  0.1301  0.1216 -0.2596
  995YOPC   C3A14293   8.902   1.070   7.158  0.0609  0.1123 -0.1032
  995YOPC   C4A14294   8.731   1.117   7.560 -0.1348  0.1484 -0.1723
  995YOPC   C1B14295   8.577   1.437   7.137  0.1791 -0.3849  0.0492
  995YOPC   C2B14296   8.977   1.561   7.433 -0.0028 -0.0544  0.1617
  995YOPC   D3B14297   8.941   1.520   7.845  0.2843  0.4245 -0.0643
  995YOPC   C4B14298   8.860   1.230   8.163 -0.2139  0.0363  0.2241
  996YOPC   NC314299  15.493   4.467   6.073  0.0174  0.0613 -0.0380
  996YOPC   PO414300  15.079   4.555   6.133  0.0434 -0.3789  0.1553
  996YOPC   GL114301  14.947   4.467   6.617 -0.1093 -0.0047 -0.0971
  996YOPC   GL214302  14.999   4.157   6.823 -0.0528 -0.0505 -0.1481
  996YOPC   C1A14303  14.749   4.731   6.906  0.3609  0.1549 -0.1044
  996YOPC   D2A14304  14.720   4.797   7.306  0.0452 -0.0904 -0.2005
  996YOPC   C3A14305  15.108   4.684   7.478 -0.1650  0.1946 -0.0405
  996YOPC   C4A14306  15.252   4.693   7.863 -0.3550 -0.2000  0.0451
  996YOPC   C1B14307  14.895   4.266   7.278  0.0552  0.1934 -0.4845
  996YOPC   C2B14308  14.813   4.175   7.760 -0.1775 -0.3173  0.4211
  996YOPC   D3B14309  15.087   3.903   8.100 -0.0370 -0.0377  0.1414
  996YOPC   C4B14310  15.426   3.918   8.414  0.0400 -0.1053  0.1786
  997YOPC   NC314311  13.152   2.491   6.083 -0.1130  0.2013  0.1372
  997YOPC   PO414312  13.254   2.115   5.935  0.1663 -0.0530  0.0638
  997YOPC   GL114313  13.191   1.846   6.365  0.3016 -0.0619  0.1441
  997YOPC   GL214314  13.152   1.539   6.433 -0.1868  0.0092  0.1271
  997YOPC   C1A14315  13.306   2.002   6.756 -0.1222  0.1128 -0.0702
  997YOPC   D2A14316  13.413   2.122   7.241 -0.0524  0.3624 -0.2039
  997YOPC   C3A14317  13.527   1.925   7.614  0.1642  0.1027 -0.3032
  997YOPC   C4A14318  13.415   1.846   8.145 -0.1149  0.1854  0.0191
  997YOPC   C1B14319  13.486   1.559   6.678  0.0975  0.0288 -0.4164
  997YOPC   C2B14320  13.319   1.658   7.172 -0.4428  0.3843 -0.0581
  997YOPC   D3B14321  13.526   1.273   7.421 -0.0823 -0.2405  0.2821
  997YOPC   C4B14322  13.660   0.977   7.712  0.1784 -0.2117 -0.1430
  998YOPC   NC314323  15.900  11.163   6.349  0.0396  0.0840 -0.0107
  998YOPC   PO414324  15.544  10.867   6.235 -0.1754 -0.6327 -0.0292
  998YOPC   GL114325  15.671  10.791   6.637  0.2125  0.2715 -0.2252
  998YOPC   GL214326  15.379  10.680   6.955  0.0996 -0.1471  0.0467
  998YOPC   C1A14327  15.846  11.036   7.089 -0.0246  0.1089  0.0454
  998YOPC   D2A14328  15.855  10.952   7.528  0.4070  0.4470 -0.1712
  998YOPC   C3A14329  15.934  11.268   7.818 -0.0173  0.0683 -0.0086
  998YOPC   C4A14330  15.913  11.225   8.237  0.0046  0.1003 -0.2657
  998YOPC   C1B14331  15.272  10.962   7.213  0.0062 -0.3682 -0.1604
  998YOPC   C2B14332  15.381  11.228   7.510 -0.2925  0.0826  0.1757
  998YOPC   D3B14333  15.820  11.444   7.356  0.1119  0.1351 -0.2302
  998YOPC   C4B14334  16.211  11.343   7.286  0.0322 -0.0847  0.2545
  999YOPC   NC314335  17.123   6.839   6.779 -0.0115 -0.0343  0.2987
  999YOPC   PO414336  17.503   6.859   6.649 -0.0353  0.1380 -0.0724
  999YOPC   GL114337  17.471   6.748   7.137  0.0241 -0.0098  0.0552
  999YOPC   GL214338  17.287   6.904   7.331  0.1265  0.0614 -0.0204
  999YOPC   C1A14339  17.637   6.528   7.573 -0.2352  0.3514  0.1813
  999YOPC   D2A14340  17.663   6.560   7.971  0.1278  0.0197  0.1959
  999YOPC   C3A14341  17.850   6.523   8.216 -0.1053 -0.2139  0.1831
  999YOPC   C4A14342  17.878   6.579   8.701  0.3340  0.2672 -0.0352
  999YOPC   C1B14343  17.311   6.853   7.740  0.0609 -0.2852  0.2842
  999YOPC   C2B14344  17.199   6.952   8.195  0.0907  0.2326  0.1923
  999YOPC   D3B14345  17.459   6.828   8.462 -0.1206  0.1919  0.1098
  999YOPC   C4B14346  17.612   7.028   8.845  0.3134  0.0373 -0.2050
 1000YOPC   NC314347  17.479   4.340   6.213 -0.1690 -0.1004 -0.0259
 1000YOPC   PO414348  16.999   4.377   6.262 -0.2974 -0.1611 -0.0629
 1000YOPC   GL114349  17.191   4.357   6.654 -0.0124 -0.0861 -0.0243
 1000YOPC   GL214350  17.491   4.096   6.732 -0.1335  0.0906 -0.0820
 1000YOPC   C1A14351  17.041   3.918   6.809 -0.0417 -0.0862 -0.0220
 1000YOPC   D2A14352  16.904   3.520   6.812 -0.0577 -0.1491  0.1103
 1000YOPC   C3A14353  17.103   3.317   7.156 -0.1013  0.1714 -0.0962
 1000YOPC   C4A14354  17.213   3.364   7.490  0.1010 -0.0858 -0.1045
 1000YOPC   C1B14355  17.266   4.266   7.107  0.0570  0.2109  0.0311
 1000YOPC   C2B14356  17.235   4.287   7.528 -0.0299  0.0866 -0.1663
 1000YOPC   D3B14357  17.062   4.132   7.758  0.1501 -0.2846 -0.0111
 1000YOPC   C4B14358  17.120   4.153   8.188  0.3539 -0.0975  0.0079
 1001YOPC   NC314359   5.071   6.870   6.125 -0.0507  0.0736 -0.2485
 1001YOPC   PO414360   5.519   7.047   5.887 -0.0721  0.0347  0.0439
 1001YOPC   GL114361   5.611   6.974   6.338 -0.1055  0.1207 -0.1491
 1001YOPC   GL214362   5.338   7.138   6.427  0.0472  0.2254  0.1726
 1001YOPC   C1A14363   5.643   6.989   6.809  0.0139 -0.1968 -0.0470
 1001YOPC   D2A14364   5.940   6.961   7.034 -0.1881 -0.1586 -0.1564
 1001YOPC   C3A14365   6.039   6.910   7.496 -0.0727  0.0776  0.0827
 1001YOPC   C4A14366   6.038   6.812   7.931 -0.2465 -0.0485 -0.1314
 1001YOPC   C1B14367   5.134   7.403   6.749  0.0850 -0.1899 -0.0002
 1001YOPC   C2B14368   4.795   7.762   6.915 -0.0842 -0.0588 -0.0650
 1001YOPC   D3B14369   4.772   7.859   7.344  0.1482 -0.1269 -0.1025
 1001YOPC   C4B14370   4.473   8.107   7.512 -0.0565  0.1276  0.3800
 1002YOPC   NC314371   8.595   7.017   5.721  0.1555 -0.2382  0.1621
 1002YOPC   PO414372   8.677   7.426   5.788  0.0746 -0.0736 -0.3488
 1002YOPC   GL114373   8.677   7.254   6.176  0.1843  0.1060 -0.2047
 1002YOPC   GL214374   8.418   7.245   6.230 -0.1158 -0.0159  0.1645
 1002YOPC   C1A14375   8.742   7.237   6.674 -0.1844 -0.0841 -0.0245
 1002YOPC   D2A14376   8.967   7.335   7.161 -0.1605  0.0626  0.1192
 1002YOPC   C3A14377   9.144   6.959   7.354  0.3416 -0.0953  0.3120
 1002YOPC   C4A14378   9.333   6.977   7.776 -0.1806 -0.0872 -0.2968
 1002YOPC   C1B14379   8.331   7.528   6.654 -0.0479  0.0231  0.1226
 1002YOPC   C2B14380   8.034   7.649   6.975  0.0103  0.3076  0.4021
 1002YOPC   D3B14381   8.332   7.478   7.299  0.3698 -0.1262 -0.1046
 1002YOPC   C4B14382   8.248   7.267   7.567 -0.1346 -0.1557 -0.1443
 1003YOPC   NC314383   6.044   8.342   6.133 -0.0313  0.1944  0.0758
 1003YOPC   PO414384   6.419   8.426   6.379 -0.0762  0.0596  0.2292
 1003YOPC   GL114385   6.318   8.723   6.723  0.0503  0.1001 -0.0145
 1003YOPC   GL214386   6.683   8.589   6.754 -0.0038 -0.1647 -0.1423
 1003YOPC   C1A14387   6.454   9.122   7.023 -0.0167 -0.2890 -0.0306
 1003YOPC   D2A14388   6.322   9.290   7.410 -0.0360  0.1888  0.1645
 1003YOPC   C3A14389   6.253   9.481   7.808  0.0409  0.0910 -0.2482
 1003YOPC   C4A14390   6.136   9.731   8.190  0.0488  0.1665  0.0523
 1003YOPC   C1B14391   6.688   8.668   7.115  0.0434  0.3009  0.0104
 1003YOPC   C2B14392   6.297   8.759   7.376 -0.2475 -0.0801  0.1819
 1003YOPC   D3B14393   5.989   8.549   7.112 -0.3176  0.1543  0.0805
 1003YOPC   C4B14394   5.603   8.249   7.012 -0.1833 -0.1673  0.1610
 1004YOPC   NC314395  17.391  10.796   5.849  0.1130 -0.1213  0.0739
 1004YOPC   PO414396  17.594  10.737   6.183  0.0069  0.4937 -0.0586
 1004YOPC   GL114397  17.506  10.985   6.642  0.1918 -0.1487 -0.0502
 1004YOPC   GL214398  17.207  11.005   6.845  0.1902  0.0832 -0.0477
 1004YOPC   C1A14399  17.636  10.963   7.134  0.0494  0.1449 -0.0109
 1004YOPC   D2A14400  17.658  10.801   7.527  0.0971 -0.0243  0.0914
 1004YOPC   C3A14401  17.633  10.441   7.557  0.1951  0.1962  0.0480
 1004YOPC   C4A14402  17.468  10.100   7.834 -0.1382 -0.0446 -0.2233
 1004YOPC   C1B14403  17.254  11.187   7.360  0.2045  0.1130 -0.1596
 1004YOPC   C2B14404  17.337  11.254   7.829  0.1081 -0.0315  0.1465
 1004YOPC   D3B14405  17.379  11.286   8.276  0.1237  0.2652 -0.1425
 1004YOPC   C4B14406  17.675  11.403   8.588  0.0602 -0.0239 -0.0379
 1005YOPC   NC314407   8.057   1.647   6.323 -0.2386 -0.2869 -0.1133
 1005YOPC   PO414408   8.360   1.919   6.182  0.0618  0.1303  0.0020
 1005YOPC   GL114409   8.374   1.988   6.579  0.4377 -0.1972 -0.0192
 1005YOPC   GL214410   8.732   1.937   6.850 -0.4940 -0.0249  0.0573
 1005YOPC   C1A14411   8.285   2.225   6.964 -0.4481  0.0281  0.0549
 1005YOPC   D2A14412   8.572   2.510   6.981  0.0668 -0.0484  0.2412
 1005YOPC   C3A14413   8.804   2.510   7.360 -0.2290  0.0948  0.1214
 1005YOPC   C4A14414   8.688   2.307   7.691  0.1777  0.2216 -0.0170
 1005YOPC   C1B14415   8.640   1.987   7.275 -0.0420 -0.1484  0.0769
 1005YOPC   C2B14416   8.638   1.829   7.680  0.1913  0.0638 -0.1121
 1005YOPC   D3B14417   8.911   2.028   8.028 -0.0546 -0.1722 -0.1069
 1005YOPC   C4B14418   8.962   2.165   8.427 -0.3310 -0.2446  0.0188
 1006YOPC   NC314419   5.759  13.352   5.677  0.1624 -0.0864  0.0406
 1006YOPC   PO414420   5.964  13.574   5.960  0.0169  0.0086 -0.1114
 1006YOPC   GL114421   6.042  13.587   6.315  0.2243  0.2904  0.3775
 1006YOPC   GL214422   6.191  13.242   6.418  0.2692 -0.1739 -0.0951
 1006YOPC   C1A14423   5.922  13.910   6.689 -0.0363 -0.0761  0.0776
 1006YOPC   D2A14424   5.985  14.164   7.120  0.0945  0.2015  0.2447
 1006YOPC   C3A14425   5.694  14.493   7.263 -0.3214 -0.3488 -0.1269
 1006YOPC   C4A14426   5.529  14.873   7.246  0.1723 -0.0048  0.0676
 1006YOPC   C1B14427   6.104  13.493   6.806  0.0801 -0.2707 -0.1784
 1006YOPC   C2B14428   5.884  13.675   7.162 -0.0348 -0.0396 -0.0500
 1006YOPC   D3B14429   5.444  13.537   7.441  0.2897  0.1396  0.0368
 1006YOPC   C4B14430   5.013  13.732   7.547  0.2264 -0.1240 -0.0157
 1007YOPC   NC314431   6.741   7.112   5.864 -0.1595 -0.1121 -0.0636
 1007YOPC   PO414432   7.213   7.023   5.957 -0.3942 -0.2175 -0.1282
 1007YOPC   GL114433   6.982   6.922   6.237 -0.1631  0.0972 -0.0369
 1007YOPC   GL214434   7.202   6.999   6.506  0.2453  0.1862  0.0358
 1007YOPC   C1A14435   6.622   7.028   6.574  0.0967  0.2058  0.1204
 1007YOPC   D2A14436   6.389   7.127   6.976  0.2301  0.3325  0.0062
 1007YOPC   C3A14437   6.455   7.132   7.448 -0.0838 -0.3776 -0.0612
 1007YOPC   C4A14438   6.468   7.057   7.924  0.1594 -0.0541  0.2070
 1007YOPC   C1B14439   7.088   6.827   6.987 -0.3960 -0.0253 -0.0124
 1007YOPC   C2B14440   7.201   6.778   7.418  0.1691 -0.1065 -0.2184
 1007YOPC   D3B14441   6.923   6.883   7.821 -0.2094 -0.1151  0.1505
 1007YOPC   C4B14442   7.059   6.730   8.202  0.1812  0.4101 -0.0160
 1008YOPC   NC314443   2.180   7.633   6.742 -0.1492 -0.1743  0.1669
 1008YOPC   PO414444   2.223   7.254   6.826 -0.0493 -0.1763  0.1629
 1008YOPC   GL114445   2.227   7.221   7.227  0.1337  0.2398  0.4140
 1008YOPC   GL214446   2.465   7.050   7.237 -0.0848  0.2257  0.2021
 1008YOPC   C1A14447   2.176   7.184   7.661  0.1377  0.1666 -0.2360
 1008YOPC   D2A14448   2.214   7.312   8.106 -0.0587  0.0552 -0.1372
 1008YOPC   C3A14449   2.151   7.102   8.496  0.0778  0.1746 -0.1048
 1008YOPC   C4A14450   1.906   7.302   8.861 -0.1818 -0.1348  0.0823
 1008YOPC   C1B14451   2.619   6.996   7.656 -0.2757 -0.2586  0.2027
 1008YOPC   C2B14452   2.756   7.153   8.044  0.2759 -0.1987 -0.3021
 1008YOPC   D3B14453   2.630   7.081   8.433 -0.3439  0.2530 -0.0362
 1008YOPC   C4B14454   2.507   7.215   8.837 -0.6012  0.1881  0.0169
 1009YOPC   NC314455  11.665   8.250   5.917 -0.1008  0.0062  0.1875
 1009YOPC   PO414456  12.139   8.092   5.975 -0.3053 -0.0382  0.2279
 1009YOPC   GL114457  12.304   8.101   6.297 -0.3330 -0.1213 -0.2139
 1009YOPC   GL214458  12.620   8.016   6.471  0.0670 -0.0173 -0.1265
 1009YOPC   C1A14459  12.187   8.078   6.744 -0.0926 -0.0344  0.1946
 1009YOPC   D2A14460  12.205   8.016   7.182  0.0936 -0.2914 -0.0871
 1009YOPC   C3A14461  12.268   8.120   7.510 -0.2741  0.0673  0.0843
 1009YOPC   C4A14462  12.378   8.500   7.703 -0.0574  0.3265  0.1304
 1009YOPC   C1B14463  12.675   8.039   6.882  0.1872  0.0152 -0.1147
 1009YOPC   C2B14464  12.675   7.926   7.316  0.0313 -0.1166  0.1413
 1009YOPC   D3B14465  12.797   8.060   7.676 -0.5255 -0.0891  0.2358
 1009YOPC   C4B14466  12.926   8.409   7.932 -0.1098 -0.2776  0.0226
 1010YOPC   NC314467   3.423   8.313   6.673 -0.4400 -0.0569 -0.3243
 1010YOPC   PO414468   2.974   8.331   6.727  0.1488  0.3121  0.2914
 1010YOPC   GL114469   2.990   8.571   6.964  0.1644 -0.0953  0.1835
 1010YOPC   GL214470   3.308   8.701   6.933 -0.1330  0.2008 -0.1228
 1010YOPC   C1A14471   3.003   8.932   7.285  0.1133  0.1010 -0.0006
 1010YOPC   D2A14472   3.311   9.280   7.394  0.0307 -0.0833 -0.2267
 1010YOPC   C3A14473   3.350   9.362   7.788  0.0424  0.0768 -0.1676
 1010YOPC   C4A14474   3.420   9.309   8.234 -0.0549 -0.1046  0.0578
 1010YOPC   C1B14475   3.525   8.845   7.196  0.1143 -0.0115  0.1986
 1010YOPC   C2B14476   3.599   8.938   7.674  0.1423  0.1870 -0.1658
 1010YOPC   D3B14477   3.808   9.231   7.948 -0.3171  0.0470  0.1914
 1010YOPC   C4B14478   4.166   9.398   8.071  0.1547 -0.2274 -0.1847
 1011YOPC   NC314479   7.641  14.855   6.243  0.0885  0.0935  0.0520
 1011YOPC   PO414480   7.614  15.115   6.534  0.4007  0.2394  0.0226
 1011YOPC   GL114481   7.486  14.747   6.776 -0.1385  0.3372 -0.0592
 1011YOPC   GL214482   7.201  14.538   6.797  0.0885  0.3887 -0.2861
 1011YOPC   C1A14483   7.686  14.361   6.878  0.2669 -0.0550  0.0537
 1011YOPC   D2A14484   8.103  14.309   6.887 -0.4723 -0.0399 -0.1760
 1011YOPC   C3A14485   8.422  14.469   7.088 -0.1155 -0.1336  0.1783
 1011YOPC   C4A14486   8.354  14.387   7.525 -0.0625 -0.1505 -0.2210
 1011YOPC   C1B14487   7.246  14.213   6.636 -0.0722  0.1746  0.2186
 1011YOPC   C2B14488   7.282  13.689   6.818  0.1471 -0.1576  0.3189
 1011YOPC   D3B14489   6.973  13.526   7.047 -0.0001 -0.1546 -0.1086
 1011YOPC   C4B14490   6.725  13.475   7.386 -0.1130 -0.2190 -0.0125
 1012YOPC   NC314491  16.041   6.538   5.582  0.2799  0.0735 -0.2958
 1012YOPC   PO414492  15.751   6.697   5.919 -0.2129  0.1796 -0.1552
 1012YOPC   GL114493  15.809   6.558   6.402  0.0128  0.2041 -0.0979
 1012YOPC   GL214494  16.024   6.360   6.461 -0.0022 -0.0624 -0.0288
 1012YOPC   C1A14495  15.634   6.485   6.814  0.0414 -0.0645 -0.2191
 1012YOPC   D2A14496  15.669   6.264   7.099  0.1386  0.2521  0.1244
 1012YOPC   C3A14497  15.636   6.305   7.543  0.2698  0.1330 -0.1939
 1012YOPC   C4A14498  15.780   6.272   8.025 -0.1813 -0.1187  0.0852
 1012YOPC   C1B14499  16.121   6.358   6.926 -0.1287  0.1538  0.0062
 1012YOPC   C2B14500  16.077   6.396   7.355  0.0548  0.0747 -0.2218
 1012YOPC   D3B14501  16.376   6.434   7.670  0.0644  0.1049 -0.1821
 1012YOPC   C4B14502  16.371   6.448   8.097 -0.1630 -0.0441 -0.0634
 1013YOPC   NC314503  12.951  11.810   5.984 -0.1654 -0.1954  0.0168
 1013YOPC   PO414504  12.464  11.575   5.854  0.1410 -0.2780 -0.1569
 1013YOPC   GL114505  12.438  11.488   6.279 -0.1836  0.1462  0.4214
 1013YOPC   GL214506  12.551  11.716   6.495  0.1082  0.2928 -0.2053
 1013YOPC   C1A14507  12.103  11.416   6.564 -0.1313 -0.1984 -0.1281
 1013YOPC   D2A14508  11.901  11.072   6.750 -0.1496 -0.1556  0.2655
 1013YOPC   C3A14509  11.861  11.054   7.144  0.0559 -0.2343 -0.0653
 1013YOPC   C4A14510  11.621  10.975   7.485 -0.1190 -0.0290  0.0863
 1013YOPC   C1B14511  12.365  11.658   6.926  0.0244 -0.0330  0.0281
 1013YOPC   C2B14512  12.038  11.483   7.098  0.3403  0.1432  0.1147
 1013YOPC   D3B14513  11.874  11.370   7.589 -0.0961 -0.1478 -0.0278
 1013YOPC   C4B14514  11.557  11.210   7.922 -0.0737  0.0362  0.0237
 1014YOPC   NC314515   2.474   1.685   6.236  0.3141  0.0355 -0.3023
 1014YOPC   PO414516   2.646   1.802   6.635  0.2409  0.2629  0.0141
 1014YOPC   GL114517   2.515   1.968   6.952 -0.0173 -0.0130  0.2322
 1014YOPC   GL214518   2.832   2.082   7.040  0.3224 -0.0316 -0.1715
 1014YOPC   C1A14519   2.489   2.101   7.415 -0.1158  0.1868  0.4115
 1014YOPC   D2A14520   2.475   2.210   7.822 -0.4027 -0.0616 -0.0327
 1014YOPC   C3A14521   2.107   2.027   8.099  0.0515 -0.0863 -0.2117
 1014YOPC   C4A14522   1.685   1.786   8.038  0.1464  0.1222  0.0547
 1014YOPC   C1B14523   2.902   2.414   7.417 -0.2182 -0.0063 -0.4092
 1014YOPC   C2B14524   2.824   2.602   7.852  0.0158 -0.3636 -0.0630
 1014YOPC   D3B14525   2.690   2.493   8.195  0.0371  0.0913  0.1294
 1014YOPC   C4B14526   2.313   2.517   8.317  0.0168 -0.0361  0.1379
 1015YOPC   NC314527   3.602   6.226   6.243 -0.1232  0.2497  0.1551
 1015YOPC   PO414528   3.551   6.029   6.651  0.1133 -0.1297  0.2237
 1015YOPC   GL114529   3.502   5.916   7.032  0.0670  0.0033 -0.2136
 1015YOPC   GL214530   3.260   5.726   7.273  0.1367  0.2505 -0.2334
 1015YOPC   C1A14531   3.625   5.984   7.452 -0.1753 -0.0556 -0.1164
 1015YOPC   D2A14532   3.766   5.740   7.887 -0.0999 -0.2366 -0.1035
 1015YOPC   C3A14533   4.076   5.512   7.908 -0.0135  0.0399  0.4937
 1015YOPC   C4A14534   4.538   5.250   7.992 -0.1789 -0.2393 -0.0383
 1015YOPC   C1B14535   3.281   5.595   7.780 -0.1271  0.1634  0.1125
 1015YOPC   C2B14536   3.201   5.155   7.930  0.1873  0.1821 -0.0039
 1015YOPC   D3B14537   3.175   4.971   8.334 -0.3380 -0.2980  0.3434
 1015YOPC   C4B14538   3.166   5.012   8.731  0.3243 -0.1742 -0.0350
 1016YOPC   NC314539   0.425   2.584   6.363  0.0387 -0.1002  0.1260
 1016YOPC   PO414540   0.532   2.993   6.381 -0.1261 -0.1247 -0.1262
 1016YOPC   GL114541   0.411   3.051   6.877 -0.0287  0.0847  0.0167
 1016YOPC   GL214542   0.246   3.293   7.039  0.2459 -0.2546  0.3531
 1016YOPC   C1A14543   0.275   2.807   7.229 -0.0157  0.0755  0.1894
 1016YOPC   D2A14544   0.171   2.858   7.684 -0.0055  0.0712 -0.0616
 1016YOPC   C3A14545   0.556   2.882   8.041 -0.0602 -0.1192 -0.2765
 1016YOPC   C4A14546   0.887   2.796   8.333 -0.0534 -0.2558 -0.1523
 1016YOPC   C1B14547   0.107   3.475   7.401 -0.1614 -0.2580 -0.0600
 1016YOPC   C2B14548  -0.032   3.383   7.794  0.2552 -0.1810 -0.2380
 1016YOPC   D3B14549  -0.074   3.145   8.138  0.0294 -0.1335 -0.1767
 1016YOPC   C4B14550   0.069   2.782   8.185 -0.1669  0.1727  0.0523
 1017YOPC   NC314551   1.408  12.995   6.224 -0.2099 -0.0854  0.1698
 1017YOPC   PO414552   1.092  12.774   6.497  0.3178  0.0162 -0.2739
 1017YOPC   GL114553   0.910  12.832   6.875  0.0674  0.1393  0.0466
 1017YOPC   GL214554   0.651  13.136   6.940 -0.0247  0.3103  0.4194
 1017YOPC   C1A14555   0.897  12.626   7.279 -0.1656 -0.0687 -0.2021
 1017YOPC   D2A14556   0.690  12.650   7.704  0.1922 -0.2605  0.0818
 1017YOPC   C3A14557   0.846  12.641   8.112  0.0459 -0.1601 -0.0854
 1017YOPC   C4A14558   0.989  12.639   8.509 -0.2380 -0.0559  0.1089
 1017YOPC   C1B14559   0.588  13.000   7.386 -0.0142 -0.3082  0.1155
 1017YOPC   C2B14560   0.364  13.027   7.741  0.0036 -0.0112  0.0618
 1017YOPC   D3B14561   0.325  12.720   8.066 -0.2227  0.1051 -0.1467
 1017YOPC   C4B14562   0.483  12.541   8.436  0.1052 -0.4045  0.0176
 1018YOPC   NC314563   2.768  10.930   6.248  0.0012 -0.0960  0.0157
 1018YOPC   PO414564   3.061  11.161   6.358  0.2550  0.1448  0.0225
 1018YOPC   GL114565   2.749  11.339   6.634 -0.1084  0.2797 -0.2049
 1018YOPC   GL214566   2.468  11.182   6.577 -0.0194  0.1047  0.1520
 1018YOPC   C1A14567   2.627  11.413   7.021  0.2472 -0.2313 -0.0131
 1018YOPC   D2A14568   2.321  11.317   7.322 -0.1729  0.1102  0.3414
 1018YOPC   C3A14569   2.196  10.970   7.551 -0.1143 -0.0016  0.0423
 1018YOPC   C4A14570   2.460  10.680   7.765  0.1487 -0.2395 -0.1735
 1018YOPC   C1B14571   2.214  11.446   6.811 -0.1492 -0.2318 -0.0919
 1018YOPC   C2B14572   1.899  11.659   7.076  0.2275 -0.0357 -0.0627
 1018YOPC   D3B14573   1.931  11.828   7.559  0.3493 -0.0140  0.2283
 1018YOPC   C4B14574   1.883  11.950   7.958 -0.3540 -0.0523 -0.0257
 1019YOPC   NC314575  15.076   3.656   6.170  0.1156 -0.1199 -0.0740
 1019YOPC   PO414576  14.897   3.341   6.456  0.1193 -0.1924 -0.1695
 1019YOPC   GL114577  14.995   3.601   6.782 -0.0845  0.0548  0.1952
 1019YOPC   GL214578  15.229   3.726   6.804 -0.1165  0.1510 -0.0637
 1019YOPC   C1A14579  14.807   3.797   7.169  0.0118 -0.0444  0.0716
 1019YOPC   D2A14580  14.836   3.698   7.581  0.0316 -0.1058 -0.0157
 1019YOPC   C3A14581  14.563   3.461   7.747  0.2682  0.2526 -0.0138
 1019YOPC   C4A14582  14.369   3.328   8.177  0.0021  0.1813 -0.0704
 1019YOPC   C1B14583  15.280   3.988   7.199  0.1977 -0.0736  0.0934
 1019YOPC   C2B14584  15.414   4.309   7.544  0.1258  0.1005 -0.2283
 1019YOPC   D3B14585  15.683   4.545   7.637 -0.0844  0.5259 -0.2939
 1019YOPC   C4B14586  16.088   4.390   7.704  0.3483 -0.1409 -0.0692
 1020YOPC   NC314587  13.278   9.140   5.963 -0.0214 -0.1194 -0.0133
 1020YOPC   PO414588  13.657   8.884   6.056  0.1056 -0.0045  0.2793
 1020YOPC   GL114589  13.634   8.718   6.498  0.1603  0.0856 -0.0341
 1020YOPC   GL214590  13.464   8.426   6.374 -0.0743 -0.1685 -0.1840
 1020YOPC   C1A14591  13.641   8.636   6.927  0.1286  0.0172  0.1310
 1020YOPC   D2A14592  13.797   8.452   7.261  0.0767 -0.0321 -0.0403
 1020YOPC   C3A14593  13.490   8.139   7.217 -0.2379 -0.0121 -0.2585
 1020YOPC   C4A14594  13.163   8.021   7.072  0.1012  0.2755 -0.0864
 1020YOPC   C1B14595  13.630   8.181   6.701  0.0962 -0.1108  0.2326
 1020YOPC   C2B14596  14.003   8.142   6.986  0.1758 -0.2001 -0.0013
 1020YOPC   D3B14597  14.105   7.916   7.349  0.1462  0.1714 -0.1804
 1020YOPC   C4B14598  14.240   7.597   7.585  0.1566  0.0325  0.0033
 1021YOPC   NC314599   3.053   9.649   6.669  0.0621  0.2158  0.0275
 1021YOPC   PO414600   3.290  10.089   6.519 -0.0170  0.2203  0.2243
 1021YOPC   GL114601   3.101  10.227   6.852 -0.1129 -0.1594  0.0436
 1021YOPC   GL214602   3.147   9.924   7.057  0.2753 -0.3944 -0.0912
 1021YOPC   C1A14603   3.171  10.690   7.150 -0.1883  0.0229 -0.0453
 1021YOPC   D2A14604   3.170  10.986   7.516 -0.3055 -0.0841  0.1320
 1021YOPC   C3A14605   2.957  10.854   7.873  0.1706 -0.2384 -0.0327
 1021YOPC   C4A14606   2.706  11.036   8.052 -0.3770  0.0439 -0.0801
 1021YOPC   C1B14607   3.237   9.773   7.595 -0.0889  0.0921  0.0351
 1021YOPC   C2B14608   2.946   9.780   7.868 -0.0845 -0.0760  0.1885
 1021YOPC   D3B14609   2.790  10.091   8.213  0.1165 -0.1892 -0.1862
 1021YOPC   C4B14610   2.727  10.519   8.204  0.1754 -0.1396 -0.2079
 1022YOPC   NC314611  16.689  16.258   6.125  0.4388 -0.3488 -0.1072
 1022YOPC   PO414612  16.803  16.693   6.235  0.0438  0.3524 -0.2747
 1022YOPC   GL114613  17.083  16.715   6.633 -0.0980 -0.0225 -0.2618
 1022YOPC   GL214614  17.250  16.513   6.838  0.0148 -0.0894  0.1076
 1022YOPC   C1A14615  17.162  17.056   7.064  0.0255 -0.0730  0.0132
 1022YOPC   D2A14616  17.065  17.069   7.451  0.0406 -0.1073 -0.0641
 1022YOPC   C3A14617  17.030  16.825   7.844  0.0525  0.2632 -0.1631
 1022YOPC   C4A14618  17.025  16.849   8.262  0.1234  0.3683 -0.1233
 1022YOPC   C1B14619  17.316  16.545   7.196 -0.0270 -0.1843 -0.1438
 1022YOPC   C2B14620  17.357  16.439   7.632 -0.0320  0.2715  0.1514
 1022YOPC   D3B14621  17.547  16.064   7.753  0.1492  0.0965  0.0403
 1022YOPC   C4B14622  17.642  15.932   8.167  0.2516  0.3411 -0.0977
 1023YOPC   NC314623  11.147   5.650   5.760  0.0272 -0.0362 -0.4732
 1023YOPC   PO414624  11.363   5.223   5.714  0.1835  0.0641 -0.0577
 1023YOPC   GL114625  11.364   5.307   6.117 -0.2607  0.1165 -0.2028
 1023YOPC   GL214626  11.167   5.567   6.272 -0.2093  0.2870  0.1199
 1023YOPC   C1A14627  11.299   5.233   6.562 -0.1997  0.2078  0.3874
 1023YOPC   D2A14628  11.114   5.112   6.879 -0.2386 -0.1541 -0.0609
 1023YOPC   C3A14629  10.695   5.136   7.142 -0.0287 -0.0589  0.3861
 1023YOPC   C4A14630  10.547   5.175   7.525  0.0785  0.1285 -0.3134
 1023YOPC   C1B14631  11.468   5.758   6.508 -0.0590  0.0274 -0.0408
 1023YOPC   C2B14632  11.737   6.067   6.797  0.4108  0.2362 -0.0218
 1023YOPC   D3B14633  11.668   6.002   7.301  0.0635 -0.3343 -0.2120
 1023YOPC   C4B14634  11.717   6.138   7.705  0.0078 -0.2682 -0.0925
 1024YOPC   NC314635   1.654  10.760   6.423  0.0517  0.1265 -0.1018
 1024YOPC   PO414636   1.208  10.815   6.606 -0.0614  0.2961  0.2213
 1024YOPC   GL114637   1.253  10.910   7.022 -0.0683  0.2039 -0.1797
 1024YOPC   GL214638   1.317  11.195   7.048 -0.0455  0.1514  0.0174
 1024YOPC   C1A14639   0.968  10.879   7.307  0.1385  0.0355 -0.1580
 1024YOPC   D2A14640   0.927  11.048   7.736 -0.0096 -0.1722  0.1545
 1024YOPC   C3A14641   0.585  11.232   7.944  0.2653  0.0155  0.1774
 1024YOPC   C4A14642   0.317  11.066   7.947 -0.2297 -0.1356 -0.0319
 1024YOPC   C1B14643   1.330  11.215   7.445 -0.2273 -0.4413 -0.2273
 1024YOPC   C2B14644   1.403  11.171   7.855 -0.0035 -0.0031  0.0568
 1024YOPC   D3B14645   1.676  11.048   8.033  0.0260  0.1210  0.2035
 1024YOPC   C4B14646   1.846  11.016   8.385  0.0741  0.0663  0.1971
 1025YOPC   NC314647   9.174  14.571   6.197  0.1016 -0.1813 -0.1689
 1025YOPC   PO414648   8.781  14.545   6.416 -0.2583 -0.2398  0.2347
 1025YOPC   GL114649   8.776  14.653   6.811  0.2471 -0.2173  0.2220
 1025YOPC   GL214650   8.574  14.917   6.934 -0.3099 -0.0749  0.1666
 1025YOPC   C1A14651   8.949  14.426   7.187  0.0494 -0.0609  0.4024
 1025YOPC   D2A14652   9.146  14.350   7.548  0.1258 -0.2828 -0.1968
 1025YOPC   C3A14653   8.938  14.386   7.866 -0.0613  0.1816  0.1996
 1025YOPC   C4A14654   8.623  14.400   7.954 -0.0571  0.0385  0.0889
 1025YOPC   C1B14655   8.626  14.786   7.395 -0.1818 -0.1228  0.2384
 1025YOPC   C2B14656   8.660  14.822   7.732  0.1529  0.1446 -0.1273
 1025YOPC   D3B14657   8.286  14.727   7.987  0.1138 -0.2146 -0.2176
 1025YOPC   C4B14658   7.894  14.956   7.924  0.1851 -0.3411  0.2137
 1026YOPC   NC314659  11.959   7.223   5.954 -0.0300 -0.1353  0.0890
 1026YOPC   PO414660  11.818   7.683   6.030  0.3088  0.0040 -0.1312
 1026YOPC   GL114661  11.700   7.465   6.345 -0.1889  0.1035  0.0191
 1026YOPC   GL214662  12.043   7.536   6.512 -0.1541 -0.0266  0.2353
 1026YOPC   C1A14663  11.542   7.489   6.867 -0.2391  0.1467  0.0290
 1026YOPC   D2A14664  11.385   7.446   7.276  0.2147 -0.2576  0.1138
 1026YOPC   C3A14665  11.146   7.694   7.473  0.0356 -0.1417 -0.3188
 1026YOPC   C4A14666  10.791   7.799   7.457  0.0940 -0.1666 -0.0746
 1026YOPC   C1B14667  11.954   7.653   6.929 -0.0374  0.0503 -0.1194
 1026YOPC   C2B14668  11.841   7.732   7.349 -0.2154  0.1370  0.0735
 1026YOPC   D3B14669  12.015   7.753   7.692 -0.0472 -0.0592 -0.0610
 1026YOPC   C4B14670  12.138   8.002   8.148  0.0573  0.3041  0.0764
 1027YOPC   NC314671  11.273   9.367   5.258 -0.0371 -0.1849  0.4424
 1027YOPC   PO414672  11.185   9.603   5.713 -0.0856  0.0840  0.3033
 1027YOPC   GL114673  11.105   9.388   6.070  0.0024 -0.1400 -0.1439
 1027YOPC   GL214674  11.293   9.115   6.214 -0.0693 -0.1262  0.3834
 1027YOPC   C1A14675  10.739   9.386   6.259 -0.2313 -0.1993 -0.0654
 1027YOPC   D2A14676  10.702   9.170   6.579  0.2488 -0.0617  0.1283
 1027YOPC   C3A14677  11.102   9.052   6.813 -0.2369 -0.1330  0.1905
 1027YOPC   C4A14678  11.322   8.924   7.215 -0.1649  0.1895  0.0259
 1027YOPC   C1B14679  11.466   9.254   6.465  0.4445  0.1405  0.0278
 1027YOPC   C2B14680  11.737   8.996   6.823 -0.0539  0.1747  0.2023
 1027YOPC   D3B14681  11.754   8.681   7.146 -0.1477  0.0797  0.0367
 1027YOPC   C4B14682  11.908   8.398   7.335 -0.1980  0.2596  0.1372
 1028YOPC   NC314683   1.880  13.761   6.628 -0.0459  0.0610 -0.3471
 1028YOPC   PO414684   2.264  13.798   6.793  0.3285 -0.1999 -0.4417
 1028YOPC   GL114685   2.435  13.725   7.097  0.0996  0.1160  0.0996
 1028YOPC   GL214686   2.792  13.855   7.175  0.3148 -0.0336  0.1502
 1028YOPC   C1A14687   2.559  13.539   7.479  0.2065  0.0299  0.1298
 1028YOPC   D2A14688   2.569  13.782   7.834 -0.1606  0.2022  0.1978
 1028YOPC   C3A14689   2.746  14.033   8.150  0.2435 -0.0127 -0.1092
 1028YOPC   C4A14690   2.837  14.189   8.496  0.1756 -0.0583  0.2289
 1028YOPC   C1B14691   3.037  13.839   7.528 -0.2094 -0.0184  0.0554
 1028YOPC   C2B14692   3.171  14.086   7.869  0.1804 -0.4021  0.3174
 1028YOPC   D3B14693   3.225  13.893   8.308  0.1763 -0.0638 -0.1231
 1028YOPC   C4B14694   3.230  13.781   8.760 -0.0886  0.3842  0.0931
 1029YOPC   NC314695   5.317  17.126   6.528  0.1943  0.0578  0.3083
 1029YOPC   PO414696   4.886  17.366   6.649 -0.1119 -0.2295 -0.1364
 1029YOPC   GL114697   4.615  17.118   6.836  0.0393 -0.0385  0.2055
 1029YOPC   GL214698   4.750  17.309   7.154 -0.1292  0.3196  0.1587
 1029YOPC   C1A14699   4.614  16.879   7.325  0.1174  0.0824  0.0265
 1029YOPC   D2A14700   4.695  17.242   7.689 -0.0529  0.2722 -0.3154
 1029YOPC   C3A14701   4.393  17.149   8.047 -0.0888  0.1563 -0.2566
 1029YOPC   C4A14702   4.244  16.872   8.332  0.3500  0.0773 -0.1848
 1029YOPC   C1B14703   4.791  17.692   7.346 -0.0360 -0.0096  0.0439
 1029YOPC   C2B14704   4.854  18.249   7.279  0.1613  0.3783 -0.0467
 1029YOPC   D3B14705   5.010  18.442   7.740  0.0419 -0.1268  0.1883
 1029YOPC   C4B14706   5.154  18.494   8.142  0.0303 -0.0228 -0.1507
 1030YOPC   NC314707   2.069  16.027   6.285 -0.2095 -0.1179 -0.0408
 1030YOPC   PO414708   2.232  15.599   6.529 -0.1230 -0.2185  0.0595
 1030YOPC   GL114709   2.394  15.625   6.858 -0.1767 -0.1584 -0.2723
 1030YOPC   GL214710   2.761  15.442   6.809  0.2438  0.2604  0.1245
 1030YOPC   C1A14711   2.487  15.671   7.279  0.0465 -0.1096 -0.0475
 1030YOPC   D2A14712   2.511  15.583   7.675 -0.0021 -0.5196 -0.2868
 1030YOPC   C3A14713   2.633  15.938   7.936  0.2179 -0.1802 -0.2310
 1030YOPC   C4A14714   2.794  15.991   8.355  0.1148 -0.1910  0.0668
 1030YOPC   C1B14715   2.863  15.339   7.157 -0.2253  0.1257  0.2874
 1030YOPC   C2B14716   3.270  15.323   7.299  0.1461 -0.4197  0.0007
 1030YOPC   D3B14717   3.344  15.070   7.715 -0.0935  0.1036  0.0072
 1030YOPC   C4B14718   3.252  15.279   8.166 -0.0570  0.1014 -0.1467
 1031YOPC   NC314719   9.687   4.718   6.148 -0.1567  0.3168 -0.2915
 1031YOPC   PO414720   9.361   4.402   6.141 -0.0953  0.0695  0.3319
 1031YOPC   GL114721   9.080   4.382   6.548  0.1289 -0.0560 -0.0465
 1031YOPC   GL214722   9.081   4.308   6.787 -0.3014 -0.2819  0.0521
 1031YOPC   C1A14723   8.659   4.540   6.660  0.0726  0.2929 -0.1596
 1031YOPC   D2A14724   8.329   4.372   6.864 -0.1795  0.0994 -0.0318
 1031YOPC   C3A14725   8.203   4.469   7.265  0.1294 -0.1687  0.2053
 1031YOPC   C4A14726   8.132   4.548   7.764  0.5083 -0.1125 -0.1351
 1031YOPC   C1B14727   9.249   4.482   7.178 -0.3345  0.0896  0.2060
 1031YOPC   C2B14728   9.369   4.383   7.617  0.0936  0.2525  0.2981
 1031YOPC   D3B14729   9.786   4.416   7.816  0.0520 -0.1267  0.2619
 1031YOPC   C4B14730  10.275   4.383   8.034 -0.2142 -0.1701  0.2468
 1032YOPC   NC314731  12.510   0.973   6.008 -0.2473  0.1428  0.2099
 1032YOPC   PO414732  12.214   0.577   5.982  0.1767 -0.2697  0.1025
 1032YOPC   GL114733  12.382   0.707   6.414  0.0194  0.1293 -0.2329
 1032YOPC   GL214734  12.292   0.757   6.708 -0.0241 -0.0996 -0.1206
 1032YOPC   C1A14735  12.766   0.765   6.782  0.1287 -0.1692  0.0136
 1032YOPC   D2A14736  13.115   0.684   6.962 -0.0902  0.1727  0.0595
 1032YOPC   C3A14737  13.328   0.807   7.329  0.3320  0.1798 -0.1736
 1032YOPC   C4A14738  13.199   0.597   7.697 -0.1556 -0.3095  0.0465
 1032YOPC   C1B14739  12.217   0.961   7.091  0.1426 -0.1518  0.2364
 1032YOPC   C2B14740  12.104   0.948   7.627  0.0271  0.1790  0.0973
 1032YOPC   D3B14741  12.276   1.300   7.972  0.2701  0.0746 -0.3446
 1032YOPC   C4B14742  12.511   1.397   8.311  0.1151 -0.0435  0.1749
 1033YOPC   NC314743   1.549   5.140   6.706  0.1478  0.0937  0.2089
 1033YOPC   PO414744   1.419   5.544   6.926 -0.1631 -0.0582  0.0945
 1033YOPC   GL114745   1.710   5.782   7.105 -0.0031  0.1513 -0.1202
 1033YOPC   GL214746   1.870   6.065   7.140  0.0462 -0.0599  0.0347
 1033YOPC   C1A14747   1.962   5.712   7.493  0.0759 -0.3600 -0.1325
 1033YOPC   D2A14748   2.082   5.805   7.896  0.2510  0.0317 -0.7361
 1033YOPC   C3A14749   1.846   5.552   8.212  0.0096 -0.1474 -0.2259
 1033YOPC   C4A14750   1.487   5.395   8.394 -0.0033 -0.4082  0.2003
 1033YOPC   C1B14751   1.672   6.319   7.414 -0.2420 -0.0184 -0.0184
 1033YOPC   C2B14752   1.479   6.435   7.716 -0.2128  0.2931 -0.0644
 1033YOPC   D3B14753   1.469   6.501   8.095  0.0737  0.0828  0.1187
 1033YOPC   C4B14754   1.615   6.539   8.558 -0.0732 -0.1246  0.0946
 1034YOPC   NC314755  11.826   5.122   5.595 -0.1528  0.1806 -0.0594
 1034YOPC   PO414756  11.950   5.381   5.961  0.0174  0.1506 -0.1007
 1034YOPC   GL114757  11.796   5.459   6.384 -0.0581 -0.1262  0.1252
 1034YOPC   GL214758  11.944   5.763   6.347  0.0596  0.1238  0.2587
 1034YOPC   C1A14759  11.737   5.391   6.838  0.0469 -0.1341  0.0624
 1034YOPC   D2A14760  11.382   5.646   7.050  0.0736 -0.3076 -0.0444
 1034YOPC   C3A14761  11.091   5.498   7.238  0.0050  0.1280  0.2549
 1034YOPC   C4A14762  10.948   5.658   7.535  0.2944 -0.1797 -0.2205
 1034YOPC   C1B14763  12.169   5.656   6.750  0.1383 -0.3289  0.0291
 1034YOPC   C2B14764  11.985   5.647   7.230  0.1072  0.0174  0.0964
 1034YOPC   D3B14765  12.138   5.867   7.477  0.0917  0.0027  0.0477
 1034YOPC   C4B14766  12.337   5.898   7.802 -0.3290  0.0612  0.0672
 1035YOPC   NC314767  17.336  15.170   6.076  0.1809 -0.1507  0.2599
 1035YOPC   PO414768  16.990  15.496   6.180  0.2516 -0.1743 -0.3108
 1035YOPC   GL114769  16.964  15.579   6.660  0.3738 -0.0732 -0.1940
 1035YOPC   GL214770  17.184  15.864   6.806 -0.4210  0.0666 -0.0723
 1035YOPC   C1A14771  16.916  15.557   7.113 -0.2375  0.0512 -0.3556
 1035YOPC   D2A14772  16.881  15.527   7.509  0.1316 -0.2838  0.2280
 1035YOPC   C3A14773  16.625  15.829   7.706  0.2378  0.0912  0.0719
 1035YOPC   C4A14774  16.564  16.012   8.101  0.0572  0.1565 -0.0990
 1035YOPC   C1B14775  17.426  16.078   7.147  0.0813  0.0046  0.2270
 1035YOPC   C2B14776  17.822  15.819   7.266 -0.0350  0.0592 -0.1582
 1035YOPC   D3B14777  17.811  15.665   7.701 -0.1722 -0.1485  0.0252
 1035YOPC   C4B14778  17.949  15.550   8.196 -0.1370 -0.1269 -0.0172
 1036YOPC   NC314779   8.652   9.255   6.075 -0.4914 -0.1672  0.0142
 1036YOPC   PO414780   8.312   9.603   6.044 -0.0285  0.1295 -0.0848
 1036YOPC   GL114781   8.444   9.777   6.326  0.1177  0.1614  0.0492
 1036YOPC   GL214782   8.198   9.830   6.500 -0.2546 -0.0419  0.3402
 1036YOPC   C1A14783   8.695  10.014   6.650 -0.2074 -0.1899 -0.1497
 1036YOPC   D2A14784   8.961   9.936   7.072  0.2115 -0.3142  0.0147
 1036YOPC   C3A14785   9.202  10.014   7.504  0.2977 -0.0640 -0.4841
 1036YOPC   C4A14786   9.527  10.151   7.715 -0.2378  0.0039  0.1608
 1036YOPC   C1B14787   8.371   9.816   6.912  0.1338  0.0741  0.4054
 1036YOPC   C2B14788   8.610   9.736   7.333 -0.0855 -0.0647 -0.0878
 1036YOPC   D3B14789   8.709   9.798   7.783  0.0664 -0.0308 -0.0477
 1036YOPC   C4B14790   8.952   9.799   8.153 -0.0112 -0.1141 -0.1148
 1037YOPC   NC314791   6.164   5.671   6.263  0.1376 -0.3480 -0.3121
 1037YOPC   PO414792   5.817   5.362   6.315  0.4895  0.0881  0.1848
 1037YOPC   GL114793   5.847   5.550   6.732  0.3244 -0.0706 -0.2443
 1037YOPC   GL214794   6.189   5.575   6.807  0.0899 -0.2257  0.0438
 1037YOPC   C1A14795   5.457   5.685   7.069  0.0580 -0.1348 -0.0554
 1037YOPC   D2A14796   5.209   5.668   7.421 -0.1874 -0.1999 -0.0009
 1037YOPC   C3A14797   5.396   5.589   7.696  0.2804  0.0566 -0.2943
 1037YOPC   C4A14798   5.710   5.543   8.009  0.1132 -0.5893 -0.0165
 1037YOPC   C1B14799   5.986   5.493   7.193  0.3491  0.2861  0.0529
 1037YOPC   C2B14800   5.905   5.578   7.573 -0.1299  0.1048  0.1679
 1037YOPC   D3B14801   5.822   5.937   7.485 -0.1273 -0.0362 -0.2659
 1037YOPC   C4B14802   5.872   6.041   7.065 -0.0562 -0.1173 -0.6523
 1038YOPC   NC314803  14.558  11.042   6.327 -0.1457  0.2043 -0.0707
 1038YOPC   PO414804  14.426  11.448   6.489  0.0044  0.0829 -0.1299
 1038YOPC   GL114805  14.353  11.090   6.816 -0.0934  0.0935 -0.1644
 1038YOPC   GL214806  13.990  11.078   6.778 -0.0782 -0.1340 -0.1959
 1038YOPC   C1A14807  14.306  10.823   7.129  0.3588  0.0205 -0.1332
 1038YOPC   D2A14808  14.222  10.807   7.504  0.1067  0.1642  0.1995
 1038YOPC   C3A14809  14.432  10.842   7.893  0.0837 -0.0109 -0.2477
 1038YOPC   C4A14810  14.814  10.608   7.974 -0.0696 -0.3281 -0.0189
 1038YOPC   C1B14811  13.850  11.185   7.132  0.0504  0.1716  0.0752
 1038YOPC   C2B14812  13.750  10.956   7.457 -0.0962 -0.1328  0.1940
 1038YOPC   D3B14813  13.697  11.199   7.871  0.0144  0.2295  0.3499
 1038YOPC   C4B14814  13.613  11.599   8.074  0.2150 -0.1680  0.4864
 1039YOPC   NC314815  16.363  10.188   6.174  0.0620 -0.0279 -0.0236
 1039YOPC   PO414816  15.953   9.964   6.232  0.2597 -0.0257  0.0803
 1039YOPC   GL114817  15.708   9.794   6.596 -0.0282  0.4911  0.1113
 1039YOPC   GL214818  15.764   9.933   6.782 -0.2657  0.0133  0.1919
 1039YOPC   C1A14819  15.335   9.667   6.894  0.0149 -0.0555  0.0577
 1039YOPC   D2A14820  15.304   9.672   7.395  0.0314  0.1165 -0.1087
 1039YOPC   C3A14821  15.299   9.647   7.825 -0.0622  0.0607 -0.1762
 1039YOPC   C4A14822  15.073   9.408   8.001  0.2744  0.2044 -0.3664
 1039YOPC   C1B14823  15.801  10.005   7.256 -0.1203  0.1729  0.0698
 1039YOPC   C2B14824  15.726   9.933   7.712  0.0203 -0.3632 -0.2576
 1039YOPC   D3B14825  15.690  10.339   8.036 -0.1975  0.0115  0.0981
 1039YOPC   C4B14826  15.559  10.804   7.983 -0.0764 -0.0968 -0.2081
 1040YOPC   NC314827  15.260   4.960   5.679  0.0487 -0.1055 -0.0076
 1040YOPC   PO414828  15.394   4.984   6.194  0.3093  0.1993 -0.0005
 1040YOPC   GL114829  15.115   5.051   6.675 -0.0979 -0.1925 -0.0864
 1040YOPC   GL214830  15.281   4.847   6.847  0.1161 -0.1047  0.0375
 1040YOPC   C1A14831  15.076   5.428   6.921  0.0108 -0.0971  0.0470
 1040YOPC   D2A14832  14.811   5.773   7.026 -0.1800  0.2203 -0.0760
 1040YOPC   C3A14833  14.924   5.738   7.454 -0.0317  0.1713 -0.1631
 1040YOPC   C4A14834  14.731   5.558   7.827 -0.1178  0.0357 -0.2564
 1040YOPC   C1B14835  15.131   5.057   7.196 -0.0004 -0.3237  0.0869
 1040YOPC   C2B14836  15.015   5.227   7.536 -0.0810 -0.1123 -0.1823
 1040YOPC   D3B14837  14.998   5.176   7.927 -0.0288 -0.1919  0.1202
 1040YOPC   C4B14838  15.444   5.164   8.061 -0.2179  0.3760 -0.0136
 1041YOPC   NC314839   2.094   0.457   6.597 -0.0838 -0.1984 -0.0101
 1041YOPC   PO414840   2.437   0.204   6.684 -0.1336  0.1709 -0.0457
 1041YOPC   GL114841   2.296   0.350   7.063  0.1314 -0.2681 -0.0622
 1041YOPC   GL214842   2.181   0.653   7.152  0.3490  0.1285 -0.0389
 1041YOPC   C1A14843   2.367   0.209   7.430 -0.1461 -0.2247 -0.1084
 1041YOPC   D2A14844   2.174   0.160   7.866  0.1925  0.4261 -0.1122
 1041YOPC   C3A14845   2.451   0.029   8.218  0.0373  0.1614  0.1752
 1041YOPC   C4A14846   2.934  -0.251   8.336 -0.0759 -0.0509  0.0688
 1041YOPC   C1B14847   2.127   0.610   7.602  0.0451 -0.1785  0.3476
 1041YOPC   C2B14848   2.039   0.777   8.057  0.2450 -0.3282 -0.0249
 1041YOPC   D3B14849   1.987   0.428   8.275  0.0540 -0.1788  0.0391
 1041YOPC   C4B14850   2.140   0.169   8.667 -0.0423  0.1994 -0.0723
 1042YOPC   NC314851  12.548  11.066   5.953  0.1310 -0.0598 -0.0514
 1042YOPC   PO414852  12.879  10.729   6.011 -0.0380  0.0899  0.1083
 1042YOPC   GL114853  12.517  10.734   6.311 -0.0334  0.0682  0.0533
 1042YOPC   GL214854  12.252  11.012   6.374  0.3025 -0.3075  0.1136
 1042YOPC   C1A14855  12.594  10.635   6.778  0.0828 -0.3844 -0.3042
 1042YOPC   D2A14856  12.509  10.652   7.186 -0.1855  0.1802 -0.1911
 1042YOPC   C3A14857  12.125  10.791   7.600 -0.2469 -0.0583  0.3176
 1042YOPC   C4A14858  11.992  10.974   7.940 -0.0231 -0.0237 -0.0727
 1042YOPC   C1B14859  12.017  10.675   6.435  0.0348  0.0067 -0.0681
 1042YOPC   C2B14860  12.113  10.271   6.572  0.1949  0.0249  0.3598
 1042YOPC   D3B14861  12.052   9.962   6.876 -0.2120  0.0169  0.1531
 1042YOPC   C4B14862  11.929   9.846   7.290 -0.3160 -0.0811  0.1636
 1043YOPC   NC314863   3.510  15.056   6.446  0.0855 -0.0424  0.2302
 1043YOPC   PO414864   3.402  15.424   6.650  0.4033  0.2803 -0.3077
 1043YOPC   GL114865   3.234  14.976   6.922  0.1046  0.2114  0.0761
 1043YOPC   GL214866   3.416  14.753   7.253  0.1120 -0.1266  0.1520
 1043YOPC   C1A14867   2.879  14.846   7.243 -0.3169 -0.0432  0.0048
 1043YOPC   D2A14868   3.051  14.665   7.686 -0.0641  0.4359 -0.2898
 1043YOPC   C3A14869   3.460  14.571   7.928 -0.1297 -0.2191  0.0204
 1043YOPC   C4A14870   3.657  14.279   8.202  0.0618 -0.0218  0.0769
 1043YOPC   C1B14871   3.739  15.114   7.420 -0.1302 -0.0238 -0.0257
 1043YOPC   C2B14872   4.085  15.169   7.712 -0.2094  0.2229  0.1346
 1043YOPC   D3B14873   4.109  15.090   8.122 -0.1769 -0.0884  0.0785
 1043YOPC   C4B14874   4.087  15.310   8.473 -0.2644  0.2477  0.0353
 1044YOPC   NC314875   2.596   5.962   6.575 -0.1530 -0.0434  0.1268
 1044YOPC   PO414876   2.438   6.244   6.882 -0.1515  0.1741  0.0440
 1044YOPC   GL114877   2.446   6.162   7.228  0.0893 -0.1140  0.2538
 1044YOPC   GL214878   2.729   5.997   7.300 -0.0192 -0.1696  0.3107
 1044YOPC   C1A14879   2.294   6.170   7.587  0.0664  0.0791 -0.2144
 1044YOPC   D2A14880   2.037   6.338   7.769 -0.0960  0.1184  0.0510
 1044YOPC   C3A14881   1.950   6.375   8.233  0.0182  0.0971  0.0291
 1044YOPC   C4A14882   2.107   6.113   8.580 -0.1741 -0.2575  0.0022
 1044YOPC   C1B14883   2.831   5.818   7.699  0.0883  0.0766 -0.0675
 1044YOPC   C2B14884   2.899   5.539   8.028  0.3736 -0.1659  0.0559
 1044YOPC   D3B14885   2.813   5.320   8.403  0.0470 -0.0400 -0.0032
 1044YOPC   C4B14886   2.839   5.374   8.846 -0.1159 -0.2752 -0.1909
 1045YOPC   NC314887  10.341  12.194   6.170 -0.1469  0.3585  0.1605
 1045YOPC   PO414888   9.946  12.259   6.233 -0.0577 -0.1907  0.0516
 1045YOPC   GL114889   9.889  11.910   6.370 -0.0974 -0.2868  0.0929
 1045YOPC   GL214890  10.029  12.039   6.650 -0.1865  0.0719  0.0068
 1045YOPC   C1A14891   9.661  11.659   6.589 -0.1629 -0.2463  0.1291
 1045YOPC   D2A14892   9.451  11.331   6.683 -0.0168 -0.0869  0.1671
 1045YOPC   C3A14893   9.614  11.187   7.011  0.1058  0.3083  0.2668
 1045YOPC   C4A14894   9.549  10.970   7.236 -0.1168 -0.1011  0.0376
 1045YOPC   C1B14895   9.951  11.856   7.005 -0.2189  0.0874  0.1014
 1045YOPC   C2B14896  10.002  11.844   7.419 -0.0562  0.0389 -0.3136
 1045YOPC   D3B14897  10.123  11.977   7.878  0.0479 -0.0526  0.3134
 1045YOPC   C4B14898  10.131  12.070   8.382  0.0753 -0.1316  0.1155
 1046YOPC   NC314899  10.355  11.511   5.236 -0.1668  0.2087  0.0131
 1046YOPC   PO414900  10.613  11.336   5.469  0.1434 -0.2931 -0.0069
 1046YOPC   GL114901  10.818  11.219   5.931 -0.2489  0.1754  0.1457
 1046YOPC   GL214902  10.595  11.337   6.023  0.0688 -0.4063 -0.4610
 1046YOPC   C1A14903  11.057  11.023   6.279  0.0995  0.0010 -0.1845
 1046YOPC   D2A14904  11.230  10.696   6.627 -0.3785 -0.3291  0.1190
 1046YOPC   C3A14905  11.632  10.653   6.742 -0.1853 -0.0045  0.0408
 1046YOPC   C4A14906  12.093  10.661   6.959  0.0231  0.2952 -0.1368
 1046YOPC   C1B14907  10.526  11.232   6.432  0.1215 -0.2633 -0.0732
 1046YOPC   C2B14908  10.408  10.954   6.768 -0.2333 -0.0877  0.2778
 1046YOPC   D3B14909  10.419  11.017   7.163  0.0197  0.1496  0.2058
 1046YOPC   C4B14910  10.455  11.150   7.494 -0.3603 -0.2789  0.2197
 1047YOPC   NC314911  16.787   1.298   6.236 -0.0290 -0.0070  0.0667
 1047YOPC   PO414912  16.851   0.896   6.321  0.0475  0.0663  0.1057
 1047YOPC   GL114913  16.898   1.178   6.713  0.2781  0.1064 -0.0688
 1047YOPC   GL214914  16.526   1.294   6.760  0.0428  0.2618  0.2659
 1047YOPC   C1A14915  16.970   1.041   7.127 -0.0162  0.0312 -0.2012
 1047YOPC   D2A14916  16.875   1.087   7.478  0.0623  0.0706  0.1537
 1047YOPC   C3A14917  16.786   0.737   7.803  0.2346 -0.1040  0.5360
 1047YOPC   C4A14918  16.431   0.701   8.065 -0.0931  0.0459 -0.0619
 1047YOPC   C1B14919  16.520   0.918   7.163  0.0435 -0.2002  0.1811
 1047YOPC   C2B14920  16.344   0.703   7.568  0.1946 -0.0558  0.1141
 1047YOPC   D3B14921  16.343   1.077   7.730  0.1855  0.1218  0.3210
 1047YOPC   C4B14922  16.016   1.308   7.971 -0.1685 -0.2161  0.0066
 1048YOPC   NC314923  15.487   9.849   5.950  0.2263 -0.3111  0.0139
 1048YOPC   PO414924  15.325  10.032   6.338 -0.0243 -0.0738 -0.0739
 1048YOPC   GL114925  15.279  10.152   6.764 -0.2516 -0.0023  0.1175
 1048YOPC   GL214926  14.949   9.852   6.752 -0.0976 -0.1537  0.1497
 1048YOPC   C1A14927  15.402  10.235   7.175  0.1632 -0.0516 -0.2614
 1048YOPC   D2A14928  15.292  10.143   7.667  0.3730  0.0972  0.0891
 1048YOPC   C3A14929  15.167  10.283   8.113  0.3821 -0.0895  0.0308
 1048YOPC   C4A14930  15.383  10.537   8.419 -0.2273  0.0728 -0.3429
 1048YOPC   C1B14931  14.627   9.696   7.022 -0.2251 -0.0796 -0.1424
 1048YOPC   C2B14932  14.282   9.719   7.344  0.0184 -0.1782  0.2078
 1048YOPC   D3B14933  14.321   9.893   7.647 -0.1867  0.2228 -0.1276
 1048YOPC   C4B14934  14.332   9.770   8.152 -0.0355 -0.3871  0.0182
 1049YOPC   NC314935   4.133   6.681   6.245 -0.2603  0.1681  0.1588
 1049YOPC   PO414936   3.929   6.462   6.589 -0.0147  0.2747 -0.1467
 1049YOPC   GL114937   3.976   6.402   7.036  0.1457  0.2866 -0.1558
 1049YOPC   GL214938   3.668   6.365   7.075 -0.0911  0.0032 -0.2093
 1049YOPC   C1A14939   4.257   6.570   7.386  0.0711 -0.2058  0.3236
 1049YOPC   D2A14940   4.183   6.638   7.859  0.2237  0.0340 -0.0807
 1049YOPC   C3A14941   3.777   6.747   8.010 -0.0612 -0.0148  0.3447
 1049YOPC   C4A14942   3.507   6.554   8.285  0.0091 -0.1421 -0.1059
 1049YOPC   C1B14943   3.825   6.403   7.566  0.1090  0.0394 -0.0467
 1049YOPC   C2B14944   3.824   6.251   8.007  0.2634 -0.0498 -0.0974
 1049YOPC   D3B14945   4.018   6.487   8.301 -0.0987 -0.2966 -0.0961
 1049YOPC   C4B14946   4.249   6.927   8.347  0.2294 -0.0700  0.0512
 1050YOPC   NC314947  13.677  14.771   5.882 -0.0909  0.1862  0.1509
 1050YOPC   PO414948  13.908  15.204   5.774  0.2093 -0.0363 -0.0471
 1050YOPC   GL114949  13.704  15.208   6.297  0.0881  0.1416 -0.1808
 1050YOPC   GL214950  13.485  15.035   6.453  0.2495  0.1016 -0.1646
 1050YOPC   C1A14951  14.019  15.331   6.634  0.0115  0.0160 -0.2869
 1050YOPC   D2A14952  14.416  15.221   6.674  0.2204 -0.1370  0.0344
 1050YOPC   C3A14953  14.521  14.994   6.984 -0.1716  0.1232 -0.1283
 1050YOPC   C4A14954  14.875  14.944   7.234  0.1392 -0.2871  0.0192
 1050YOPC   C1B14955  13.611  15.016   6.811  0.1248 -0.0160 -0.0648
 1050YOPC   C2B14956  13.497  14.884   7.220 -0.0169  0.3715  0.0403
 1050YOPC   D3B14957  13.662  14.931   7.547  0.0422  0.0957 -0.1664
 1050YOPC   C4B14958  13.974  14.985   7.759 -0.0447  0.0629 -0.2241
 1051YOPC   NC314959   1.523   9.376   6.691  0.0968 -0.1604 -0.0759
 1051YOPC   PO414960   1.338   9.123   6.421 -0.2409 -0.0977  0.0627
 1051YOPC   GL114961   1.302   8.973   6.862 -0.0043  0.1414  0.0825
 1051YOPC   GL214962   1.050   8.785   7.052  0.1093  0.0453 -0.0085
 1051YOPC   C1A14963   1.557   8.901   7.297  0.0524  0.0648 -0.1335
 1051YOPC   D2A14964   1.576   8.905   7.809  0.0985  0.2401 -0.1110
 1051YOPC   C3A14965   1.518   9.094   8.088  0.0903  0.1111 -0.1886
 1051YOPC   C4A14966   1.237   9.074   8.351  0.1739  0.0383 -0.0372
 1051YOPC   C1B14967   1.247   8.586   7.469 -0.2863 -0.0776  0.1871
 1051YOPC   C2B14968   1.652   8.323   7.475  0.3006 -0.0382  0.0152
 1051YOPC   D3B14969   2.074   8.302   7.521 -0.0116  0.2766 -0.0795
 1051YOPC   C4B14970   2.420   8.030   7.653 -0.2125 -0.1057  0.1077
 1052YOPC   NC314971  11.222  10.650   5.378  0.4529  0.0794 -0.2080
 1052YOPC   PO414972  11.519  10.570   5.518 -0.1141 -0.0176 -0.1315
 1052YOPC   GL114973  11.512  10.592   6.000  0.3568  0.1393 -0.2830
 1052YOPC   GL214974  11.791  10.365   6.123 -0.0442 -0.1981 -0.2087
 1052YOPC   C1A14975  11.594  10.880   6.284 -0.1003  0.1039 -0.2312
 1052YOPC   D2A14976  11.418  11.162   6.563 -0.1892  0.4623 -0.0887
 1052YOPC   C3A14977  11.371  11.000   7.004  0.0094  0.2935 -0.1771
 1052YOPC   C4A14978  11.358  10.542   7.249  0.0324  0.1934  0.1897
 1052YOPC   C1B14979  11.616  10.249   6.474  0.0621  0.1825 -0.0420
 1052YOPC   C2B14980  11.605  10.210   6.929 -0.0159  0.3060  0.1554
 1052YOPC   D3B14981  11.480  10.090   7.318  0.0439  0.6514  0.3220
 1052YOPC   C4B14982  11.628  10.131   7.650  0.0490 -0.0357 -0.1893
 1053YOPC   NC314983  14.911  12.494   6.293 -0.0475 -0.2083  0.1350
 1053YOPC   PO414984  14.786  12.080   6.366 -0.0511  0.1397  0.1051
 1053YOPC   GL114985  15.143  12.151   6.735  0.2263 -0.2159  0.0592
 1053YOPC   GL214986  15.304  11.819   6.649 -0.2099  0.1421  0.2000
 1053YOPC   C1A14987  15.144  12.117   7.164 -0.1177  0.2062  0.3442
 1053YOPC   D2A14988  15.378  12.141   7.564  0.1611 -0.1072  0.0646
 1053YOPC   C3A14989  15.470  12.282   7.979  0.1413  0.0728  0.0180
 1053YOPC   C4A14990  15.755  12.202   8.364 -0.0849 -0.2621  0.1806
 1053YOPC   C1B14991  14.908  11.696   6.962  0.0861  0.3105 -0.0569
 1053YOPC   C2B14992  14.957  11.534   7.422 -0.0793 -0.1783 -0.1743
 1053YOPC   D3B14993  14.772  11.532   7.673  0.0611 -0.2410 -0.1211
 1053YOPC   C4B14994  14.842  11.677   8.134 -0.0456  0.1559  0.0254
 1054YOPC   NC314995   5.577  11.546   5.844 -0.2999 -0.2072 -0.0491
 1054YOPC   PO414996   5.765  11.543   6.169  0.1542 -0.2215  0.0799
 1054YOPC   GL114997   6.065  11.275   6.518  0.1758  0.1768 -0.0568
 1054YOPC   GL214998   6.333  11.271   6.503  0.0336 -0.0451 -0.1827
 1054YOPC   C1A14999   6.108  11.384   7.030  0.2460  0.0467  0.0261
 1054YOPC   D2A15000   6.066  11.362   7.426  0.1576 -0.1790  0.0837
 1054YOPC   C3A15001   6.369  11.174   7.643  0.2452 -0.0044  0.0788
 1054YOPC   C4A15002   6.412  10.982   8.065  0.0224 -0.0020  0.2340
 1054YOPC   C1B15003   6.435  11.029   6.875  0.1146  0.0264 -0.1185
 1054YOPC   C2B15004   6.411  10.851   7.259  0.0907 -0.0557  0.1416
 1054YOPC   D3B15005   6.620  10.700   7.686  0.0842  0.0401  0.2032
 1054YOPC   C4B15006   6.707  10.601   8.149 -0.0476  0.0271 -0.0588
 1055YOPC   NC315007   1.852   3.395   6.244  0.0553 -0.2021 -0.6464
 1055YOPC   PO415008   1.517   3.670   6.345  0.0871  0.1588 -0.2137
 1055YOPC   GL115009   1.352   3.511   6.633 -0.0610  0.0884  0.1173
 1055YOPC   GL215010   1.072   3.741   6.632  0.1392  0.0848  0.1909
 1055YOPC   C1A15011   1.207   3.181   6.960  0.0194  0.0565 -0.2665
 1055YOPC   D2A15012   1.370   3.006   7.409 -0.1003 -0.0711 -0.1597
 1055YOPC   C3A15013   1.093   2.965   7.750  0.1036 -0.0361  0.0687
 1055YOPC   C4A15014   1.026   3.219   8.154  0.2395 -0.0182  0.1796
 1055YOPC   C1B15015   1.228   4.003   7.011  0.2120  0.2686 -0.2092
 1055YOPC   C2B15016   0.985   3.956   7.428  0.1841  0.3036 -0.0796
 1055YOPC   D3B15017   0.583   3.859   7.554 -0.0528 -0.0006  0.3361
 1055YOPC   C4B15018   0.255   3.831   7.770 -0.2417 -0.1626 -0.1740
 1056YOPC   NC315019  17.175   0.045   5.764  0.0666  0.1368 -0.0599
 1056YOPC   PO415020  17.369   0.312   6.236 -0.0394  0.0560  0.1528
 1056YOPC   GL115021  17.205   0.330   6.579  0.0994 -0.0902 -0.0544
 1056YOPC   GL215022  16.745   0.265   6.594  0.0032 -0.0543 -0.3126
 1056YOPC   C1A15023  17.024   0.353   7.000 -0.0368  0.3303  0.0792
 1056YOPC   D2A15024  16.782   0.529   7.309  0.0132  0.0595  0.3308
 1056YOPC   C3A15025  16.636   0.292   7.562  0.1903 -0.1778 -0.1084
 1056YOPC   C4A15026  16.503   0.141   7.885  0.1394 -0.0539  0.1180
 1056YOPC   C1B15027  16.605  -0.210   6.683 -0.1543 -0.1131  0.0510
 1056YOPC   C2B15028  16.698  -0.430   6.947  0.1597  0.1014  0.2293
 1056YOPC   D3B15029  16.611  -0.429   7.288  0.3458  0.0207 -0.2288
 1056YOPC   C4B15030  16.537  -0.706   7.689 -0.3234  0.1065  0.0928
 1057YOPC   NC315031   1.536   1.348   6.411 -0.2712  0.0216  0.3006
 1057YOPC   PO415032   1.369   0.973   6.705  0.3328  0.1827  0.1568
 1057YOPC   GL115033   1.485   1.161   7.025 -0.3878  0.1588  0.1925
 1057YOPC   GL215034   1.749   1.344   6.928  0.1470  0.0041 -0.0447
 1057YOPC   C1A15035   1.422   1.216   7.391 -0.3356  0.0053  0.0130
 1057YOPC   D2A15036   1.741   1.417   7.676 -0.0487 -0.3605  0.0857
 1057YOPC   C3A15037   1.824   1.213   8.126 -0.1667 -0.2006 -0.0207
 1057YOPC   C4A15038   2.041   1.099   8.495 -0.1599  0.0451  0.0576
 1057YOPC   C1B15039   2.114   1.224   7.263 -0.1723  0.0274 -0.1006
 1057YOPC   C2B15040   2.189   1.158   7.714  0.0913 -0.1401 -0.1957
 1057YOPC   D3B15041   2.431   1.048   8.014 -0.4151  0.2734 -0.0501
 1057YOPC   C4B15042   2.678   1.231   8.303  0.0258  0.1825 -0.0187
 1058YOPC   NC315043  11.757   1.492   6.239  0.0746  0.0424  0.0997
 1058YOPC   PO415044  11.979   1.021   6.123  0.1659  0.1866  0.1178
 1058YOPC   GL115045  12.061   1.133   6.531  0.2740  0.0671 -0.3036
 1058YOPC   GL215046  12.161   1.436   6.524  0.0069  0.0643  0.0766
 1058YOPC   C1A15047  11.766   1.153   6.877  0.0167 -0.0661 -0.1255
 1058YOPC   D2A15048  11.807   1.257   7.281  0.0344 -0.0597 -0.0117
 1058YOPC   C3A15049  11.593   1.015   7.486 -0.0697  0.2581 -0.1655
 1058YOPC   C4A15050  11.185   0.962   7.542 -0.0161 -0.0623  0.3230
 1058YOPC   C1B15051  12.209   1.463   6.946 -0.1838 -0.0271 -0.1197
 1058YOPC   C2B15052  12.284   1.371   7.385  0.0266 -0.0096  0.0635
 1058YOPC   D3B15053  12.662   1.279   7.648 -0.1343 -0.4614  0.1027
 1058YOPC   C4B15054  13.145   1.103   7.690  0.4731  0.0853  0.1017
 1059YOPC   NC315055   8.604  12.327   5.784 -0.1901  0.1992  0.2289
 1059YOPC   PO415056   8.334  12.170   6.131  0.0488 -0.1196  0.2964
 1059YOPC   GL115057   8.105  12.117   6.546  0.3810 -0.1104  0.2231
 1059YOPC   GL215058   7.823  11.909   6.376 -0.3914  0.1810 -0.0439
 1059YOPC   C1A15059   8.116  11.989   6.903  0.2762  0.0359  0.0426
 1059YOPC   D2A15060   8.183  11.701   7.320 -0.1283 -0.1014 -0.3620
 1059YOPC   C3A15061   8.142  11.693   7.650  0.1100  0.1224  0.1950
 1059YOPC   C4A15062   8.422  11.548   7.931  0.1726  0.0936 -0.0914
 1059YOPC   C1B15063   7.670  11.632   6.737 -0.1119 -0.2114 -0.2197
 1059YOPC   C2B15064   7.741  11.630   7.130  0.3031 -0.1220  0.0816
 1059YOPC   D3B15065   7.758  11.450   7.627 -0.0225  0.3229 -0.2580
 1059YOPC   C4B15066   7.540  11.228   8.060 -0.0415 -0.3143 -0.1476
 1060YOPC   NC315067  17.250   8.014   6.359 -0.1519 -0.2560  0.0200
 1060YOPC   PO415068  17.323   7.730   6.658 -0.0330 -0.1005 -0.2082
 1060YOPC   GL115069  17.527   7.896   6.931 -0.2191  0.0449 -0.2590
 1060YOPC   GL215070  17.345   8.222   6.855  0.1002 -0.2447  0.1121
 1060YOPC   C1A15071  17.471   8.019   7.326  0.0002 -0.1040  0.3611
 1060YOPC   D2A15072  17.240   7.965   7.675 -0.0134  0.0696  0.1956
 1060YOPC   C3A15073  17.375   7.759   8.048  0.1320  0.2591  0.0840
 1060YOPC   C4A15074  17.498   7.810   8.415  0.0969 -0.0254  0.1253
 1060YOPC   C1B15075  17.652   8.523   6.971  0.0256 -0.0372  0.2273
 1060YOPC   C2B15076  17.848   8.714   7.289 -0.1548 -0.1143 -0.1168
 1060YOPC   D3B15077  17.694   8.721   7.722  0.0567  0.1555  0.0847
 1060YOPC   C4B15078  17.523   8.708   8.097 -0.1054 -0.2105  0.0936
 1061YOPC   NC315079   3.794   9.061   6.287 -0.0164  0.3294 -0.0942
 1061YOPC   PO415080   3.754   8.652   6.470  0.4568 -0.0901 -0.1225
 1061YOPC   GL115081   3.831   8.529   6.919  0.1369  0.0196 -0.0661
 1061YOPC   GL215082   3.866   8.248   6.965 -0.0150 -0.1553  0.4433
 1061YOPC   C1A15083   3.854   8.447   7.365 -0.5162  0.1279  0.2964
 1061YOPC   D2A15084   3.969   8.606   7.782  0.2195 -0.0582 -0.3328
 1061YOPC   C3A15085   3.750   8.816   8.146  0.0477 -0.0223 -0.2204
 1061YOPC   C4A15086   3.423   8.746   8.162  0.0534  0.3098 -0.3518
 1061YOPC   C1B15087   4.021   7.971   7.331  0.2207  0.0315 -0.1776
 1061YOPC   C2B15088   4.036   8.119   7.762 -0.1108  0.2856  0.1228
 1061YOPC   D3B15089   4.139   8.295   8.180 -0.0207 -0.2848 -0.2528
 1061YOPC   C4B15090   4.474   8.319   8.539  0.1626  0.0481 -0.2557
 1062YOPC   NC315091  11.980  16.103   6.163 -0.2377 -0.0301  0.1577
 1062YOPC   PO415092  12.301  16.459   6.166  0.2954 -0.1299  0.0630
 1062YOPC   GL115093  12.400  16.191   6.413 -0.0368 -0.0346 -0.1840
 1062YOPC   GL215094  12.759  16.275   6.410 -0.0949 -0.0715 -0.2942
 1062YOPC   C1A15095  12.320  16.156   6.811  0.1053  0.3513 -0.1048
 1062YOPC   D2A15096  12.085  15.981   7.078 -0.2015  0.0961  0.1454
 1062YOPC   C3A15097  11.567  15.887   7.045  0.0122 -0.0340 -0.0208
 1062YOPC   C4A15098  11.174  16.128   6.930  0.1600 -0.0041 -0.1504
 1062YOPC   C1B15099  12.820  16.141   6.778 -0.2137 -0.0597  0.2870
 1062YOPC   C2B15100  12.928  16.143   7.180 -0.1945 -0.1618  0.0759
 1062YOPC   D3B15101  13.072  16.231   7.719  0.0009  0.0277 -0.2413
 1062YOPC   C4B15102  13.099  16.376   8.109  0.2543  0.1286 -0.0413
 1063YOPC   NC315103  10.798  13.849   5.867  0.1092  0.1747 -0.1143
 1063YOPC   PO415104  10.942  13.437   5.972 -0.1332  0.3451 -0.2338
 1063YOPC   GL115105  11.042  13.289   6.412 -0.2212  0.1059 -0.1345
 1063YOPC   GL215106  11.218  13.539   6.496 -0.2446  0.1506  0.2057
 1063YOPC   C1A15107  10.972  13.099   6.733 -0.1253  0.1379  0.0922
 1063YOPC   D2A15108  11.141  13.013   7.022 -0.0585  0.1216  0.0113
 1063YOPC   C3A15109  10.998  13.074   7.534 -0.0012 -0.0271  0.0837
 1063YOPC   C4A15110  11.199  12.976   7.939  0.0721 -0.1512  0.1652
 1063YOPC   C1B15111  11.112  13.530   6.969  0.3032  0.2133 -0.2701
 1063YOPC   C2B15112  11.338  13.361   7.368  0.0672 -0.1610 -0.1688
 1063YOPC   D3B15113  11.257  13.514   7.761  0.1004  0.0998  0.1694
 1063YOPC   C4B15114  11.239  13.512   8.216  0.0299 -0.0753  0.0189
 1064YOPC   NC315115  16.990  14.468   6.057 -0.0050  0.0249 -0.0371
 1064YOPC   PO415116  17.295  14.670   6.334  0.0303 -0.2350 -0.3071
 1064YOPC   GL115117  17.130  14.652   6.769  0.2958 -0.1736  0.1479
 1064YOPC   GL215118  17.533  14.652   6.801 -0.1274  0.0028 -0.0301
 1064YOPC   C1A15119  17.064  14.540   7.269 -0.1170  0.0647 -0.1192
 1064YOPC   D2A15120  16.935  14.708   7.705 -0.2507 -0.1801  0.1788
 1064YOPC   C3A15121  17.106  14.719   8.111  0.0655 -0.0290  0.1154
 1064YOPC   C4A15122  17.141  14.721   8.583 -0.0715 -0.3294 -0.2970
 1064YOPC   C1B15123  17.564  14.602   7.218  0.2465  0.1710 -0.0920
 1064YOPC   C2B15124  17.453  14.583   7.578 -0.0580  0.2228  0.1007
 1064YOPC   D3B15125  17.607  14.661   7.958 -0.3056  0.1212  0.3009
 1064YOPC   C4B15126  17.575  14.608   8.373 -0.1420 -0.2424 -0.1999
 1065YOPC   NC315127   6.410   9.634   6.001 -0.1142 -0.3289  0.1694
 1065YOPC   PO415128   6.411   9.160   6.135 -0.1196  0.0056  0.2342
 1065YOPC   GL115129   6.318   9.222   6.496  0.3189 -0.2356 -0.4114
 1065YOPC   GL215130   6.051   9.400   6.548  0.0838 -0.1761 -0.2430
 1065YOPC   C1A15131   6.585   9.479   6.710 -0.3001 -0.0197 -0.3532
 1065YOPC   D2A15132   6.621   9.592   7.113 -0.3702 -0.0119  0.0654
 1065YOPC   C3A15133   6.569  10.012   7.251 -0.0705  0.0586 -0.3847
 1065YOPC   C4A15134   6.260  10.396   7.396 -0.0497 -0.2320 -0.3580
 1065YOPC   C1B15135   6.061   9.439   6.971  0.2283  0.0224 -0.2087
 1065YOPC   C2B15136   6.115   9.797   7.325 -0.2358 -0.1559  0.3653
 1065YOPC   D3B15137   6.237   9.938   7.702  0.1478 -0.1911 -0.2278
 1065YOPC   C4B15138   6.646  10.221   7.759 -0.0407  0.1365 -0.0643
 1066YOPC   NC315139  12.099  15.102   6.102 -0.0846 -0.1754 -0.2220
 1066YOPC   PO415140  12.471  14.841   6.054  0.0669  0.1281 -0.2024
 1066YOPC   GL115141  12.637  14.609   6.390  0.1118  0.5862 -0.0176
 1066YOPC   GL215142  12.750  14.328   6.405  0.1113 -0.3098 -0.1265
 1066YOPC   C1A15143  12.537  14.561   6.830  0.0189 -0.0790  0.1845
 1066YOPC   D2A15144  12.251  14.751   7.161  0.1944  0.1627  0.0270
 1066YOPC   C3A15145  12.218  14.491   7.507 -0.0624  0.0738  0.1761
 1066YOPC   C4A15146  12.127  14.366   7.920 -0.1242  0.3871  0.1217
 1066YOPC   C1B15147  12.810  14.207   6.842  0.1629  0.0785 -0.0253
 1066YOPC   C2B15148  12.635  14.348   7.259  0.2670 -0.4296  0.0925
 1066YOPC   D3B15149  12.484  14.045   7.522 -0.1002  0.1075  0.0588
 1066YOPC   C4B15150  12.594  13.678   7.850 -0.0323 -0.0783 -0.1172
 1067YOPC   NC315151   7.596   2.887   6.129 -0.1937 -0.0021 -0.1201
 1067YOPC   PO415152   7.475   2.733   6.486  0.0913 -0.0636 -0.1956
 1067YOPC   GL115153   7.461   2.611   6.923 -0.1349  0.1803 -0.2946
 1067YOPC   GL215154   7.669   2.285   6.941  0.2017  0.3349  0.2868
 1067YOPC   C1A15155   7.557   2.534   7.406  0.0760 -0.0818 -0.1964
 1067YOPC   D2A15156   7.781   2.304   7.682 -0.0101  0.1067 -0.0396
 1067YOPC   C3A15157   7.771   1.885   7.661 -0.0346 -0.0268  0.3670
 1067YOPC   C4A15158   7.744   1.665   7.298  0.0732  0.2337  0.2684
 1067YOPC   C1B15159   7.831   2.134   7.249  0.0965 -0.2303  0.0679
 1067YOPC   C2B15160   8.246   2.135   7.511 -0.0192 -0.1915  0.0556
 1067YOPC   D3B15161   8.338   2.087   7.990 -0.0479  0.0596  0.1057
 1067YOPC   C4B15162   8.529   2.107   8.342  0.2446 -0.1488 -0.2862
 1068YOPC   NC315163   5.783   3.380   6.107 -0.1307 -0.1906  0.1252
 1068YOPC   PO415164   5.993   3.015   6.119  0.3302 -0.0214  0.0074
 1068YOPC   GL115165   6.072   3.200   6.487 -0.1463  0.1796  0.1519
 1068YOPC   GL215166   6.032   2.931   6.702 -0.3983  0.0961 -0.1042
 1068YOPC   C1A15167   6.245   3.292   6.928 -0.0776 -0.0271  0.2395
 1068YOPC   D2A15168   6.384   3.254   7.324 -0.0502 -0.0857 -0.2253
 1068YOPC   C3A15169   6.219   3.009   7.682 -0.5139  0.1252  0.0473
 1068YOPC   C4A15170   6.269   2.860   8.121 -0.1426  0.1663 -0.3388
 1068YOPC   C1B15171   6.120   2.782   7.175  0.0909 -0.0413  0.0587
 1068YOPC   C2B15172   6.234   2.398   7.200  0.2096  0.1218  0.1975
 1068YOPC   D3B15173   6.358   2.244   7.559 -0.2551  0.0774 -0.2864
 1068YOPC   C4B15174   6.630   2.192   7.895 -0.1766  0.0368 -0.0954
 1069YOPC   NC315175   9.349  15.072   6.187  0.0744  0.0607 -0.0709
 1069YOPC   PO415176   9.607  14.786   6.375 -0.1901  0.0162  0.3109
 1069YOPC   GL115177   9.774  14.819   6.788  0.1039  0.0158 -0.0787
 1069YOPC   GL215178  10.128  14.888   6.729 -0.1625  0.1781 -0.2557
 1069YOPC   C1A15179   9.980  14.701   7.194  0.1694 -0.0963  0.1436
 1069YOPC   D2A15180  10.278  14.391   7.405 -0.3600 -0.0498 -0.2518
 1069YOPC   C3A15181  10.413  14.494   7.739  0.1683  0.0463  0.1138
 1069YOPC   C4A15182  10.483  14.645   8.244  0.1493  0.1624  0.0400
 1069YOPC   C1B15183  10.217  14.423   6.859  0.2932  0.0293  0.0434
 1069YOPC   C2B15184  10.707  14.345   6.882  0.1005 -0.2786  0.0693
 1069YOPC   D3B15185  11.067  14.318   7.056 -0.1470  0.2472  0.0137
 1069YOPC   C4B15186  11.242  14.334   7.381 -0.1231  0.0768  0.1248
 1070YOPC   NC315187   2.124  10.424   6.277 -0.2512  0.1674  0.1358
 1070YOPC   PO415188   2.517  10.574   6.483  0.0895  0.0655  0.0271
 1070YOPC   GL115189   2.130  10.543   6.806  0.2150  0.3026 -0.1877
 1070YOPC   GL215190   2.162  10.230   7.089  0.0528 -0.0198  0.1440
 1070YOPC   C1A15191   1.995  10.723   7.205  0.0477 -0.0966  0.0623
 1070YOPC   D2A15192   1.691  10.764   7.591 -0.2453 -0.2122  0.2095
 1070YOPC   C3A15193   1.291  10.694   7.848 -0.0726  0.2495 -0.1967
 1070YOPC   C4A15194   1.159  10.959   8.181  0.1071  0.0268 -0.0759
 1070YOPC   C1B15195   2.146  10.346   7.527  0.0916  0.0757  0.1303
 1070YOPC   C2B15196   2.009  10.544   7.948 -0.0592  0.1574 -0.0811
 1070YOPC   D3B15197   2.207  10.964   8.047 -0.1450  0.0352 -0.3175
 1070YOPC   C4B15198   2.386  11.359   7.829 -0.0952  0.0458 -0.0401
 1071YOPC   NC315199  12.842   5.843   5.772  0.2147 -0.3241 -0.1049
 1071YOPC   PO415200  13.275   5.728   6.058 -0.1232  0.2410  0.6080
 1071YOPC   GL115201  13.368   5.814   6.394 -0.0237  0.4409  0.0515
 1071YOPC   GL215202  13.697   5.827   6.410 -0.0266 -0.1528 -0.4177
 1071YOPC   C1A15203  13.319   5.773   6.874  0.0529 -0.4071 -0.1517
 1071YOPC   D2A15204  13.442   6.177   7.179  0.0776  0.4942  0.1103
 1071YOPC   C3A15205  13.150   6.140   7.516 -0.0883  0.1735  0.2081
 1071YOPC   C4A15206  12.768   5.902   7.630  0.1232  0.0760 -0.0109
 1071YOPC   C1B15207  13.789   5.929   6.846  0.1370 -0.0990 -0.0630
 1071YOPC   C2B15208  13.924   5.979   7.217  0.0482  0.3019 -0.0062
 1071YOPC   D3B15209  13.603   5.970   7.565 -0.2128 -0.2136 -0.1930
 1071YOPC   C4B15210  13.566   6.269   7.938  0.1341  0.1519 -0.1536
 1072YOPC   NC315211  11.972  12.722   5.834  0.1348  0.0274 -0.2369
 1072YOPC   PO415212  12.191  12.372   5.715 -0.0843  0.0374 -0.0640
 1072YOPC   GL115213  12.170  12.356   6.172  0.2032  0.2366 -0.0416
 1072YOPC   GL215214  12.215  12.624   6.422  0.1268  0.0860 -0.1023
 1072YOPC   C1A15215  11.793  12.359   6.497  0.1587  0.2876 -0.0609
 1072YOPC   D2A15216  11.611  12.654   6.756 -0.1930 -0.1413  0.1014
 1072YOPC   C3A15217  11.417  12.649   7.096 -0.1599  0.1978 -0.1260
 1072YOPC   C4A15218  11.426  12.874   7.440  0.1674 -0.0038 -0.3050
 1072YOPC   C1B15219  12.560  12.814   6.566  0.1931  0.3947  0.2336
 1072YOPC   C2B15220  12.974  12.735   6.850 -0.0130 -0.0918  0.0544
 1072YOPC   D3B15221  12.877  12.766   7.202 -0.0182 -0.0875  0.1561
 1072YOPC   C4B15222  12.818  12.720   7.692  0.1306  0.1420  0.0792
 1073YOPC   NC315223   2.325  15.545   6.019  0.3241  0.0576 -0.2446
 1073YOPC   PO415224   2.742  15.605   6.282  0.2825 -0.5463 -0.0030
 1073YOPC   GL115225   2.807  15.914   6.602 -0.2930 -0.0355  0.1517
 1073YOPC   GL215226   2.532  16.034   6.598 -0.0453  0.0004 -0.0012
 1073YOPC   C1A15227   2.909  15.848   7.076 -0.0102 -0.3078 -0.0740
 1073YOPC   D2A15228   2.941  15.686   7.485  0.1184  0.0615  0.0740
 1073YOPC   C3A15229   3.160  15.821   7.815  0.1317 -0.0930  0.0250
 1073YOPC   C4A15230   3.372  15.759   8.212  0.1811  0.0327  0.1654
 1073YOPC   C1B15231   2.457  16.106   7.031 -0.1495  0.0048  0.1265
 1073YOPC   C2B15232   2.606  16.167   7.405  0.0474 -0.0439 -0.0606
 1073YOPC   D3B15233   2.999  16.157   7.511 -0.3638 -0.1116  0.1333
 1073YOPC   C4B15234   3.370  15.984   7.212  0.0264  0.1756 -0.0177
 1074YOPC   NC315235   4.490  14.245   6.478 -0.1051 -0.1615 -0.0869
 1074YOPC   PO415236   4.034  14.360   6.667  0.0658 -0.0070  0.3254
 1074YOPC   GL115237   4.069  14.176   6.974  0.0832 -0.0426  0.2095
 1074YOPC   GL215238   3.942  14.229   7.393 -0.2426 -0.1960  0.1434
 1074YOPC   C1A15239   3.903  13.810   7.154  0.1869  0.0387  0.2577
 1074YOPC   D2A15240   3.664  13.577   7.219 -0.1619  0.0103 -0.1051
 1074YOPC   C3A15241   3.496  13.294   7.607 -0.0776 -0.4338  0.0277
 1074YOPC   C4A15242   3.307  13.031   7.938  0.1598  0.3185  0.2768
 1074YOPC   C1B15243   3.856  14.310   7.776  0.0898 -0.1632  0.1085
 1074YOPC   C2B15244   4.051  14.587   8.062  0.1403 -0.2172 -0.2250
 1074YOPC   D3B15245   3.841  14.846   8.429 -0.2370  0.1756 -0.0241
 1074YOPC   C4B15246   3.504  15.231   8.557 -0.0971 -0.0866  0.2271
 1075YOPC   NC315247  14.359  16.245   5.724 -0.0783  0.1779 -0.1647
 1075YOPC   PO415248  14.299  15.916   6.063 -0.1530  0.2839  0.1125
 1075YOPC   GL115249  14.155  16.022   6.453 -0.0945  0.0429  0.0816
 1075YOPC   GL215250  14.014  15.807   6.513 -0.2120  0.1770  0.1347
 1075YOPC   C1A15251  14.175  16.190   6.767 -0.0542  0.0762  0.0554
 1075YOPC   D2A15252  14.028  16.121   7.223  0.0868  0.1687 -0.2609
 1075YOPC   C3A15253  14.199  15.842   7.408 -0.0059 -0.0823  0.2565
 1075YOPC   C4A15254  14.488  15.818   7.699  0.0169 -0.2607  0.1335
 1075YOPC   C1B15255  14.147  15.694   6.938  0.0470  0.1884  0.4508
 1075YOPC   C2B15256  14.368  15.465   7.066 -0.0882  0.0846 -0.1127
 1075YOPC   D3B15257  14.661  15.566   7.291 -0.0631 -0.0937  0.2052
 1075YOPC   C4B15258  15.030  15.500   7.361  0.1487 -0.2123  0.4074
 1076YOPC   NC315259  12.534  12.065   5.941  0.2172  0.1959  0.0894
 1076YOPC   PO415260  12.614  12.163   6.273 -0.2857 -0.2090  0.1343
 1076YOPC   GL115261  12.294  12.147   6.625 -0.1182  0.0458  0.0713
 1076YOPC   GL215262  12.002  11.868   6.533  0.1847 -0.0767 -0.0766
 1076YOPC   C1A15263  12.066  12.421   6.963 -0.0906  0.1447  0.1270
 1076YOPC   D2A15264  11.837  12.526   7.325  0.2203 -0.2878 -0.2389
 1076YOPC   C3A15265  11.948  12.294   7.727  0.4174  0.2017  0.0794
 1076YOPC   C4A15266  11.879  11.864   7.776  0.1908  0.1346 -0.0071
 1076YOPC   C1B15267  11.870  11.960   6.960  0.2364  0.1255  0.0672
 1076YOPC   C2B15268  12.097  11.982   7.309 -0.3695  0.0907  0.0631
 1076YOPC   D3B15269  12.418  11.733   7.401  0.0759 -0.0529  0.0236
 1076YOPC   C4B15270  12.761  11.510   7.414 -0.0132  0.0420 -0.0195
 1077YOPC   NC315271   9.938   2.279   5.619  0.2181 -0.2000 -0.0078
 1077YOPC   PO415272  10.086   2.293   6.051 -0.1876  0.0484 -0.0833
 1077YOPC   GL115273  10.259   2.573   6.421 -0.1121  0.1656 -0.1769
 1077YOPC   GL215274  10.050   2.792   6.639  0.0591 -0.0563  0.1710
 1077YOPC   C1A15275  10.463   2.534   6.874 -0.2938  0.1945  0.1145
 1077YOPC   D2A15276  10.854   2.705   6.954 -0.2314  0.4240  0.3231
 1077YOPC   C3A15277  11.032   2.827   7.321 -0.1626 -0.1268 -0.4496
 1077YOPC   C4A15278  11.239   2.776   7.710 -0.3700  0.0456 -0.0910
 1077YOPC   C1B15279  10.089   3.060   7.111 -0.0657  0.3774 -0.1920
 1077YOPC   C2B15280  10.024   2.925   7.459 -0.1986  0.1475 -0.0495
 1077YOPC   D3B15281  10.305   3.200   7.770  0.2160  0.0465  0.0679
 1077YOPC   C4B15282  10.497   3.444   8.073 -0.1199  0.0716 -0.2751
 1078YOPC   NC315283   4.113  16.202   5.905 -0.0308  0.1091  0.2035
 1078YOPC   PO415284   4.557  15.990   5.978 -0.1195 -0.1669  0.1274
 1078YOPC   GL115285   4.476  15.956   6.453  0.1309 -0.0352  0.2561
 1078YOPC   GL215286   4.242  16.032   6.724  0.0478 -0.0117  0.0313
 1078YOPC   C1A15287   4.690  15.788   6.797  0.1479 -0.0446 -0.2468
 1078YOPC   D2A15288   4.727  15.425   7.081 -0.1555  0.2016  0.2694
 1078YOPC   C3A15289   4.998  15.398   7.441 -0.0697  0.0351  0.0505
 1078YOPC   C4A15290   5.208  14.992   7.729 -0.1977 -0.0347 -0.0996
 1078YOPC   C1B15291   4.387  16.116   7.151  0.2673 -0.0191 -0.3279
 1078YOPC   C2B15292   4.388  16.090   7.641  0.2839  0.1398  0.1332
 1078YOPC   D3B15293   4.241  16.232   8.021  0.0457  0.1342 -0.1079
 1078YOPC   C4B15294   4.083  16.417   8.277 -0.1263 -0.0075  0.1190
 1079YOPC   NC315295   0.628   1.255   6.126 -0.0055  0.2932 -0.3284
 1079YOPC   PO415296   1.063   1.389   6.174  0.0263 -0.0422 -0.2575
 1079YOPC   GL115297   0.922   1.280   6.598 -0.1153  0.1125  0.0142
 1079YOPC   GL215298   0.553   1.328   6.596  0.0250  0.1427 -0.2325
 1079YOPC   C1A15299   1.012   1.451   7.024 -0.3532 -0.1662  0.0439
 1079YOPC   D2A15300   1.408   1.737   7.151  0.0664 -0.1497  0.0422
 1079YOPC   C3A15301   1.864   1.755   7.308  0.2598  0.0889 -0.0883
 1079YOPC   C4A15302   1.914   2.027   7.607  0.0134  0.1172  0.1486
 1079YOPC   C1B15303   0.450   1.220   7.044  0.0251 -0.1409  0.0399
 1079YOPC   C2B15304   0.216   1.092   7.412  0.0380 -0.1366  0.0245
 1079YOPC   D3B15305   0.315   0.763   7.642 -0.1603 -0.2493 -0.0165
 1079YOPC   C4B15306   0.222   0.630   8.030  0.0689 -0.1660 -0.1154
 1080YOPC   NC315307  12.490   1.831   5.822  0.2964  0.2088 -0.1463
 1080YOPC   PO415308  12.764   2.098   6.079  0.2177  0.1012 -0.0879
 1080YOPC   GL115309  12.821   2.184   6.512 -0.5244 -0.0775  0.0733
 1080YOPC   GL215310  13.058   2.496   6.543 -0.1801 -0.0241 -0.0995
 1080YOPC   C1A15311  12.957   2.252   7.040 -0.0282  0.1632  0.0379
 1080YOPC   D2A15312  12.927   2.212   7.482 -0.1035  0.1580  0.0074
 1080YOPC   C3A15313  13.195   2.271   7.743 -0.1429 -0.1272 -0.0811
 1080YOPC   C4A15314  13.274   2.486   8.184 -0.0101 -0.1366  0.1153
 1080YOPC   C1B15315  13.258   2.713   6.889 -0.1047  0.0583  0.1326
 1080YOPC   C2B15316  13.261   2.637   7.286  0.3332  0.1348 -0.0705
 1080YOPC   D3B15317  13.256   2.771   7.647  0.1890  0.0780 -0.0859
 1080YOPC   C4B15318  13.374   2.944   8.044 -0.1651  0.0300  0.1759
 1081YOPC   NC315319   8.778  10.922   5.893  0.2457  0.0452 -0.0211
 1081YOPC   PO415320   8.478  10.792   6.098  0.0537 -0.0326  0.0972
 1081YOPC   GL115321   8.428  10.823   6.481 -0.0554  0.0480  0.0134
 1081YOPC   GL215322   8.390  11.046   6.704  0.4553  0.4560  0.0124
 1081YOPC   C1A15323   8.702  10.509   6.740 -0.2893  0.1751 -0.1528
 1081YOPC   D2A15324   8.645  10.280   7.092  0.0524  0.2483  0.0032
 1081YOPC   C3A15325   8.851  10.352   7.499 -0.0926 -0.3101  0.0938
 1081YOPC   C4A15326   8.869  10.670   7.764  0.1402 -0.0381 -0.3487
 1081YOPC   C1B15327   8.386  10.814   7.100  0.2452 -0.0268 -0.0236
 1081YOPC   C2B15328   8.470  10.674   7.526  0.0902 -0.0496  0.0907
 1081YOPC   D3B15329   8.102  10.527   7.702  0.1480 -0.3810  0.1596
 1081YOPC   C4B15330   7.889  10.133   7.681  0.1739  0.0847 -0.0582
 1082YOPC   NC315331  12.345   2.234   6.295  0.1421 -0.0523 -0.3246
 1082YOPC   PO415332  12.084   1.911   6.343 -0.1172  0.1485 -0.0156
 1082YOPC   GL115333  12.165   1.928   6.778  0.1678 -0.0240 -0.0182
 1082YOPC   GL215334  12.444   2.170   6.834  0.1931  0.0056  0.2027
 1082YOPC   C1A15335  12.207   1.914   7.366  0.2965  0.0823 -0.1950
 1082YOPC   D2A15336  12.061   1.643   7.702 -0.0778  0.1672 -0.2359
 1082YOPC   C3A15337  12.146   1.938   8.103  0.2157 -0.0486  0.2356
 1082YOPC   C4A15338  12.297   2.271   8.346 -0.0729  0.1908  0.0374
 1082YOPC   C1B15339  12.524   2.241   7.253  0.2103 -0.1888  0.1908
 1082YOPC   C2B15340  12.410   2.220   7.759  0.1809 -0.1366  0.0600
 1082YOPC   D3B15341  12.224   2.547   7.848  0.1290 -0.0660  0.1614
 1082YOPC   C4B15342  12.053   2.848   8.025  0.1350  0.1267 -0.0176
 1083YOPC   NC315343   5.644   7.421   6.148  0.1222  0.1418 -0.3231
 1083YOPC   PO415344   5.298   7.757   6.246 -0.0244  0.0014  0.1866
 1083YOPC   GL115345   5.287   7.916   6.651 -0.0789 -0.2698  0.1808
 1083YOPC   GL215346   5.095   8.172   6.824 -0.1366  0.0984  0.3260
 1083YOPC   C1A15347   5.322   7.788   7.029 -0.0470  0.1172  0.1796
 1083YOPC   D2A15348   5.513   7.757   7.347 -0.1870 -0.0544  0.4114
 1083YOPC   C3A15349   5.273   7.830   7.656  0.3111  0.1703  0.4183
 1083YOPC   C4A15350   5.264   7.693   8.012  0.0299  0.3934 -0.1596
 1083YOPC   C1B15351   5.196   8.156   7.289 -0.0683 -0.1221 -0.1392
 1083YOPC   C2B15352   5.525   8.294   7.499 -0.1126 -0.1541 -0.0356
 1083YOPC   D3B15353   5.691   7.940   7.811  0.1392  0.0127  0.0359
 1083YOPC   C4B15354   5.817   7.726   8.112 -0.2116  0.1806  0.0992
 1084YOPC   NC315355  14.225  13.225   6.412 -0.0573  0.1543 -0.0567
 1084YOPC   PO415356  13.825  13.236   6.262  0.2374 -0.2562  0.0425
 1084YOPC   GL115357  13.723  13.160   6.654  0.1192 -0.2552  0.1935
 1084YOPC   GL215358  13.967  12.920   6.732  0.0061  0.0728 -0.1188
 1084YOPC   C1A15359  13.502  12.907   7.003  0.2172  0.1826 -0.0694
 1084YOPC   D2A15360  13.303  12.863   7.389 -0.2217 -0.0641  0.0476
 1084YOPC   C3A15361  13.212  13.077   7.639 -0.1579  0.2104  0.0528
 1084YOPC   C4A15362  13.023  13.557   7.584  0.2013  0.1398 -0.1516
 1084YOPC   C1B15363  13.940  12.860   7.220 -0.2574 -0.2606 -0.3114
 1084YOPC   C2B15364  14.064  12.702   7.600  0.1801 -0.2097  0.0255
 1084YOPC   D3B15365  14.200  12.785   8.061  0.0227  0.0826 -0.1658
 1084YOPC   C4B15366  14.304  12.588   8.514  0.0174 -0.1103  0.3004
 1085YOPC   NC315367   4.239  17.446   5.919 -0.1201 -0.3948  0.0461
 1085YOPC   PO415368   4.254  16.902   6.108  0.1266  0.2020 -0.5869
 1085YOPC   GL115369   4.341  16.838   6.461  0.0262  0.0983  0.3217
 1085YOPC   GL215370   4.115  17.004   6.692 -0.1548 -0.0587 -0.1482
 1085YOPC   C1A15371   4.405  16.622   6.922  0.1574  0.1044  0.0372
 1085YOPC   D2A15372   4.794  16.384   7.011 -0.2230 -0.2148  0.0487
 1085YOPC   C3A15373   4.783  16.361   7.385  0.0076 -0.0305  0.0621
 1085YOPC   C4A15374   4.959  16.242   7.854 -0.2123 -0.0471  0.1814
 1085YOPC   C1B15375   4.175  17.068   7.185 -0.1828  0.1572  0.0383
 1085YOPC   C2B15376   4.211  17.040   7.590 -0.3772  0.0251  0.1831
 1085YOPC   D3B15377   4.053  16.873   7.800 -0.1204 -0.2522 -0.2797
 1085YOPC   C4B15378   3.875  16.491   7.783  0.0067  0.2179  0.0539
 1086YOPC   NC315379  16.196   4.328   5.664 -0.1330 -0.3523  0.5691
 1086YOPC   PO415380  15.897   4.340   5.859 -0.2716  0.1137  0.2148
 1086YOPC   GL115381  15.755   4.152   6.334 -0.1702  0.2793 -0.1693
 1086YOPC   GL215382  15.856   3.900   6.509 -0.0915  0.0805  0.0029
 1086YOPC   C1A15383  15.530   4.133   6.792  0.0729  0.2800  0.0895
 1086YOPC   D2A15384  15.478   4.439   7.094 -0.0207  0.0143 -0.1299
 1086YOPC   C3A15385  15.616   4.794   7.180 -0.1702  0.2191 -0.2311
 1086YOPC   C4A15386  15.501   5.027   7.573  0.0297 -0.2457  0.1159
 1086YOPC   C1B15387  16.000   3.897   6.957  0.0940  0.2583 -0.2460
 1086YOPC   C2B15388  16.134   3.570   7.331  0.2747  0.1271 -0.2895
 1086YOPC   D3B15389  16.326   3.238   7.458 -0.2166 -0.1829 -0.0624
 1086YOPC   C4B15390  16.377   2.802   7.743 -0.2098 -0.3322 -0.2504
 1087YOPC   NC315391   2.929   4.533   6.667  0.2584  0.1266 -0.0868
 1087YOPC   PO415392   3.130   4.150   6.602 -0.1218 -0.0008  0.1961
 1087YOPC   GL115393   2.963   4.213   7.084  0.0629 -0.1665 -0.1056
 1087YOPC   GL215394   2.713   4.195   7.211  0.0658  0.1320  0.0213
 1087YOPC   C1A15395   3.229   4.303   7.437  0.0645 -0.3573 -0.0421
 1087YOPC   D2A15396   3.366   4.166   7.861 -0.1108  0.1011  0.5047
 1087YOPC   C3A15397   3.325   3.817   8.125  0.0049 -0.1929  0.0848
 1087YOPC   C4A15398   3.682   3.655   8.387  0.0848  0.1335 -0.1895
 1087YOPC   C1B15399   2.827   4.073   7.588 -0.1617 -0.1364  0.2904
 1087YOPC   C2B15400   2.868   4.080   7.969 -0.1944 -0.3564 -0.1470
 1087YOPC   D3B15401   2.502   3.989   8.200  0.2257 -0.1108 -0.3687
 1087YOPC   C4B15402   2.348   3.779   8.646 -0.5085  0.0169 -0.2081
 1088YOPC   NC315403  13.962   6.739   6.125  0.1034  0.1724  0.0236
 1088YOPC   PO415404  13.847   7.085   5.921 -0.2903  0.0823  0.0047
 1088YOPC   GL115405  13.918   7.331   6.340  0.0350  0.1847 -0.0941
 1088YOPC   GL215406  14.264   7.306   6.413 -0.0310 -0.0969  0.4161
 1088YOPC   C1A15407  13.755   7.429   6.728 -0.0077  0.0604  0.3607
 1088YOPC   D2A15408  13.511   7.652   7.029  0.4414 -0.2497  0.0935
 1088YOPC   C3A15409  13.653   7.681   7.371  0.0214  0.0107 -0.1659
 1088YOPC   C4A15410  13.808   7.429   7.718  0.0859 -0.2190 -0.1686
 1088YOPC   C1B15411  14.291   7.199   6.854  0.1093  0.1553 -0.1295
 1088YOPC   C2B15412  14.374   7.039   7.185  0.1529  0.0994 -0.4122
 1088YOPC   D3B15413  14.260   7.093   7.638  0.0913  0.0942  0.2235
 1088YOPC   C4B15414  14.321   7.242   8.010 -0.0782  0.2377 -0.0372
 1089YOPC   NC315415   5.499  15.832   6.523 -0.0771 -0.0025 -0.1334
 1089YOPC   PO415416   5.725  16.240   6.668  0.2420 -0.0656  0.2794
 1089YOPC   GL115417   5.613  16.078   7.104 -0.0577  0.0900 -0.0449
 1089YOPC   GL215418   5.435  15.881   7.010  0.0924 -0.2548 -0.0680
 1089YOPC   C1A15419   5.741  16.112   7.508 -0.0503 -0.0160  0.1363
 1089YOPC   D2A15420   6.038  16.337   7.870  0.2206 -0.0052 -0.0956
 1089YOPC   C3A15421   6.187  16.073   8.321  0.4062  0.2123 -0.0139
 1089YOPC   C4A15422   6.331  15.706   8.481 -0.0664  0.1063  0.1816
 1089YOPC   C1B15423   4.976  15.873   7.171 -0.0891  0.1049 -0.0364
 1089YOPC   C2B15424   4.715  15.797   7.447  0.0788 -0.1432 -0.4078
 1089YOPC   D3B15425   4.731  15.795   7.816 -0.2987 -0.1850 -0.1846
 1089YOPC   C4B15426   4.838  15.631   8.157 -0.0465 -0.0160  0.2078
 1090YOPC   NC315427  11.739   6.716   5.191 -0.0167  0.0952  0.1988
 1090YOPC   PO415428  11.701   6.506   5.625 -0.1296 -0.0263 -0.0861
 1090YOPC   GL115429  11.526   6.672   6.033 -0.1089  0.0819  0.1506
 1090YOPC   GL215430  11.575   6.942   6.188 -0.2268 -0.3693  0.1150
 1090YOPC   C1A15431  11.158   6.591   6.201 -0.1335 -0.1898 -0.0894
 1090YOPC   D2A15432  10.861   6.697   6.503 -0.0857 -0.0276 -0.3105
 1090YOPC   C3A15433  10.772   7.033   6.480 -0.3144  0.0189 -0.3593
 1090YOPC   C4A15434  10.722   7.380   6.752  0.0940  0.0528  0.1998
 1090YOPC   C1B15435  11.413   6.783   6.632 -0.0702 -0.0611  0.0135
 1090YOPC   C2B15436  11.127   6.780   6.921  0.1787  0.2649  0.0556
 1090YOPC   D3B15437  10.931   7.120   7.118 -0.2556 -0.0244 -0.1448
 1090YOPC   C4B15438  10.931   7.278   7.589 -0.2410  0.0803  0.1605
 1091YOPC   NC315439  13.828   1.383   6.072  0.1659  0.0791  0.0355
 1091YOPC   PO415440  13.743   1.853   6.068 -0.0741 -0.0121  0.0519
 1091YOPC   GL115441  14.061   1.825   6.359  0.3181 -0.1656  0.4742
 1091YOPC   GL215442  13.847   1.995   6.574 -0.2461  0.3170 -0.2836
 1091YOPC   C1A15443  14.080   1.589   6.717 -0.4402 -0.2196  0.1505
 1091YOPC   D2A15444  13.830   1.404   7.034  0.0559  0.0761 -0.2932
 1091YOPC   C3A15445  13.946   1.017   7.238 -0.0997  0.1484  0.2880
 1091YOPC   C4A15446  13.941   0.556   7.407  0.1107  0.1152 -0.0651
 1091YOPC   C1B15447  13.925   2.000   7.081  0.2548  0.1299  0.0551
 1091YOPC   C2B15448  14.063   1.975   7.477 -0.2315  0.0124  0.3328
 1091YOPC   D3B15449  13.958   1.976   7.907  0.3245  0.1108 -0.0786
 1091YOPC   C4B15450  13.884   1.923   8.311 -0.0166 -0.0341 -0.0161
 1092YOPC   NC315451   8.006  10.080   6.118  0.1545  0.2359  0.4090
 1092YOPC   PO415452   8.062  10.514   6.117 -0.2802 -0.2815 -0.1252
 1092YOPC   GL115453   8.032  10.434   6.509  0.1975 -0.0992  0.1469
 1092YOPC   GL215454   7.917  10.759   6.603 -0.1520 -0.0356  0.1559
 1092YOPC   C1A15455   8.255  10.298   6.753 -0.1762 -0.1683  0.0819
 1092YOPC   D2A15456   8.169  10.351   7.239 -0.0902  0.3602  0.2745
 1092YOPC   C3A15457   8.429  10.147   7.537  0.1171  0.0031  0.2185
 1092YOPC   C4A15458   8.551  10.288   7.938 -0.2271 -0.1225  0.1227
 1092YOPC   C1B15459   7.878  10.672   7.056  0.0944  0.0184 -0.1942
 1092YOPC   C2B15460   7.821  10.876   7.407  0.1558  0.0818  0.0493
 1092YOPC   D3B15461   7.302  10.952   7.661  0.1797 -0.1403 -0.1123
 1092YOPC   C4B15462   6.994  10.762   7.358 -0.1603  0.3505 -0.0574
 1093YOPC   NC315463   4.959  15.687   5.874  0.1422 -0.0668 -0.1157
 1093YOPC   PO415464   5.158  15.564   6.169 -0.0188  0.1053 -0.0518
 1093YOPC   GL115465   5.103  15.357   6.596  0.1862  0.0385  0.2274
 1093YOPC   GL215466   5.304  15.398   6.788  0.1198  0.5994  0.1311
 1093YOPC   C1A15467   4.968  15.010   6.941  0.2109 -0.1775 -0.1530
 1093YOPC   D2A15468   4.803  14.937   7.347  0.0588  0.0489  0.0895
 1093YOPC   C3A15469   4.934  14.578   7.639 -0.1285 -0.0664 -0.3897
 1093YOPC   C4A15470   4.862  14.210   7.785  0.1944  0.2477 -0.2745
 1093YOPC   C1B15471   5.448  15.351   7.149 -0.2120  0.0217  0.1649
 1093YOPC   C2B15472   5.511  15.328   7.477 -0.0041  0.1987 -0.3241
 1093YOPC   D3B15473   5.684  15.218   7.850  0.2277 -0.1712  0.0225
 1093YOPC   C4B15474   5.888  15.176   8.302  0.0568  0.0217  0.1350
 1094YOPC   NC315475  13.963   4.941   5.874  0.1820  0.1599  0.2746
 1094YOPC   PO415476  13.610   4.648   5.948  0.1205  0.0109 -0.1730
 1094YOPC   GL115477  13.733   4.759   6.350  0.0104  0.1711  0.1086
 1094YOPC   GL215478  13.803   4.489   6.503 -0.0664 -0.0279 -0.0441
 1094YOPC   C1A15479  13.582   5.015   6.604  0.3097 -0.0182  0.2586
 1094YOPC   D2A15480  13.476   5.266   6.930  0.2342  0.1064 -0.0537
 1094YOPC   C3A15481  13.601   5.171   7.356  0.4150  0.1793  0.3233
 1094YOPC   C4A15482  13.533   5.000   7.781  0.0554 -0.0333 -0.1532
 1094YOPC   C1B15483  13.935   4.377   6.906  0.2048  0.2684  0.0579
 1094YOPC   C2B15484  13.953   4.210   7.321 -0.0291 -0.1509  0.1043
 1094YOPC   D3B15485  13.828   4.077   7.816  0.5119 -0.0585 -0.2048
 1094YOPC   C4B15486  13.880   4.275   8.178 -0.1412  0.1482 -0.1454
 1095YOPC   NC315487   8.393   8.265   5.949 -0.3597 -0.2632  0.0175
 1095YOPC   PO415488   8.830   8.065   6.000 -0.0500  0.1452 -0.0824
 1095YOPC   GL115489   8.976   8.123   6.382 -0.2670  0.0582  0.2197
 1095YOPC   GL215490   9.239   8.289   6.432 -0.0709  0.4000 -0.0244
 1095YOPC   C1A15491   9.217   7.921   6.804  0.0558 -0.0176  0.1811
 1095YOPC   D2A15492   9.299   7.793   7.229  0.0215 -0.0225  0.1482
 1095YOPC   C3A15493   9.533   7.898   7.525 -0.1718  0.1698 -0.1764
 1095YOPC   C4A15494   9.873   7.639   7.718  0.0548  0.0861 -0.0371
 1095YOPC   C1B15495   9.121   8.430   6.842 -0.1122  0.1287 -0.1368
 1095YOPC   C2B15496   9.174   8.311   7.180  0.0041  0.2616  0.1250
 1095YOPC   D3B15497   9.025   8.584   7.410 -0.1526 -0.1341  0.1075
 1095YOPC   C4B15498   8.858   8.974   7.422 -0.1812  0.1564 -0.2455
 1096YOPC   NC315499  10.532   1.900   6.135  0.3104  0.0574  0.0067
 1096YOPC   PO415500  10.726   2.264   6.215  0.0940 -0.0324 -0.0586
 1096YOPC   GL115501  10.774   2.186   6.694 -0.0217  0.0151  0.0118
 1096YOPC   GL215502  10.646   1.901   6.813  0.3106  0.1133 -0.0870
 1096YOPC   C1A15503  10.938   2.273   7.025  0.0081 -0.0380 -0.3191
 1096YOPC   D2A15504  10.904   2.314   7.601  0.3226 -0.3596  0.0425
 1096YOPC   C3A15505  10.651   2.578   7.794  0.0575  0.1139 -0.1647
 1096YOPC   C4A15506  10.274   2.698   7.864  0.0335 -0.2493  0.0061
 1096YOPC   C1B15507  10.636   1.871   7.317 -0.0325 -0.1877  0.2201
 1096YOPC   C2B15508  10.656   1.816   7.746 -0.1477  0.1674  0.1596
 1096YOPC   D3B15509  10.430   1.700   8.123  0.4025 -0.0069  0.2803
 1096YOPC   C4B15510  10.222   1.926   8.331 -0.0641  0.0151 -0.3399
 1097YOPC   NC315511  11.440  15.792   5.900 -0.0574 -0.1251  0.0263
 1097YOPC   PO415512  11.602  15.691   6.273  0.0227 -0.0504 -0.1651
 1097YOPC   GL115513  11.759  15.306   6.503 -0.2073 -0.1897  0.0393
 1097YOPC   GL215514  11.620  15.054   6.397 -0.0200  0.0953 -0.1430
 1097YOPC   C1A15515  11.890  15.024   6.907 -0.0162 -0.0906  0.1617
 1097YOPC   D2A15516  11.674  14.871   7.321  0.0018 -0.1995 -0.0698
 1097YOPC   C3A15517  11.917  14.866   7.760 -0.0978  0.2277 -0.0678
 1097YOPC   C4A15518  11.974  15.112   8.129 -0.0932 -0.2062  0.1180
 1097YOPC   C1B15519  11.370  15.045   6.706  0.0249 -0.0574  0.0551
 1097YOPC   C2B15520  11.158  14.818   7.094  0.0774 -0.2703  0.0129
 1097YOPC   D3B15521  11.212  14.878   7.609  0.0506  0.1430  0.0626
 1097YOPC   C4B15522  11.462  14.983   7.939 -0.0311 -0.2281 -0.0656
 1098YOPC   NC315523   0.889  17.023   6.270  0.1150 -0.0802  0.0045
 1098YOPC   PO415524   0.951  16.515   6.338  0.1671  0.0326 -0.5326
 1098YOPC   GL115525   0.917  16.384   6.805  0.0465  0.1432 -0.1848
 1098YOPC   GL215526   1.268  16.418   7.010 -0.1274  0.2036  0.1799
 1098YOPC   C1A15527   0.734  16.182   7.083  0.1549 -0.0759  0.3090
 1098YOPC   D2A15528   0.540  16.066   7.539 -0.1449  0.0465 -0.1698
 1098YOPC   C3A15529   0.513  16.002   8.001  0.0006 -0.1657  0.2585
 1098YOPC   C4A15530   0.484  15.943   8.488 -0.1315  0.1192 -0.1936
 1098YOPC   C1B15531   1.163  16.454   7.440  0.2520 -0.0488  0.1788
 1098YOPC   C2B15532   1.347  16.565   7.851  0.0029 -0.0355  0.2884
 1098YOPC   D3B15533   1.136  16.673   8.133 -0.2250 -0.0008 -0.2168
 1098YOPC   C4B15534   0.790  17.005   8.212 -0.0367 -0.1900 -0.0935
 1099YOPC   NC315535  15.923  16.673   5.763 -0.0809 -0.0805  0.1855
 1099YOPC   PO415536  15.772  16.353   6.095  0.1878  0.0567  0.2215
 1099YOPC   GL115537  15.785  16.486   6.533 -0.0480  0.1165 -0.0065
 1099YOPC   GL215538  16.043  16.773   6.666  0.0772  0.1162 -0.3109
 1099YOPC   C1A15539  15.790  16.347   6.950  0.0784  0.0856 -0.1169
 1099YOPC   D2A15540  15.809  16.234   7.399  0.4810 -0.4845 -0.1431
 1099YOPC   C3A15541  15.674  16.385   7.878  0.4062  0.0240 -0.0962
 1099YOPC   C4A15542  15.812  16.619   8.277  0.1536 -0.0651 -0.0787
 1099YOPC   C1B15543  16.123  17.118   7.016  0.0426  0.1368  0.1632
 1099YOPC   C2B15544  16.119  17.075   7.478 -0.0383 -0.0396 -0.1333
 1099YOPC   D3B15545  16.292  17.367   7.796  0.0180 -0.0182 -0.1808
 1099YOPC   C4B15546  16.264  17.482   8.190 -0.3370 -0.2681  0.1631
 1100YOPC   NC315547   6.548   0.152   6.167 -0.2223 -0.0178 -0.2644
 1100YOPC   PO415548   6.226   0.441   6.416  0.0101  0.0148  0.1320
 1100YOPC   GL115549   6.020   0.461   6.780 -0.0682  0.0952  0.1882
 1100YOPC   GL215550   6.164   0.207   6.925  0.2321 -0.1048  0.1381
 1100YOPC   C1A15551   6.025   0.755   7.125  0.3256  0.0815  0.0394
 1100YOPC   D2A15552   5.786   0.985   7.297 -0.0096 -0.0377 -0.1973
 1100YOPC   C3A15553   5.976   0.991   7.801 -0.0948  0.3523 -0.2377
 1100YOPC   C4A15554   6.070   1.096   8.122  0.1430  0.0838  0.0031
 1100YOPC   C1B15555   6.102   0.305   7.311 -0.1859 -0.1975  0.2025
 1100YOPC   C2B15556   6.244   0.559   7.651  0.1703 -0.1477 -0.0155
 1100YOPC   D3B15557   6.590   0.641   7.850  0.0247  0.1343 -0.1169
 1100YOPC   C4B15558   6.735   0.676   8.208 -0.1905  0.2248 -0.1077
 1101YOPC   NC315559  12.176   9.443   5.992  0.0639 -0.3183 -0.3505
 1101YOPC   PO415560  12.236   8.986   6.108 -0.0624  0.1354 -0.1719
 1101YOPC   GL115561  12.110   8.952   6.466 -0.2916  0.2802 -0.1394
 1101YOPC   GL215562  11.952   9.237   6.396  0.1568 -0.1416 -0.0283
 1101YOPC   C1A15563  12.206   8.899   6.958 -0.1870  0.1444  0.1492
 1101YOPC   D2A15564  12.237   8.952   7.475 -0.0288 -0.1963  0.1567
 1101YOPC   C3A15565  12.526   9.027   7.815  0.0580  0.0995 -0.1066
 1101YOPC   C4A15566  12.738   8.950   8.186  0.1242 -0.2775  0.0374
 1101YOPC   C1B15567  11.990   9.426   6.872  0.1873 -0.4644 -0.0720
 1101YOPC   C2B15568  11.862   9.281   7.202 -0.2723 -0.1398 -0.1677
 1101YOPC   D3B15569  11.729   9.056   7.472  0.0391 -0.0463  0.0116
 1101YOPC   C4B15570  11.561   9.045   7.930 -0.2769 -0.1396  0.0808
 1102YOPC   NC315571  16.871   2.576   6.579 -0.0915  0.1427 -0.1224
 1102YOPC   PO415572  16.603   2.212   6.514 -0.1033 -0.1942  0.0565
 1102YOPC   GL115573  16.493   2.416   6.892 -0.0864  0.2402  0.3019
 1102YOPC   GL215574  16.204   2.401   6.918 -0.0805 -0.1604 -0.3271
 1102YOPC   C1A15575  16.576   2.489   7.359  0.0066  0.0041 -0.1518
 1102YOPC   D2A15576  16.931   2.468   7.675  0.1809 -0.0658 -0.1287
 1102YOPC   C3A15577  16.919   2.679   8.159 -0.1594  0.0092 -0.0022
 1102YOPC   C4A15578  17.260   2.745   8.358 -0.0759  0.0855  0.0948
 1102YOPC   C1B15579  16.115   2.274   7.342  0.2446 -0.0525  0.0423
 1102YOPC   C2B15580  15.973   2.266   7.740  0.0463  0.2035  0.2137
 1102YOPC   D3B15581  16.010   2.592   7.959  0.2926 -0.3208  0.0655
 1102YOPC   C4B15582  16.063   3.025   8.088  0.1642 -0.3565  0.0028
 1103ERGO   ROH15583   5.597  11.137   6.676  0.2139 -0.2952  0.0112
 1103ERGO    R115584   5.513  11.261   6.917  0.1422 -0.1538 -0.0853
 1103ERGO    R215585   5.424  11.118   7.135  0.0653 -0.0257 -0.0309
 1103ERGO    R315586   5.617  11.258   7.266  0.0303  0.0396 -0.0491
 1103ERGO    R415587   5.482  11.105   7.476  0.0306  0.0812 -0.0206
 1103ERGO    R515588   5.515  11.320   7.473 -0.0006  0.0847 -0.0783
 1103ERGO    C115589   5.696  11.229   7.797 -0.0224  0.2047 -0.0317
 1103ERGO    C215590   5.866  11.096   8.109  0.1163 -0.0192  0.1694
 1104ERGO   ROH15591  15.497   8.666   6.558 -0.1764 -0.0373 -0.0138
 1104ERGO    R115592  15.448   8.637   6.835 -0.0777 -0.2689 -0.0189
 1104ERGO    R215593  15.573   8.444   6.989  0.4059 -0.0438 -0.1136
 1104ERGO    R315594  15.643   8.658   7.142 -0.0820  0.0719 -0.0343
 1104ERGO    R415595  15.605   8.439   7.333  0.4528 -0.1166 -0.1187
 1104ERGO    R515596  15.510   8.635   7.340 -0.0192 -0.3294 -0.0270
 1104ERGO    C115597  15.689   8.636   7.677  0.0219 -0.0503 -0.0471
 1104ERGO    C215598  15.687   8.665   8.061  0.0098  0.0362  0.1145
 1105ERGO   ROH15599   6.376   8.217   6.892  0.3550 -0.1475 -0.1458
 1105ERGO    R115600   6.375   8.188   7.174  0.1625 -0.2291 -0.1523
 1105ERGO    R215601   6.577   8.057   7.311  0.1307 -0.1694 -0.0418
 1105ERGO    R315602   6.590   8.290   7.450 -0.0877 -0.2009  0.0341
 1105ERGO    R415603   6.683   8.085   7.638  0.1780 -0.1612 -0.0580
 1105ERGO    R515604   6.524   8.230   7.672  0.0302 -0.3452  0.0294
 1105ERGO    C115605   6.757   8.321   7.960  0.0003 -0.1861  0.0038
 1105ERGO    C215606   6.641   8.407   8.292 -0.3575  0.1387 -0.2344
 1106ERGO   ROH15607  12.623   1.745   6.467 -0.0099  0.1901 -0.0586
 1106ERGO    R115608  12.674   1.648   6.728 -0.0539  0.0340 -0.1066
 1106ERGO    R215609  12.835   1.782   6.908  0.0319 -0.1438 -0.0454
 1106ERGO    R315610  12.616   1.763   7.068  0.0254 -0.0965 -0.0491
 1106ERGO    R415611  12.841   1.793   7.253  0.0073  0.0021 -0.0490
 1106ERGO    R515612  12.691   1.635   7.256  0.0237 -0.0090  0.0092
 1106ERGO    C115613  12.639   1.781   7.605 -0.0130  0.1314 -0.0546
 1106ERGO    C215614  12.526   1.752   7.884  0.0120  0.1036  0.1378
 1107ERGO   ROH15615   9.570  11.090  10.034  0.1131 -0.0376  0.0341
 1107ERGO    R115616   9.678  11.115   9.774  0.0224  0.0236  0.0012
 1107ERGO    R215617   9.616  10.940   9.570  0.1495 -0.0835  0.0504
 1107ERGO    R315618   9.549  11.168   9.438 -0.1210 -0.1749  0.0236
 1107ERGO    R415619   9.661  10.991   9.231  0.4085  0.0532  0.1034
 1107ERGO    R515620   9.724  11.195   9.276  0.0021  0.1632  0.2065
 1107ERGO    C115621   9.625  11.235   8.910  0.3054  0.0470  0.1089
 1107ERGO    C215622   9.600  11.169   8.571  0.2372 -0.2531 -0.2775
 1108ERGO   ROH15623  12.116   1.624   8.599  0.2570 -0.1781  0.0543
 1108ERGO    R115624  12.202   1.726   8.849  0.1542 -0.0777  0.0484
 1108ERGO    R215625  12.027   1.835   9.033  0.0590 -0.1595 -0.0028
 1108ERGO    R315626  12.139   1.651   9.199  0.1528 -0.0526  0.0556
 1108ERGO    R415627  12.031   1.857   9.378 -0.3076 -0.2274  0.0109
 1108ERGO    R515628  12.235   1.782   9.376 -0.1902  0.0479  0.1843
 1108ERGO    C115629  12.138   1.698   9.735 -0.4330 -0.1666  0.0735
 1108ERGO    C215630  12.151   1.729  10.148  0.0970 -0.2082 -0.0537
 1109ERGO   ROH15631  17.362   0.937  10.606  0.2099  0.1795 -0.0574
 1109ERGO    R115632  17.461   1.001  10.348  0.1971 -0.0104 -0.1103
 1109ERGO    R215633  17.571   0.812  10.179 -0.1182 -0.1958 -0.1072
 1109ERGO    R315634  17.385   0.907  10.005 -0.0595  0.0094 -0.0627
 1109ERGO    R415635  17.631   0.890   9.848 -0.1256 -0.3684 -0.1510
 1109ERGO    R515636  17.504   1.065   9.871  0.1137 -0.1829 -0.1482
 1109ERGO    C115637  17.492   1.025   9.492 -0.0747 -0.2763 -0.1348
 1109ERGO    C215638  17.483   0.988   9.132  0.0215 -0.1458 -0.0839
 1110ERGO   ROH15639   7.242   1.347   7.080  0.0738 -0.0116  0.0063
 1110ERGO    R115640   7.235   1.508   7.312  0.0188  0.0221 -0.0188
 1110ERGO    R215641   7.144   1.415   7.555 -0.0804  0.0710 -0.0373
 1110ERGO    R315642   7.386   1.503   7.643 -0.0970  0.0450  0.0354
 1110ERGO    R415643   7.263   1.379   7.878 -0.2395  0.1734  0.0337
 1110ERGO    R515644   7.344   1.581   7.865 -0.1812  0.1491 -0.0147
 1110ERGO    C115645   7.559   1.441   8.148 -0.3476  0.2087  0.1433
 1110ERGO    C215646   7.810   1.289   8.335  0.5387  0.3688 -0.0013
 1111ERGO   ROH15647  17.245   6.857   9.105 -0.2459 -0.1547  0.0151
 1111ERGO    R115648  17.199   6.710   9.343 -0.0787 -0.1490  0.0519
 1111ERGO    R215649  17.381   6.705   9.552 -0.0775  0.1245  0.0593
 1111ERGO    R315650  17.166   6.786   9.698 -0.1829 -0.0952  0.0318
 1111ERGO    R415651  17.354   6.680   9.896 -0.1003  0.0766  0.0542
 1111ERGO    R515652  17.145   6.622   9.871 -0.0439 -0.1299  0.0195
 1111ERGO    C115653  17.136   6.742  10.233 -0.2124 -0.1577  0.0255
 1111ERGO    C215654  17.107   6.689  10.505  0.1106  0.0387  0.0512
 1112ERGO   ROH15655   0.258  14.175   6.703 -0.1014 -0.0903  0.0352
 1112ERGO    R115656   0.138  14.193   6.959 -0.0999 -0.0849  0.0360
 1112ERGO    R215657   0.145  13.986   7.142 -0.0427 -0.0589  0.0664
 1112ERGO    R315658   0.249  14.178   7.305 -0.0857 -0.0085  0.0343
 1112ERGO    R415659   0.136  13.978   7.487 -0.2078  0.0949  0.0667
 1112ERGO    R515660   0.094  14.192   7.486 -0.1677  0.1004 -0.0455
 1112ERGO    C115661   0.228  14.153   7.841 -0.3443  0.2319  0.0367
 1112ERGO    C215662   0.366  14.292   8.115  0.1296  0.2255  0.1357
 1113ERGO   ROH15663   2.570   7.542   7.074 -0.0474 -0.1106  0.1997
 1113ERGO    R115664   2.589   7.635   7.340 -0.3343 -0.1042  0.2209
 1113ERGO    R215665   2.453   7.515   7.550 -0.0600 -0.5111  0.1729
 1113ERGO    R315666   2.701   7.500   7.659 -0.0214  0.1250  0.2143
 1113ERGO    R415667   2.530   7.598   7.876 -0.3436 -0.3370  0.1992
 1113ERGO    R515668   2.714   7.690   7.804 -0.5526  0.1622  0.2402
 1113ERGO    C115669   2.808   7.631   8.170 -0.4726  0.3616  0.2533
 1113ERGO    C215670   2.930   7.458   8.466  0.0811  0.3232  0.0490
 1114ERGO   ROH15671  13.393  11.379   6.660 -0.1455  0.0919  0.1033
 1114ERGO    R115672  13.416  11.284   6.925 -0.2388 -0.0031  0.0765
 1114ERGO    R215673  13.438  11.454   7.142 -0.0829 -0.0854  0.1179
 1114ERGO    R315674  13.224  11.312   7.234 -0.2168  0.0892  0.0842
 1114ERGO    R415675  13.358  11.411   7.476 -0.0129 -0.2272  0.1187
 1114ERGO    R515676  13.305  11.204   7.432 -0.2646 -0.1460 -0.0157
 1114ERGO    C115677  13.111  11.254   7.756 -0.0978 -0.1458  0.0874
 1114ERGO    C215678  13.163  11.379   8.012  0.1258 -0.0628  0.0409
 1115ERGO   ROH15679   9.909  14.418  10.544  0.1445 -0.0687  0.0468
 1115ERGO    R115680  10.027  14.369  10.291  0.0321  0.0492 -0.0287
 1115ERGO    R215681   9.930  14.178  10.117  0.1350 -0.0750  0.0553
 1115ERGO    R315682   9.923  14.387   9.943 -0.2231 -0.0967  0.0364
 1115ERGO    R415683   9.979  14.152   9.775  0.2748 -0.0210  0.0699
 1115ERGO    R515684  10.094  14.337   9.783 -0.0766  0.2127  0.0858
 1115ERGO    C115685  10.000  14.334   9.414  0.0201 -0.0101  0.0607
 1115ERGO    C215686  10.015  14.376   9.153 -0.1350 -0.0979  0.2710
 1116ERGO   ROH15687   8.772   0.736  10.562 -0.1586 -0.0971  0.0202
 1116ERGO    R115688   8.682   0.915  10.363 -0.0640 -0.0917 -0.0186
 1116ERGO    R215689   8.807   0.941  10.118 -0.0238 -0.1778 -0.0082
 1116ERGO    R315690   8.557   0.891  10.022 -0.0318 -0.0951 -0.0302
 1116ERGO    R415691   8.716   0.957   9.784 -0.0278  0.0108  0.0011
 1116ERGO    R515692   8.529   1.050   9.845 -0.0146  0.0028  0.0543
 1116ERGO    C115693   8.429   0.920   9.501 -0.0375  0.1982 -0.0140
 1116ERGO    C215694   8.480   0.971   9.194  0.2133  0.0565  0.0528
 1117ERGO   ROH15695   3.134   9.413   8.886  0.0319  0.0654 -0.0185
 1117ERGO    R115696   3.341   9.462   8.699  0.0448  0.0297 -0.0103
 1117ERGO    R215697   3.463   9.708   8.673  0.0920 -0.0063  0.0064
 1117ERGO    R315698   3.690   9.564   8.712  0.0716 -0.0466 -0.0076
 1117ERGO    R415699   3.777   9.801   8.563  0.1371  0.1079  0.2209
 1117ERGO    R515700   3.814   9.593   8.510  0.1600  0.1358  0.0565
 1117ERGO    C115701   4.173   9.719   8.536  0.1442  0.1364  0.3326
 1117ERGO    C215702   4.392   9.967   8.386  0.1127 -0.2967  0.0712
 1118ERGO   ROH15703  11.737   5.695   9.981 -0.3137  0.2623 -0.1148
 1118ERGO    R115704  11.887   5.652   9.744 -0.3532 -0.0367 -0.0888
 1118ERGO    R215705  11.806   5.477   9.547 -0.5885  0.0017 -0.0297
 1118ERGO    R315706  11.834   5.695   9.387 -0.2673 -0.0908 -0.1077
 1118ERGO    R415707  11.813   5.467   9.202 -0.4063 -0.1408 -0.0240
 1118ERGO    R515708  11.971   5.618   9.206 -0.2482 -0.3083 -0.0014
 1118ERGO    C115709  11.844   5.666   8.850  0.0013 -0.3107 -0.0939
 1118ERGO    C215710  11.948   5.568   8.486 -0.1014 -0.0386 -0.0789
 1119ERGO   ROH15711   2.711   0.005   7.138 -0.2718  0.0366  0.0466
 1119ERGO    R115712   2.830   0.028   7.394 -0.2555 -0.0450  0.0468
 1119ERGO    R215713   2.926   0.267   7.492  0.0485 -0.1359 -0.0139
 1119ERGO    R315714   2.762   0.210   7.702 -0.0414  0.1302 -0.0085
 1119ERGO    R415715   3.004   0.321   7.825  0.0548 -0.0672 -0.0266
 1119ERGO    R515716   2.910   0.131   7.873 -0.1505  0.0534  0.0482
 1119ERGO    C115717   2.896   0.299   8.215 -0.0259  0.2226 -0.0290
 1119ERGO    C215718   2.799   0.321   8.491 -0.1696 -0.0286 -0.0393
 1120ERGO   ROH15719  11.847   8.814   9.810  0.0720  0.1190 -0.0217
 1120ERGO    R115720  11.929   8.960   9.581  0.0411  0.1165 -0.0345
 1120ERGO    R215721  12.105   8.858   9.395  0.0823  0.1476 -0.0119
 1120ERGO    R315722  11.906   8.920   9.220  0.0736  0.0670 -0.0315
 1120ERGO    R415723  12.142   8.878   9.052  0.1103  0.1611 -0.0079
 1120ERGO    R515724  12.013   9.054   9.053  0.0381  0.1104 -0.0210
 1120ERGO    C115725  11.977   8.950   8.688  0.1185  0.0933 -0.0241
 1120ERGO    C215726  11.728   8.825   8.321  0.0560 -0.2651  0.1360
 1121ERGO   ROH15727   8.350   9.308   6.523  0.0093 -0.0636  0.0458
 1121ERGO    R115728   8.536   9.276   6.734  0.0961 -0.0364 -0.0247
 1121ERGO    R215729   8.804   9.336   6.707  0.0658  0.0806 -0.1034
 1121ERGO    R315730   8.759   9.492   6.925  0.0731  0.0123 -0.0540
 1121ERGO    R415731   8.992   9.330   6.997  0.0321 -0.0536 -0.0846
 1121ERGO    R515732   8.807   9.349   7.112  0.0263 -0.0590 -0.0985
 1121ERGO    C115733   9.058   9.472   7.371  0.0193 -0.1959 -0.0272
 1121ERGO    C215734   9.291   9.523   7.651 -0.2218 -0.1443  0.1237
 1122ERGO   ROH15735   8.755   7.792  10.114 -0.3282  0.0500  0.0121
 1122ERGO    R115736   8.733   7.638   9.878 -0.1867  0.0515 -0.0016
 1122ERGO    R215737   8.503   7.632   9.726 -0.1418 -0.0638 -0.0543
 1122ERGO    R315738   8.672   7.702   9.525 -0.1340  0.0345 -0.0157
 1122ERGO    R415739   8.451   7.563   9.391 -0.0390 -0.0923 -0.0654
 1122ERGO    R515740   8.664   7.517   9.373 -0.0021  0.0242 -0.0194
 1122ERGO    C115741   8.580   7.588   9.008  0.0280 -0.0166 -0.0358
 1122ERGO    C215742   8.633   7.647   8.717  0.0293  0.0781 -0.0027
 1123ERGO   ROH15743  16.798  12.321  10.388 -0.3818 -0.3288 -0.0825
 1123ERGO    R115744  16.922  12.280  10.137 -0.2284 -0.2743 -0.0167
 1123ERGO    R215745  16.897  12.044   9.995 -0.2820 -0.1822 -0.1582
 1123ERGO    R315746  16.812  12.209   9.797 -0.0322 -0.0224 -0.1366
 1123ERGO    R415747  16.955  11.994   9.658 -0.3564 -0.2321 -0.1641
 1123ERGO    R515748  16.991  12.208   9.638 -0.0278 -0.2773 -0.1368
 1123ERGO    C115749  16.909  12.121   9.276 -0.1649 -0.1110 -0.1473
 1123ERGO    C215750  16.814  12.119   8.979  0.0109 -0.1921  0.1507
 1124ERGO   ROH15751   9.806  14.320   6.563 -0.1272  0.0127 -0.0734
 1124ERGO    R115752   9.714  14.244   6.820  0.0229 -0.0815 -0.0457
 1124ERGO    R215753   9.854  14.069   6.982  0.2511  0.0606 -0.0816
 1124ERGO    R315754   9.833  14.272   7.162  0.0936  0.0438 -0.0802
 1124ERGO    R415755   9.895  14.035   7.324 -0.1560  0.0101 -0.0326
 1124ERGO    R515756   9.728  14.172   7.353 -0.1556  0.0492 -0.2120
 1124ERGO    C115757   9.900  14.206   7.692 -0.5410 -0.0350 -0.0027
 1124ERGO    C215758  10.036  14.366   8.079  0.1374  0.0533  0.2028
 1125ERGO   ROH15759  13.661   1.125  10.378 -0.1484  0.0416 -0.0047
 1125ERGO    R115760  13.576   1.215  10.123 -0.1162 -0.1080 -0.0687
 1125ERGO    R215761  13.742   1.356   9.952 -0.1588 -0.0317 -0.0410
 1125ERGO    R315762  13.673   1.160   9.777  0.0701 -0.1415 -0.0130
 1125ERGO    R415763  13.761   1.383   9.608 -0.1207 -0.0817 -0.0438
 1125ERGO    R515764  13.572   1.276   9.594 -0.0157 -0.2782 -0.0570
 1125ERGO    C115765  13.708   1.214   9.243  0.1162 -0.2139 -0.0192
 1125ERGO    C215766  13.671   1.154   8.824 -0.2000 -0.1755 -0.1742
 1126ERGO   ROH15767   7.255   9.974   7.058  0.0616  0.0053  0.0035
 1126ERGO    R115768   7.033   9.868   7.198  0.1599 -0.1878  0.0183
 1126ERGO    R215769   7.053   9.649   7.364  0.3811 -0.1173  0.0964
 1126ERGO    R315770   6.940   9.816   7.546  0.1878 -0.1710  0.0268
 1126ERGO    R415771   6.888   9.548   7.651  0.2165 -0.1858 -0.0215
 1126ERGO    R515772   6.740   9.703   7.615  0.1842 -0.2456 -0.1161
 1126ERGO    C115773   6.686   9.646   7.988 -0.0609 -0.2761 -0.1554
 1126ERGO    C215774   6.593   9.470   8.257 -0.1413 -0.1416 -0.2601
 1127ERGO   ROH15775  13.716   6.321  10.033  0.0254  0.2191  0.0370
 1127ERGO    R115776  13.942   6.342   9.864  0.0161 -0.0781 -0.0199
 1127ERGO    R215777  13.987   6.170   9.653 -0.3488 -0.0411 -0.1375
 1127ERGO    R315778  14.004   6.402   9.511  0.0056  0.0196 -0.0049
 1127ERGO    R415779  14.056   6.190   9.315 -0.3091  0.0498 -0.1235
 1127ERGO    R515780  14.182   6.363   9.356 -0.0461 -0.1613 -0.0195
 1127ERGO    C115781  14.113   6.419   8.985  0.0468  0.1598  0.0093
 1127ERGO    C215782  14.010   6.413   8.629 -0.0844 -0.0263  0.3149
 1128ERGO   ROH15783   0.750   0.883   6.828 -0.1413  0.0696  0.0496
 1128ERGO    R115784   0.795   0.797   7.094 -0.0713  0.0297  0.0246
 1128ERGO    R215785   1.001   0.897   7.250 -0.0805  0.0654  0.0127
 1128ERGO    R315786   0.799   0.949   7.424 -0.0705 -0.0378  0.0561
 1128ERGO    R415787   1.044   0.981   7.582 -0.0544 -0.0093  0.0285
 1128ERGO    R515788   0.873   0.854   7.631 -0.0121 -0.0716  0.0208
 1128ERGO    C115789   0.879   1.079   7.940 -0.0299 -0.1496  0.0785
 1128ERGO    C215790   1.012   1.075   8.198 -0.0411  0.2595  0.3975
 1129ERGO   ROH15791  10.346   6.234   9.786  0.1873 -0.0035 -0.1473
 1129ERGO    R115792  10.394   6.085   9.550  0.2721 -0.0182 -0.1217
 1129ERGO    R215793  10.199   6.043   9.358  0.2466 -0.2902 -0.0447
 1129ERGO    R315794  10.387   6.147   9.192  0.0757 -0.1230 -0.1366
 1129ERGO    R415795  10.213   5.988   9.017  0.1099 -0.2374 -0.0592
 1129ERGO    R515796  10.429   5.972   9.033  0.1301 -0.0685 -0.1790
 1129ERGO    C115797  10.398   6.054   8.662 -0.1301 -0.0497 -0.1540
 1129ERGO    C215798  10.425   6.047   8.334 -0.1270 -0.1218 -0.1292
 1130ERGO   ROH15799  12.655   2.615   6.717  0.1365 -0.2346 -0.2058
 1130ERGO    R115800  12.744   2.744   6.952  0.0514 -0.0962 -0.2493
 1130ERGO    R215801  12.579   2.787   7.170  0.0129 -0.0945 -0.2831
 1130ERGO    R315802  12.778   2.658   7.304  0.0678  0.0614 -0.2108
 1130ERGO    R415803  12.579   2.723   7.510  0.0362  0.0958 -0.2456
 1130ERGO    R515804  12.791   2.773   7.514  0.0191  0.1875 -0.2727
 1130ERGO    C115805  12.765   2.566   7.834  0.1012  0.3530 -0.1558
 1130ERGO    C215806  12.801   2.277   8.093  0.0645  0.1433  0.3344
 1131ERGO   ROH15807   3.431   2.697   6.927 -0.1740  0.1125 -0.0536
 1131ERGO    R115808   3.386   2.596   7.188 -0.1021  0.1539 -0.0250
 1131ERGO    R215809   3.553   2.653   7.400 -0.0254  0.1617 -0.0870
 1131ERGO    R315810   3.323   2.736   7.518  0.0232  0.2071 -0.0231
 1131ERGO    R415811   3.507   2.688   7.741 -0.0472 -0.2136 -0.0466
 1131ERGO    R515812   3.307   2.605   7.718 -0.1131 -0.0253 -0.1818
 1131ERGO    C115813   3.263   2.787   8.050 -0.0143 -0.3893  0.0370
 1131ERGO    C215814   3.281   2.863   8.383 -0.0008 -0.0573 -0.3017
 1132ERGO   ROH15815  15.436  10.662  10.525  0.3589  0.0349 -0.0000
 1132ERGO    R115816  15.303  10.757  10.294  0.2549  0.1412  0.1012
 1132ERGO    R215817  15.430  10.911  10.102  0.2179  0.0856  0.0277
 1132ERGO    R315818  15.339  10.718   9.934 -0.0176  0.1559  0.0715
 1132ERGO    R415819  15.466  10.914   9.758  0.1412  0.0004  0.0186
 1132ERGO    R515820  15.263  10.837   9.741  0.0598  0.2052  0.0745
 1132ERGO    C115821  15.402  10.735   9.400 -0.1244  0.0170  0.0545
 1132ERGO    C215822  15.342  10.663   9.061 -0.1164  0.0194  0.0100
 1133ERGO   ROH15823  13.812   9.579  10.493 -0.0281  0.1377  0.0321
 1133ERGO    R115824  13.991   9.668  10.293 -0.0438  0.1502  0.0222
 1133ERGO    R215825  14.110   9.496  10.112  0.0672  0.1365  0.0990
 1133ERGO    R315826  14.003   9.666   9.929  0.0021  0.0164  0.0257
 1133ERGO    R415827  14.225   9.536   9.789  0.1689  0.1927  0.1427
 1133ERGO    R515828  14.192   9.751   9.809 -0.0237  0.1626  0.0952
 1133ERGO    C115829  14.193   9.720   9.429  0.1673  0.1129  0.0994
 1133ERGO    C215830  14.319   9.702   9.067 -0.1126  0.1679 -0.1175
 1134ERGO   ROH15831  11.851   3.044   6.634  0.2815  0.1246  0.1633
 1134ERGO    R115832  11.671   2.930   6.821  0.1032  0.0531 -0.0476
 1134ERGO    R215833  11.549   2.686   6.780  0.2761 -0.0150 -0.1762
 1134ERGO    R315834  11.656   2.628   7.024  0.0042  0.0668 -0.0348
 1134ERGO    R415835  11.399   2.486   7.019  0.1318 -0.1626 -0.3871
 1134ERGO    R515836  11.467   2.626   7.172 -0.1951 -0.1093 -0.2837
 1134ERGO    C115837  11.411   2.316   7.387 -0.2072 -0.1718 -0.3772
 1134ERGO    C215838  11.387   2.253   7.741 -0.2543 -0.0500  0.1632
 1135ERGO   ROH15839   5.427   5.212   7.132 -0.1365  0.0622  0.1073
 1135ERGO    R115840   5.590   5.235   7.362 -0.2746  0.0957  0.2030
 1135ERGO    R215841   5.535   5.102   7.598 -0.1167 -0.3191  0.0143
 1135ERGO    R315842   5.789   5.010   7.568  0.0865  0.2164 -0.0039
 1135ERGO    R415843   5.759   5.053   7.857 -0.1819 -0.3438  0.0663
 1135ERGO    R515844   5.916   5.134   7.730 -0.2479  0.1881  0.2946
 1135ERGO    C115845   6.128   4.939   7.980 -0.0289  0.1445  0.0795
 1135ERGO    C215846   6.246   4.785   8.250  0.0535  0.0225  0.1450
 1136ERGO   ROH15847   2.599   1.165   7.300 -0.2713  0.1457  0.1243
 1136ERGO    R115848   2.788   1.153   7.510 -0.3789  0.0575  0.2170
 1136ERGO    R215849   3.001   1.328   7.530 -0.1186 -0.2385  0.1380
 1136ERGO    R315850   2.900   1.372   7.779 -0.1676  0.1485  0.0575
 1136ERGO    R415851   3.182   1.448   7.798 -0.0346 -0.3383  0.1266
 1136ERGO    R515852   3.077   1.306   7.926 -0.3524 -0.0482  0.1969
 1136ERGO    C115853   3.194   1.558   8.188 -0.0316 -0.0330  0.0443
 1136ERGO    C215854   3.275   1.847   8.331 -0.1333 -0.0270  0.1239
 1137ERGO   ROH15855  10.800  13.862  10.376  0.0537  0.2193  0.1262
 1137ERGO    R115856  10.925  13.829  10.124  0.0952  0.1509  0.1565
 1137ERGO    R215857  10.782  13.772   9.894  0.1561 -0.1323  0.1908
 1137ERGO    R315858  10.912  13.991   9.798 -0.0277 -0.0868  0.0384
 1137ERGO    R415859  10.874  13.819   9.564  0.1541 -0.3164  0.1622
 1137ERGO    R515860  11.062  13.904   9.633  0.0744 -0.0893  0.1256
 1137ERGO    C115861  11.048  14.053   9.282 -0.0197 -0.3808  0.0023
 1137ERGO    C215862  11.104  14.038   8.954 -0.1931  0.0516  0.2144
 1138ERGO   ROH15863   0.850  11.111  10.673 -0.2417  0.2594 -0.0259
 1138ERGO    R115864   0.992  11.123  10.428 -0.1990  0.2868 -0.0012
 1138ERGO    R215865   0.992  10.915  10.246  0.0980  0.1685  0.1177
 1138ERGO    R315866   0.910  11.109  10.074 -0.1083 -0.0296 -0.0107
 1138ERGO    R415867   1.032  10.905   9.903  0.2341  0.0603  0.1367
 1138ERGO    R515868   1.082  11.117   9.907 -0.0623  0.1282  0.0497
 1138ERGO    C115869   0.979  11.081   9.542  0.1197 -0.1887  0.0274
 1138ERGO    C215870   0.846  10.995   9.141 -0.2110  0.0361  0.0782
 1139ERGO   ROH15871  14.425  13.149   6.909 -0.0208 -0.3084  0.0561
 1139ERGO    R115872  14.321  13.118   7.170  0.0430 -0.3372  0.0791
 1139ERGO    R215873  14.449  12.970   7.365  0.2176 -0.1594  0.1081
 1139ERGO    R315874  14.428  13.200   7.509  0.0112 -0.1353  0.0405
 1139ERGO    R415875  14.466  12.991   7.710  0.3057 -0.0241  0.0955
 1139ERGO    R515876  14.305  13.137   7.705  0.1441 -0.2038  0.0993
 1139ERGO    C115877  14.457  13.219   8.045  0.1632  0.0772  0.0247
 1139ERGO    C215878  14.415  13.368   8.429 -0.0157 -0.1975  0.1957
 1140ERGO   ROH15879  16.456   5.338   6.866 -0.1894 -0.0410 -0.0400
 1140ERGO    R115880  16.494   5.388   7.142 -0.0736  0.0489 -0.0723
 1140ERGO    R215881  16.318   5.540   7.291 -0.0801 -0.0127 -0.0197
 1140ERGO    R315882  16.315   5.320   7.451  0.1250  0.0251  0.0400
 1140ERGO    R415883  16.298   5.547   7.636 -0.2186  0.0627 -0.0282
 1140ERGO    R515884  16.443   5.384   7.643 -0.0216  0.2361  0.0719
 1140ERGO    C115885  16.283   5.344   7.987 -0.1061  0.1421  0.0228
 1140ERGO    C215886  16.178   5.254   8.274  0.0220 -0.3312  0.1149
 1141ERGO   ROH15887  11.812   7.993   6.424  0.2851 -0.1894  0.0550
 1141ERGO    R115888  11.651   8.116   6.622  0.1522 -0.1483 -0.0764
 1141ERGO    R215889  11.511   7.971   6.811  0.1000 -0.1064 -0.0824
 1141ERGO    R315890  11.645   8.131   6.986 -0.0310  0.0071 -0.0844
 1141ERGO    R415891  11.465   7.970   7.154  0.0556 -0.0928 -0.0882
 1141ERGO    R515892  11.480   8.188   7.151 -0.0915 -0.0822 -0.1136
 1141ERGO    C115893  11.563   8.120   7.517 -0.0932  0.0216 -0.0935
 1141ERGO    C215894  11.846   8.175   7.784 -0.0481  0.0804  0.0101
 1142ERGO   ROH15895  16.305   8.160  10.817 -0.2612 -0.0864 -0.0052
 1142ERGO    R115896  16.473   8.117  10.593 -0.1380 -0.1175  0.0929
 1142ERGO    R215897  16.442   7.903  10.422 -0.1609 -0.0388 -0.0003
 1142ERGO    R315898  16.434   8.098  10.232  0.0914  0.0312  0.0572
 1142ERGO    R415899  16.515   7.856  10.087 -0.3378 -0.0688 -0.0363
 1142ERGO    R515900  16.619   8.048  10.088 -0.0268 -0.2285 -0.0129
 1142ERGO    C115901  16.551   8.012   9.715 -0.2039 -0.0205 -0.0033
 1142ERGO    C215902  16.467   7.983   9.392  0.2156 -0.0649  0.0399
 1143ERGO   ROH15903  13.055  16.794   6.497  0.0809  0.2421 -0.0638
 1143ERGO    R115904  12.978  16.999   6.677  0.0540  0.1226  0.0632
 1143ERGO    R215905  12.768  17.171   6.626  0.2226  0.3226  0.0225
 1143ERGO    R315906  12.681  17.086   6.869 -0.0733  0.1422 -0.1405
 1143ERGO    R415907  12.606  17.369   6.857  0.1642  0.2149  0.0751
 1143ERGO    R515908  12.722  17.272   7.014 -0.0597 -0.0369  0.0886
 1143ERGO    C115909  12.430  17.405   7.220 -0.1476 -0.0175 -0.0475
 1143ERGO    C215910  12.103  17.459   7.266  0.0567 -0.0379 -0.0215
 1144ERGO   ROH15911  14.502   4.066   6.894  0.0640 -0.1319  0.0376
 1144ERGO    R115912  14.375   4.085   7.146  0.0396 -0.1752  0.0285
 1144ERGO    R215913  14.284   3.863   7.284  0.1600 -0.2102  0.0484
 1144ERGO    R315914  14.438   3.964   7.484  0.0899 -0.0991  0.0475
 1144ERGO    R415915  14.242   3.794   7.620  0.0212 -0.0116  0.0737
 1144ERGO    R515916  14.285   4.004   7.664  0.0172  0.0165 -0.0345
 1144ERGO    C115917  14.363   3.849   8.004 -0.1255  0.2083  0.0875
 1144ERGO    C215918  14.642   3.758   8.215 -0.0122 -0.0326  0.0363
 1145ERGO   ROH15919   7.761   3.543   6.901 -0.0967 -0.0898  0.0559
 1145ERGO    R115920   7.820   3.503   7.175  0.0436 -0.0265  0.0367
 1145ERGO    R215921   8.030   3.630   7.302  0.0442  0.0902 -0.0714
 1145ERGO    R315922   7.836   3.710   7.474  0.0801  0.0224  0.0003
 1145ERGO    R415923   8.083   3.723   7.631  0.1233  0.0760 -0.0804
 1145ERGO    R515924   7.901   3.617   7.685  0.1722  0.0236 -0.0297
 1145ERGO    C115925   7.931   3.852   7.983  0.2032  0.0041 -0.0185
 1145ERGO    C215926   7.871   4.076   8.316  0.0456 -0.0420 -0.3397
 1146ERGO   ROH15927  17.290   0.785   6.729 -0.1214  0.2665  0.0150
 1146ERGO    R115928  17.407   0.668   6.959 -0.0974  0.1338 -0.0628
 1146ERGO    R215929  17.487   0.818   7.178 -0.0350  0.0147  0.0006
 1146ERGO    R315930  17.326   0.645   7.313 -0.0389 -0.0288 -0.0604
 1146ERGO    R415931  17.481   0.782   7.521 -0.0878 -0.0636 -0.0086
 1146ERGO    R515932  17.463   0.566   7.494 -0.0635 -0.0559 -0.0570
 1146ERGO    C115933  17.328   0.599   7.849 -0.1224 -0.1500 -0.0711
 1146ERGO    C215934  17.407   0.543   8.124  0.1807 -0.0778  0.0711
 1147ERGO   ROH15935  15.232  13.799   7.082  0.0201  0.0254 -0.0090
 1147ERGO    R115936  15.207  13.819   7.363  0.1421  0.1865 -0.0084
 1147ERGO    R215937  15.192  14.062   7.494 -0.1807  0.2636 -0.1775
 1147ERGO    R315938  14.964  13.956   7.598  0.0431 -0.0371  0.0223
 1147ERGO    R415939  15.029  14.180   7.775 -0.1420  0.1084 -0.0888
 1147ERGO    R515940  14.993  13.974   7.835  0.1966  0.0679 -0.0020
 1147ERGO    C115941  14.720  14.149   8.036  0.0907 -0.2643  0.1505
 1147ERGO    C215942  14.536  14.116   8.202 -0.3912  0.0691  0.2196
 1148ERGO   ROH15943   7.994  14.759   6.650  0.1555 -0.1789 -0.0917
 1148ERGO    R115944   8.037  14.792   6.928  0.2111 -0.1862 -0.0991
 1148ERGO    R215945   7.831  14.833   7.107  0.2648  0.0617 -0.0883
 1148ERGO    R315946   7.940  14.618   7.233  0.0447 -0.0418 -0.0689
 1148ERGO    R415947   7.799  14.765   7.444  0.2262  0.1422 -0.0756
 1148ERGO    R515948   8.008  14.703   7.446  0.1601 -0.0860 -0.0889
 1148ERGO    C115949   7.884  14.523   7.759 -0.0028  0.0921 -0.0499
 1148ERGO    C215950   7.971  14.331   8.081 -0.0819  0.0285 -0.0415
 1149ERGO   ROH15951   1.196  14.805   6.576  0.2361 -0.1092 -0.0698
 1149ERGO    R115952   1.193  14.852   6.855  0.1261 -0.0996 -0.0731
 1149ERGO    R215953   1.279  14.664   7.039  0.2327 -0.0205 -0.0457
 1149ERGO    R315954   1.438  14.868   7.124  0.0453  0.1141 -0.0089
 1149ERGO    R415955   1.332  14.749   7.370  0.3044 -0.1602 -0.0197
 1149ERGO    R515956   1.322  14.959   7.312  0.0330 -0.1309  0.1084
 1149ERGO    C115957   1.512  14.990   7.642  0.1702 -0.1153  0.0300
 1149ERGO    C215958   1.649  14.984   7.922  0.1580 -0.0089  0.0715
 1150ERGO   ROH15959   9.480   6.479  10.055 -0.2215  0.2225  0.1904
 1150ERGO    R115960   9.293   6.460   9.844 -0.1924  0.2759  0.1601
 1150ERGO    R215961   9.314   6.610   9.613 -0.0183  0.1480  0.0935
 1150ERGO    R315962   9.300   6.367   9.492 -0.1949  0.1003  0.2044
 1150ERGO    R415963   9.287   6.561   9.272  0.1556  0.0184  0.0970
 1150ERGO    R515964   9.146   6.400   9.311 -0.0458  0.1825  0.0860
 1150ERGO    C115965   9.259   6.305   8.960  0.0909 -0.1018  0.2033
 1150ERGO    C215966   9.295   6.294   8.552 -0.2424  0.0827  0.1537
 1151ERGO   ROH15967  10.163  15.669  10.364 -0.1170  0.5051  0.0239
 1151ERGO    R115968  10.074  15.769  10.115 -0.0698  0.2525 -0.0957
 1151ERGO    R215969  10.247  15.826   9.907 -0.0232  0.1451 -0.0781
 1151ERGO    R315970  10.083  15.659   9.768  0.0989 -0.0401 -0.0047
 1151ERGO    R415971  10.200  15.836   9.565 -0.2713  0.1930 -0.0454
 1151ERGO    R515972   9.988  15.798   9.598 -0.2103 -0.1053  0.0998
 1151ERGO    C115973  10.020  15.685   9.235 -0.3011  0.0470  0.0425
 1151ERGO    C215974  10.225  15.738   9.003 -0.1418 -0.1511  0.0474
 1152ERGO   ROH15975   3.813   9.031   6.779  0.1089  0.0929 -0.0465
 1152ERGO    R115976   3.972   9.084   7.007 -0.0485  0.2614  0.0251
 1152ERGO    R215977   3.871   9.203   7.235 -0.3894 -0.2456  0.1514
 1152ERGO    R315978   3.975   8.984   7.357  0.1733 -0.1201 -0.0811
 1152ERGO    R415979   4.035   9.206   7.539 -0.4218 -0.1514  0.1697
 1152ERGO    R515980   4.178   9.063   7.458 -0.0321  0.3017  0.0221
 1152ERGO    C115981   4.229   9.001   7.831  0.0875  0.0212 -0.0378
 1152ERGO    C215982   4.386   8.993   8.129  0.0095 -0.0473  0.0145
 1153ERGO   ROH15983  13.576   6.954   6.453  0.1553  0.0653 -0.0994
 1153ERGO    R115984  13.632   6.848   6.709  0.2970  0.0440 -0.1406
 1153ERGO    R215985  13.857   6.917   6.852  0.1616  0.3503 -0.0922
 1153ERGO    R315986  13.677   6.979   7.046  0.0416 -0.0326 -0.0698
 1153ERGO    R415987  13.913   6.880   7.191  0.2316  0.2672 -0.1117
 1153ERGO    R515988  13.707   6.807   7.211  0.3261 -0.0843 -0.1539
 1153ERGO    C115989  13.777   6.916   7.570  0.1598 -0.1407 -0.1020
 1153ERGO    C215990  13.869   6.786   7.895 -0.0506 -0.2632  0.1045
 1154ERGO   ROH15991  12.503   4.813   6.501 -0.2097 -0.0914  0.0714
 1154ERGO    R115992  12.496   4.719   6.768 -0.2162 -0.1094  0.0662
 1154ERGO    R215993  12.705   4.757   6.944 -0.1456 -0.2674  0.0286
 1154ERGO    R315994  12.512   4.866   7.101 -0.0403 -0.1429  0.0714
 1154ERGO    R415995  12.728   4.794   7.287 -0.0221 -0.1946  0.0121
 1154ERGO    R515996  12.518   4.735   7.302 -0.0377 -0.0923  0.0977
 1154ERGO    C115997  12.559   4.919   7.634  0.1488 -0.0353  0.0429
 1154ERGO    C215998  12.391   5.076   7.963 -0.2344  0.0323 -0.0597
 1155ERGO   ROH15999   8.797   7.713   6.525  0.1145  0.0267 -0.0178
 1155ERGO    R116000   8.701   7.828   6.765 -0.0349 -0.1727  0.0209
 1155ERGO    R216001   8.686   7.687   7.002  0.2556 -0.2421  0.0002
 1155ERGO    R316002   8.834   7.894   7.097 -0.0744  0.0011  0.0035
 1155ERGO    R416003   8.780   7.727   7.332  0.4621 -0.2769 -0.0522
 1155ERGO    R516004   8.739   7.941   7.312  0.0108 -0.3333  0.1204
 1155ERGO    C116005   8.973   7.945   7.614  0.2725 -0.0690 -0.0797
 1155ERGO    C216006   9.158   8.229   7.769  0.1257  0.0832  0.1691
 1156ERGO   ROH16007   6.448   0.712   6.772  0.2952 -0.1558 -0.1264
 1156ERGO    R116008   6.448   0.579   7.022  0.1600  0.0327 -0.0235
 1156ERGO    R216009   6.644   0.398   7.093 -0.0084 -0.0916  0.1229
 1156ERGO    R316010   6.669   0.559   7.310  0.1269  0.0515  0.0043
 1156ERGO    R416011   6.891   0.369   7.333 -0.0507 -0.1495  0.1608
 1156ERGO    R516012   6.742   0.413   7.485 -0.0257  0.1086  0.1206
 1156ERGO    C116013   7.059   0.505   7.676  0.0516 -0.0489  0.0716
 1156ERGO    C216014   7.170   0.571   7.880 -0.2011  0.0380 -0.2845
 1157ERGO   ROH16015   3.317   3.752   6.800 -0.3375  0.0210 -0.0241
 1157ERGO    R116016   3.296   3.669   7.070 -0.2446 -0.0517 -0.0387
 1157ERGO    R216017   3.320   3.845   7.282 -0.2106 -0.1016 -0.0007
 1157ERGO    R316018   3.079   3.742   7.353 -0.1735 -0.1589  0.0440
 1157ERGO    R416019   3.233   3.752   7.603 -0.1343 -0.1146  0.0167
 1157ERGO    R516020   3.131   3.578   7.519 -0.1058 -0.1414  0.0396
 1157ERGO    C116021   2.955   3.601   7.857 -0.0550 -0.1759  0.0688
 1157ERGO    C216022   2.832   3.623   8.193  0.1579  0.3171 -0.2715
 1158ERGO   ROH16023   3.062  14.505   6.944 -0.1853  0.3422  0.1748
 1158ERGO    R116024   2.890  14.352   7.108  0.0362  0.1260  0.2122
 1158ERGO    R216025   2.935  14.315   7.377  0.0307  0.3594  0.2501
 1158ERGO    R316026   2.682  14.410   7.401 -0.1518 -0.0701  0.1193
 1158ERGO    R416027   2.727  14.254   7.647  0.0433  0.1365  0.2115
 1158ERGO    R516028   2.561  14.231   7.506  0.1249 -0.2284  0.1709
 1158ERGO    C116029   2.368  14.309   7.826 -0.1206 -0.3963  0.0662
 1158ERGO    C216030   2.300  14.188   8.248  0.2218  0.1812  0.0011
 1159ERGO   ROH16031  16.883   7.137   7.161  0.0099 -0.4208  0.0024
 1159ERGO    R116032  16.773   6.994   7.380  0.0331 -0.1557  0.1909
 1159ERGO    R216033  16.846   7.045   7.642 -0.0722  0.2897  0.1424
 1159ERGO    R316034  16.579   7.075   7.677 -0.1019  0.1832  0.0156
 1159ERGO    R416035  16.686   7.058   7.948 -0.2217  0.2285  0.0681
 1159ERGO    R516036  16.526   6.937   7.865 -0.1349  0.1631 -0.0076
 1159ERGO    C116037  16.342   7.095   8.159 -0.3366  0.0928 -0.0944
 1159ERGO    C216038  16.024   7.138   8.336 -0.1354 -0.2630  0.0131
 1160ERGO   ROH16039   7.046   1.836   8.804 -0.0687  0.1853  0.0164
 1160ERGO    R116040   6.995   1.969   9.048 -0.1615  0.1129  0.0377
 1160ERGO    R216041   6.870   1.846   9.262 -0.0507 -0.0177  0.0315
 1160ERGO    R316042   7.091   1.928   9.397 -0.1060  0.1423  0.0256
 1160ERGO    R416043   6.896   1.860   9.606 -0.0449 -0.0131  0.0304
 1160ERGO    R516044   7.004   2.049   9.585 -0.1875  0.0684  0.0346
 1160ERGO    C116045   7.119   1.946   9.934 -0.0933  0.1399  0.0241
 1160ERGO    C216046   7.117   1.966  10.257 -0.2938  0.2675 -0.2123
 1161ERGO   ROH16047  13.295   9.338   6.445  0.1924  0.0827 -0.0283
 1161ERGO    R116048  13.305   9.175   6.677  0.2380  0.0826 -0.0295
 1161ERGO    R216049  13.535   9.142   6.826  0.2251  0.2187  0.0268
 1161ERGO    R316050  13.375   9.222   7.030  0.1268  0.1179 -0.0131
 1161ERGO    R416051  13.610   9.106   7.161  0.0187 -0.0184  0.0494
 1161ERGO    R516052  13.402   9.053   7.197 -0.0105  0.0053 -0.1078
 1161ERGO    C116053  13.503   9.161   7.549 -0.1940 -0.2510  0.0251
 1161ERGO    C216054  13.719   9.173   7.876  0.0084  0.0180 -0.0273
 1162ERGO   ROH16055   9.665  10.000   9.843 -0.0336 -0.0282 -0.0208
 1162ERGO    R116056   9.797  10.008   9.592  0.0247  0.0715  0.0124
 1162ERGO    R216057   9.766   9.811   9.401  0.0778  0.1415 -0.0697
 1162ERGO    R316058   9.700  10.021   9.242  0.1060  0.1987 -0.0064
 1162ERGO    R416059   9.813   9.821   9.059 -0.2007  0.1141 -0.1109
 1162ERGO    R516060   9.875  10.030   9.079 -0.0216  0.0667 -0.1543
 1162ERGO    C116061   9.778  10.025   8.710 -0.3363  0.1519 -0.0754
 1162ERGO    C216062   9.802  10.092   8.358 -0.2336  0.4842  0.0304
 1163ERGO   ROH16063  12.981  10.235  10.459  0.0147 -0.0849 -0.0540
 1163ERGO    R116064  13.149  10.116  10.264 -0.0304 -0.1226 -0.0697
 1163ERGO    R216065  13.055   9.933  10.080 -0.1140 -0.0158 -0.1335
 1163ERGO    R316066  13.164  10.106   9.900  0.0046 -0.0250 -0.0715
 1163ERGO    R416067  13.081   9.875   9.740 -0.2136  0.1125 -0.1640
 1163ERGO    R516068  13.280   9.965   9.745 -0.1351 -0.0544 -0.1513
 1163ERGO    C116069  13.198  10.003   9.374 -0.1602  0.1784 -0.1235
 1163ERGO    C216070  13.212   9.945   9.012  0.0932 -0.0928  0.0377
 1164ERGO   ROH16071   3.355   8.247   7.149 -0.0718 -0.0428  0.0933
 1164ERGO    R116072   3.309   8.317   7.420  0.0634  0.0774  0.0878
 1164ERGO    R216073   3.322   8.577   7.511 -0.0063  0.1379 -0.0577
 1164ERGO    R316074   3.073   8.523   7.604  0.0745  0.0590  0.1223
 1164ERGO    R416075   3.168   8.743   7.772  0.0547  0.2184 -0.0735
 1164ERGO    R516076   3.089   8.552   7.841  0.1971  0.2179  0.0951
 1164ERGO    C116077   2.843   8.788   8.011  0.1661  0.1911  0.0862
 1164ERGO    C216078   2.815   8.929   8.268  0.1153 -0.1133  0.2650
 1165ERGO   ROH16079   9.111   3.837   6.685 -0.1152 -0.0677 -0.0783
 1165ERGO    R116080   9.131   3.804   6.966 -0.0563  0.1170 -0.0590
 1165ERGO    R216081   9.192   4.013   7.136 -0.1217  0.2545 -0.1973
 1165ERGO    R316082   8.963   3.937   7.260 -0.0698  0.2287 -0.1174
 1165ERGO    R416083   9.137   4.028   7.477  0.0433  0.1132 -0.1635
 1165ERGO    R516084   9.036   3.836   7.464  0.0156  0.1326 -0.1967
 1165ERGO    C116085   8.890   3.965   7.792  0.1880  0.0069 -0.0689
 1165ERGO    C216086   8.889   3.939   8.207 -0.2110 -0.1604 -0.0261
 1166ERGO   ROH16087  14.908   1.504  10.579 -0.2260 -0.1544  0.0231
 1166ERGO    R116088  14.785   1.610  10.347 -0.1773 -0.2470 -0.0432
 1166ERGO    R216089  14.890   1.824  10.206 -0.2653 -0.1706  0.0266
 1166ERGO    R316090  14.873   1.652   9.996 -0.0183 -0.1720  0.0020
 1166ERGO    R416091  14.883   1.917   9.874 -0.2928 -0.1234  0.0384
 1166ERGO    R516092  14.733   1.764   9.838 -0.1182 -0.3021 -0.0156
 1166ERGO    C116093  14.864   1.810   9.483 -0.0768 -0.0972  0.0223
 1166ERGO    C216094  14.992   1.808   9.097 -0.0550 -0.4494 -0.1274
 1167ERGO   ROH16095  16.085  11.923  10.555 -0.0628 -0.0622  0.0941
 1167ERGO    R116096  15.941  11.880  10.315 -0.0440  0.0137  0.0685
 1167ERGO    R216097  15.917  12.074  10.119  0.1279  0.0134  0.0433
 1167ERGO    R316098  16.015  11.877   9.958  0.0280 -0.0701  0.0842
 1167ERGO    R416099  15.918  12.083   9.773  0.0925 -0.0814  0.0407
 1167ERGO    R516100  15.865  11.872   9.772  0.0053 -0.0586  0.1035
 1167ERGO    C116101  16.011  11.904   9.422 -0.0220 -0.2150  0.0775
 1167ERGO    C216102  15.868  11.834   9.166  0.0881  0.3397  0.0332
 1168ERGO   ROH16103  17.190  16.544  10.824  0.1910 -0.0556  0.0496
 1168ERGO    R116104  17.220  16.681  10.577  0.2185 -0.0638  0.0477
 1168ERGO    R216105  17.460  16.691  10.441  0.1887 -0.2331 -0.0244
 1168ERGO    R316106  17.310  16.593  10.236  0.0537 -0.1146  0.0167
 1168ERGO    R416107  17.517  16.754  10.106  0.1041 -0.2257 -0.0370
 1168ERGO    R516108  17.302  16.772  10.077  0.1051 -0.0900  0.0434
 1168ERGO    C116109  17.410  16.699   9.719 -0.0717 -0.1102 -0.0057
 1168ERGO    C216110  17.370  16.724   9.434 -0.0848  0.0530 -0.1855
 1169ERGO   ROH16111   0.987  14.995  10.698  0.1779 -0.2563 -0.0192
 1169ERGO    R116112   1.045  14.867  10.452  0.1229 -0.0818 -0.1249
 1169ERGO    R216113   0.856  14.835  10.252  0.0043 -0.1683 -0.0011
 1169ERGO    R316114   1.044  14.959  10.100 -0.2260  0.0897 -0.0840
 1169ERGO    R416115   0.862  14.836   9.907 -0.1394 -0.1703 -0.0039
 1169ERGO    R516116   1.078  14.811   9.915 -0.0972  0.1286 -0.0925
 1169ERGO    C116117   1.042  14.952   9.563 -0.4393  0.0710 -0.0834
 1169ERGO    C216118   1.019  14.888   9.277  0.0113  0.1585  0.0089
 1170ERGO   ROH16119   0.758   5.847   7.304  0.1244  0.3810  0.1020
 1170ERGO    R116120   0.742   5.800   7.583  0.0876  0.2737  0.0822
 1170ERGO    R216121   0.883   5.949   7.768  0.1280  0.1489  0.1540
 1170ERGO    R316122   0.637   5.986   7.877  0.1335  0.1923  0.1508
 1170ERGO    R416123   0.815   5.946   8.106  0.0991 -0.0015  0.1471
 1170ERGO    R516124   0.631   5.836   8.064  0.0568  0.0953  0.0723
 1170ERGO    C116125   0.544   5.979   8.407  0.0874 -0.0483  0.1401
 1170ERGO    C216126   0.644   6.172   8.698 -0.1078  0.4994  0.1474
 1171ERGO   ROH16127  13.158  14.566   6.625  0.3610 -0.0862  0.2639
 1171ERGO    R116128  13.159  14.710   6.868 -0.1130  0.2614  0.0762
 1171ERGO    R216129  12.928  14.786   6.997 -0.4009 -0.5025  0.0542
 1171ERGO    R316130  13.040  14.656   7.208  0.2385  0.2069  0.1968
 1171ERGO    R416131  12.822  14.817   7.325 -0.6917 -0.7767 -0.0078
 1171ERGO    R516132  13.032  14.817   7.386 -0.6495  0.3575  0.0737
 1171ERGO    C116133  12.866  14.713   7.714 -0.2608 -0.2704  0.0900
 1171ERGO    C216134  12.629  14.583   7.807  0.0203  0.0972 -0.0319
 1172ERGO   ROH16135   8.736   9.909  10.118 -0.1727  0.1074  0.0535
 1172ERGO    R116136   8.642   9.827   9.863 -0.1369  0.2582 -0.0102
 1172ERGO    R216137   8.627   9.999   9.647  0.1703  0.3190  0.0063
 1172ERGO    R316138   8.777   9.808   9.526  0.0200  0.1670  0.0579
 1172ERGO    R416139   8.683   9.979   9.307 -0.0238  0.0420 -0.0118
 1172ERGO    R516140   8.661   9.763   9.321 -0.1085  0.0649  0.1561
 1172ERGO    C116141   8.856   9.788   8.995 -0.2778 -0.2621  0.0262
 1172ERGO    C216142   8.879   9.844   8.676 -0.1042 -0.3235  0.0532
 1173ERGO   ROH16143   9.288   5.789   6.473  0.0285 -0.0050 -0.0717
 1173ERGO    R116144   9.414   5.898   6.702  0.0130 -0.0689 -0.0323
 1173ERGO    R216145   9.279   6.057   6.884  0.0175 -0.0631 -0.0317
 1173ERGO    R316146   9.370   5.875   7.063 -0.0589 -0.1131 -0.0439
 1173ERGO    R416147   9.270   6.096   7.227  0.0256 -0.0880 -0.0290
 1173ERGO    R516148   9.468   6.006   7.237 -0.0111 -0.1669 -0.0313
 1173ERGO    C116149   9.350   5.947   7.595 -0.0416 -0.1494 -0.0389
 1173ERGO    C216150   9.488   6.020   7.910  0.1182  0.2488 -0.2613
 1174ERGO   ROH16151   1.148   9.482   7.068  0.1222  0.0983  0.1706
 1174ERGO    R116152   1.169   9.420   7.343 -0.1191  0.0445  0.1801
 1174ERGO    R216153   0.966   9.297   7.484 -0.1639 -0.1823 -0.0711
 1174ERGO    R316154   1.162   9.119   7.548 -0.0658 -0.0192  0.0885
 1174ERGO    R416155   0.940   9.052   7.728 -0.1020 -0.1090  0.0093
 1174ERGO    R516156   1.146   9.095   7.786 -0.1592  0.0599  0.0897
 1174ERGO    C116157   1.108   8.744   7.929  0.0261  0.0868  0.2058
 1174ERGO    C216158   0.855   8.708   8.093 -0.2763  0.0164 -0.5234
 1175ERGO   ROH16159  13.293   8.288   7.631 -0.1029  0.0768 -0.2791
 1175ERGO    R116160  13.491   8.481   7.687 -0.0091 -0.0400 -0.2022
 1175ERGO    R216161  13.549   8.566   7.943 -0.1540  0.0247 -0.1884
 1175ERGO    R316162  13.803   8.494   7.875 -0.1475 -0.1841  0.0408
 1175ERGO    R416163  13.835   8.666   8.111 -0.1940  0.1780 -0.2106
 1175ERGO    R516164  13.933   8.690   7.918 -0.0926 -0.1643 -0.2076
 1175ERGO    C116165  14.238   8.657   8.144 -0.2110  0.0711 -0.0083
 1175ERGO    C216166  14.447   8.801   8.251  0.0613  0.1982  0.1818
 1176ERGO   ROH16167   6.062  16.311   7.074 -0.0269  0.0921  0.2022
 1176ERGO    R116168   6.130  16.362   7.344  0.0597 -0.0746  0.2138
 1176ERGO    R216169   6.352  16.251   7.465  0.1815 -0.0397  0.0337
 1176ERGO    R316170   6.411  16.510   7.522  0.0509 -0.0459  0.2013
 1176ERGO    R416171   6.590  16.353   7.694  0.4560 -0.0671 -0.2324
 1176ERGO    R516172   6.453  16.511   7.758  0.4196 -0.2462  0.1402
 1176ERGO    C116173   6.784  16.656   7.881  0.4931 -0.0888 -0.2301
 1176ERGO    C216174   7.004  16.713   8.175  0.0536 -0.0349 -0.1251
 1177ERGO   ROH16175  17.535  11.533   6.739  0.0821 -0.0852 -0.0384
 1177ERGO    R116176  17.620  11.407   6.978  0.0304  0.0016  0.0256
 1177ERGO    R216177  17.828  11.504   7.132  0.0274  0.0288  0.0070
 1177ERGO    R316178  17.642  11.496   7.330  0.0052  0.1462 -0.0078
 1177ERGO    R416179  17.897  11.524   7.470  0.0345 -0.1635  0.0180
 1177ERGO    R516180  17.746  11.371   7.505 -0.1267 -0.0268 -0.0465
 1177ERGO    C116181  17.763  11.527   7.853  0.0179 -0.1652  0.0106
 1177ERGO    C216182  17.863  11.560   8.136 -0.0427  0.1179 -0.2146
 1178ERGO   ROH16183  11.376   9.833   6.261  0.1282  0.1365  0.0267
 1178ERGO    R116184  11.156   9.807   6.437  0.1422  0.2374  0.0595
 1178ERGO    R216185  11.101   9.572   6.573 -0.0450  0.2058 -0.0695
 1178ERGO    R316186  11.107   9.735   6.790  0.1556  0.0721  0.0287
 1178ERGO    R416187  10.898   9.539   6.851 -0.1737  0.3579 -0.1425
 1178ERGO    R516188  10.878   9.755   6.856  0.1647  0.3935 -0.0214
 1178ERGO    C116189  10.786   9.672   7.217 -0.0601  0.3210 -0.0927
 1178ERGO    C216190  10.699   9.518   7.501  0.1478  0.0985  0.2699
 1179ERGO   ROH16191   7.288   7.164  10.355  0.2230 -0.0934  0.0998
 1179ERGO    R116192   7.317   7.033  10.106 -0.0056 -0.0278  0.0358
 1179ERGO    R216193   7.113   7.018   9.920 -0.0639  0.3402  0.0644
 1179ERGO    R316194   7.300   7.126   9.754  0.0600  0.1532  0.0788
 1179ERGO    R416195   7.104   7.003   9.575 -0.0178  0.2886  0.0652
 1179ERGO    R516196   7.319   6.969   9.575 -0.0442  0.1036  0.1089
 1179ERGO    C116197   7.274   7.096   9.219  0.1253  0.0831  0.0792
 1179ERGO    C216198   7.277   7.042   8.953  0.0829 -0.1639  0.0599
 1180ERGO   ROH16199  11.712  12.472  10.104 -0.0995 -0.2062  0.0335
 1180ERGO    R116200  11.810  12.381   9.854 -0.1256 -0.1508  0.0026
 1180ERGO    R216201  11.645  12.277   9.658 -0.1418 -0.1502  0.0124
 1180ERGO    R316202  11.762  12.468   9.504 -0.2009 -0.1038  0.0253
 1180ERGO    R416203  11.665  12.269   9.313 -0.1090 -0.1291  0.0139
 1180ERGO    R516204  11.868  12.346   9.328 -0.1420 -0.0556  0.0306
 1180ERGO    C116205  11.786  12.443   8.968 -0.1453 -0.0734  0.0267
 1180ERGO    C216206  11.868  12.517   8.671 -0.2453  0.0967  0.0209
 1181ERGO   ROH16207  16.412   1.850  10.503 -0.0729 -0.3050 -0.1866
 1181ERGO    R116208  16.340   1.756  10.246 -0.1001 -0.0456 -0.2761
 1181ERGO    R216209  16.230   1.921  10.053  0.1561  0.2174 -0.2022
 1181ERGO    R316210  16.435   1.827   9.902  0.0966  0.0773 -0.1984
 1181ERGO    R416211  16.223   1.886   9.709  0.0670  0.0372 -0.1833
 1181ERGO    R516212  16.330   1.697   9.731  0.0183  0.0158 -0.1064
 1181ERGO    C116213  16.412   1.777   9.368 -0.0408 -0.1993 -0.1688
 1181ERGO    C216214  16.474   1.693   9.043  0.3336 -0.0757 -0.1093
 1182ERGO   ROH16215   8.492   8.160  10.008  0.0680  0.0422  0.0971
 1182ERGO    R116216   8.562   8.063   9.751  0.1411  0.1109  0.0910
 1182ERGO    R216217   8.372   7.989   9.563  0.1977 -0.0965  0.1192
 1182ERGO    R316218   8.508   8.166   9.407 -0.0109  0.0440  0.0922
 1182ERGO    R416219   8.378   7.986   9.217  0.2141 -0.1742  0.1200
 1182ERGO    R516220   8.589   8.035   9.224  0.1632  0.0943  0.1246
 1182ERGO    C116221   8.509   8.149   8.870  0.0277 -0.0876  0.0950
 1182ERGO    C216222   8.585   8.075   8.493 -0.0008 -0.2918 -0.2980
 1183ERGO   ROH16223  10.529  13.281   6.583 -0.1770 -0.0844  0.0293
 1183ERGO    R116224  10.597  13.428   6.815  0.0837 -0.1011 -0.0365
 1183ERGO    R216225  10.424  13.459   7.028  0.1294  0.3104 -0.0607
 1183ERGO    R316226  10.633  13.359   7.170 -0.0526 -0.0050 -0.0019
 1183ERGO    R416227  10.519  13.569   7.341 -0.0210 -0.0869  0.1331
 1183ERGO    R516228  10.728  13.551   7.279  0.0186 -0.1838  0.2707
 1183ERGO    C116229  10.771  13.540   7.658 -0.2794 -0.6143  0.3010
 1183ERGO    C216230  10.774  13.487   8.077 -0.2062 -0.0908 -0.0892
 1184ERGO   ROH16231  14.918   8.511   8.354 -0.1194 -0.0912  0.2524
 1184ERGO    R116232  15.130   8.413   8.513  0.1019  0.0554  0.0536
 1184ERGO    R216233  15.350   8.284   8.406  0.0731  0.1744 -0.1502
 1184ERGO    R316234  15.488   8.474   8.543  0.1008  0.2736 -0.3124
 1184ERGO    R416235  15.693   8.324   8.396  0.1326 -0.2028  0.1801
 1184ERGO    R516236  15.689   8.363   8.611 -0.0873  0.1717  0.1188
 1184ERGO    C116237  16.023   8.525   8.520  0.1933 -0.3293  0.2202
 1184ERGO    C216238  16.158   8.608   8.380  0.1887 -0.5457  0.0853
 1185ERGO   ROH16239   0.947  17.034   6.773 -0.5390 -0.0040  0.0241
 1185ERGO    R116240   0.935  16.932   7.036 -0.1425 -0.0287  0.0391
 1185ERGO    R216241   1.161  16.890   7.190  0.0703  0.3380 -0.1522
 1185ERGO    R316242   1.029  17.046   7.369 -0.0365  0.1263 -0.0442
 1185ERGO    R416243   1.252  16.933   7.521  0.0467  0.1944 -0.1273
 1185ERGO    R516244   1.041  16.925   7.575  0.0579  0.0060 -0.1232
 1185ERGO    C116245   1.180  17.104   7.881 -0.0673 -0.0879 -0.0116
 1185ERGO    C216246   1.296  17.282   8.239  0.2538  0.1274  0.0299
 1186ERGO   ROH16247  16.484  10.459  10.491 -0.0635  0.1374  0.0517
 1186ERGO    R116248  16.346  10.393  10.253 -0.0325 -0.0223  0.0768
 1186ERGO    R216249  16.314  10.571  10.044 -0.2334 -0.0734  0.0590
 1186ERGO    R316250  16.426  10.371   9.898 -0.0574  0.0164  0.0693
 1186ERGO    R416251  16.318  10.557   9.699 -0.2638 -0.1135  0.0608
 1186ERGO    R516252  16.278  10.343   9.712 -0.0542 -0.1513  0.0924
 1186ERGO    C116253  16.426  10.360   9.361 -0.1161 -0.0527  0.0715
 1186ERGO    C216254  16.465  10.292   8.992 -0.3740 -0.1257 -0.1126
 1187ERGO   ROH16255  16.859   9.555  10.658  0.0404 -0.0833  0.0397
 1187ERGO    R116256  17.016   9.553  10.423 -0.0154 -0.1577  0.0027
 1187ERGO    R216257  16.944   9.409  10.198 -0.1458 -0.1122  0.0127
 1187ERGO    R316258  16.971   9.650  10.075 -0.0474 -0.1200  0.0180
 1187ERGO    R416259  16.979   9.453   9.857 -0.1025 -0.1132  0.0165
 1187ERGO    R516260  17.127   9.608   9.897 -0.0501 -0.1703  0.0299
 1187ERGO    C116261  17.024   9.704   9.542  0.0151 -0.1210  0.0239
 1187ERGO    C216262  17.003   9.728   9.215  0.2580  0.1415 -0.1851
 1188ERGO   ROH16263  14.232   6.192   6.705  0.0030  0.1949  0.0099
 1188ERGO    R116264  14.350   6.257   6.954 -0.0078  0.1439  0.0278
 1188ERGO    R216265  14.319   6.504   7.074 -0.1622  0.0579  0.1627
 1188ERGO    R316266  14.234   6.355   7.284 -0.0298 -0.1119  0.0991
 1188ERGO    R416267  14.342   6.599   7.405 -0.1903 -0.0857  0.2068
 1188ERGO    R516268  14.397   6.394   7.455 -0.0339 -0.0758  0.0983
 1188ERGO    C116269  14.276   6.514   7.796 -0.0824 -0.3288  0.1730
 1188ERGO    C216270  14.100   6.444   8.151 -0.2159  0.0051  0.0922
 1189ERGO   ROH16271  11.994   9.908  10.353 -0.1430 -0.2166 -0.1017
 1189ERGO    R116272  11.982  10.116  10.161 -0.0329 -0.1208 -0.0063
 1189ERGO    R216273  12.193  10.175   9.992 -0.0599 -0.2665 -0.0908
 1189ERGO    R316274  12.006  10.142   9.798 -0.1984  0.0097 -0.0096
 1189ERGO    R416275  12.231  10.272   9.663 -0.0894 -0.2429 -0.0873
 1189ERGO    R516276  12.024  10.340   9.664 -0.0102  0.0209  0.0258
 1189ERGO    C116277  12.077  10.297   9.289 -0.2366  0.0303 -0.0090
 1189ERGO    C216278  12.238  10.259   9.013  0.0891 -0.0720  0.0251
 1190ERGO   ROH16279   5.923   4.317   6.890 -0.0914 -0.0232 -0.0508
 1190ERGO    R116280   5.917   4.144   7.114 -0.3016  0.0071 -0.0287
 1190ERGO    R216281   6.135   4.108   7.281 -0.3060 -0.3051 -0.0685
 1190ERGO    R316282   5.957   4.177   7.474 -0.1672 -0.0042 -0.0450
 1190ERGO    R416283   6.118   3.964   7.594 -0.2928 -0.0158  0.0660
 1190ERGO    R516284   5.901   3.970   7.580 -0.2859  0.1388  0.1603
 1190ERGO    C116285   5.941   3.946   7.959 -0.1549  0.4351  0.1664
 1190ERGO    C216286   6.014   3.907   8.233  0.1797  0.1678  0.1722
 1191ERGO   ROH16287   6.511   5.897   6.591 -0.3099  0.2530 -0.1678
 1191ERGO    R116288   6.547   6.010   6.848 -0.2395  0.2435 -0.1733
 1191ERGO    R216289   6.377   6.200   6.952 -0.3808  0.0280 -0.0040
 1191ERGO    R316290   6.359   6.025   7.159 -0.0183 -0.0357 -0.0203
 1191ERGO    R416291   6.306   6.288   7.279 -0.6272 -0.1449 -0.0084
 1191ERGO    R516292   6.455   6.143   7.344 -0.3021  0.1754  0.0015
 1191ERGO    C116293   6.248   6.175   7.663 -0.4304 -0.3053 -0.0262
 1191ERGO    C216294   6.316   6.274   7.988  0.1363 -0.1075  0.0481
 1192ERGO   ROH16295   7.566  15.755   6.970  0.2941 -0.0723 -0.1408
 1192ERGO    R116296   7.671  15.929   7.168  0.1303 -0.0417 -0.0797
 1192ERGO    R216297   7.641  15.881   7.439  0.0565 -0.0933 -0.0977
 1192ERGO    R316298   7.912  15.904   7.440  0.0456  0.0515  0.0044
 1192ERGO    R416299   7.833  15.936   7.720 -0.0722 -0.0460 -0.0173
 1192ERGO    R516300   7.957  16.072   7.604 -0.1026  0.0437  0.0547
 1192ERGO    C116301   8.200  15.988   7.886 -0.1575  0.1175  0.1253
 1192ERGO    C216302   8.191  15.941   8.262 -0.3112  0.2282 -0.0662
 1193ERGO   ROH16303   8.809  11.778  10.524 -0.0122 -0.0871  0.0063
 1193ERGO    R116304   8.652  11.727  10.294  0.0029 -0.0265 -0.0169
 1193ERGO    R216305   8.553  11.929  10.133  0.1048  0.0096 -0.0292
 1193ERGO    R316306   8.678  11.789   9.936  0.0782 -0.0365 -0.0141
 1193ERGO    R416307   8.533  12.002   9.796  0.2240  0.0640 -0.0255
 1193ERGO    R516308   8.521  11.788   9.756  0.1174  0.0712 -0.0530
 1193ERGO    C116309   8.638  11.913   9.415  0.2684  0.0525 -0.0092
 1193ERGO    C216310   8.556  11.909   9.090 -0.0639  0.2796  0.0751
 1194ERGO   ROH16311  11.562  11.896   6.334 -0.0100  0.1944  0.1119
 1194ERGO    R116312  11.461  11.710   6.522  0.1109  0.0256  0.0126
 1194ERGO    R216313  11.619  11.594   6.716  0.1398  0.2027  0.0965
 1194ERGO    R316314  11.428  11.691   6.884 -0.1043 -0.0776 -0.0107
 1194ERGO    R416315  11.550  11.469   7.031  0.1623  0.1159  0.0672
 1194ERGO    R516316  11.338  11.496   6.990  0.1364 -0.2135 -0.0483
 1194ERGO    C116317  11.331  11.487   7.372 -0.0537 -0.1979 -0.0504
 1194ERGO    C216318  11.418  11.632   7.688  0.0087  0.1530  0.1873
 1195ERGO   ROH16319  16.597   9.677   6.919 -0.1389 -0.1088 -0.0011
 1195ERGO    R116320  16.744   9.754   7.148 -0.1145 -0.1219 -0.0113
 1195ERGO    R216321  16.640   9.924   7.341 -0.0281  0.0185 -0.0805
 1195ERGO    R316322  16.706   9.721   7.509 -0.1825  0.0301 -0.0049
 1195ERGO    R416323  16.673   9.953   7.684 -0.3801  0.0211 -0.0433
 1195ERGO    R516324  16.847   9.823   7.673 -0.3609  0.0392  0.1393
 1195ERGO    C116325  16.755   9.779   8.041 -0.7301  0.0335  0.0492
 1195ERGO    C216326  16.708   9.835   8.331  0.1433  0.0560 -0.1525
 1196ERGO   ROH16327  11.574   4.780   6.713  0.0790 -0.0829  0.0302
 1196ERGO    R116328  11.534   4.847   6.985  0.1320 -0.2068  0.0690
 1196ERGO    R216329  11.717   4.994   7.131  0.0824 -0.1292  0.0517
 1196ERGO    R316330  11.501   5.152   7.180 -0.0119 -0.2969  0.1888
 1196ERGO    R416331  11.704   5.241   7.372  0.0920 -0.0594 -0.0191
 1196ERGO    R516332  11.501   5.179   7.418  0.1808 -0.2205  0.1842
 1196ERGO    C116333  11.495   5.533   7.559  0.0091 -0.1761  0.0684
 1196ERGO    C216334  11.700   5.635   7.742 -0.1078  0.2003 -0.0994
 1197ERGO   ROH16335   4.520  11.120   6.795 -0.1748  0.2841  0.2496
 1197ERGO    R116336   4.446  11.193   7.059 -0.2445 -0.0439  0.3254
 1197ERGO    R216337   4.331  11.014   7.235 -0.0299 -0.3489  0.1756
 1197ERGO    R316338   4.536  11.090   7.396 -0.1013 -0.2566  0.2225
 1197ERGO    R416339   4.336  10.979   7.579 -0.1290 -0.2343  0.1886
 1197ERGO    R516340   4.430  11.175   7.592 -0.1768 -0.2169  0.1587
 1197ERGO    C116341   4.532  11.030   7.930 -0.2538 -0.0809  0.2402
 1197ERGO    C216342   4.469  10.966   8.280 -0.1200  0.1952  0.0746
 1198ERGO   ROH16343  11.451   6.227   6.438  0.0805 -0.1853  0.1202
 1198ERGO    R116344  11.293   6.299   6.661  0.0786 -0.0463  0.0743
 1198ERGO    R216345  11.202   6.114   6.845 -0.0424  0.0515  0.1063
 1198ERGO    R316346  11.323   6.278   7.024  0.0044  0.0391  0.0874
 1198ERGO    R416347  11.179   6.083   7.188 -0.0124  0.0530  0.1091
 1198ERGO    R516348  11.164   6.300   7.201  0.0205  0.0626  0.1058
 1198ERGO    C116349  11.279   6.219   7.556  0.0490  0.0423  0.0929
 1198ERGO    C216350  11.114   6.095   7.808 -0.0353 -0.0900 -0.0402
 1199ERGO   ROH16351   8.702  12.167   6.822  0.1004 -0.1083  0.0194
 1199ERGO    R116352   8.577  12.156   7.076  0.0218 -0.0701 -0.0169
 1199ERGO    R216353   8.583  11.930   7.235  0.0411 -0.0221  0.0554
 1199ERGO    R316354   8.681  12.103   7.420 -0.0708  0.0669  0.0323
 1199ERGO    R416355   8.582  11.875   7.576  0.0033  0.0661  0.0695
 1199ERGO    R516356   8.529  12.084   7.605 -0.0946  0.0474  0.0078
 1199ERGO    C116357   8.673  12.004   7.949 -0.1239  0.2009  0.0561
 1199ERGO    C216358   8.760  11.730   8.265  0.1407 -0.0164  0.1212
 1200ERGO   ROH16359  17.441   1.983   6.800 -0.0202  0.4058  0.0113
 1200ERGO    R116360  17.350   1.965   7.067 -0.0639  0.2892 -0.0103
 1200ERGO    R216361  17.443   1.774   7.243 -0.0346  0.2592 -0.0545
 1200ERGO    R316362  17.498   1.990   7.399 -0.1310  0.2277  0.0237
 1200ERGO    R416363  17.486   1.765   7.586  0.0688  0.1418 -0.0701
 1200ERGO    R516364  17.374   1.952   7.600 -0.0479  0.0622  0.0427
 1200ERGO    C116365  17.562   1.963   7.932  0.0383  0.0438 -0.0056
 1200ERGO    C216366  17.646   1.746   8.163  0.0959 -0.1581  0.0468
 1201ERGO   ROH16367  16.137   6.793   6.738 -0.0694  0.0527 -0.1100
 1201ERGO    R116368  16.034   6.866   6.991  0.0395 -0.0055 -0.0500
 1201ERGO    R216369  15.774   6.951   7.027  0.1345  0.2377  0.0360
 1201ERGO    R316370  15.768   6.751   7.211 -0.0501  0.1245 -0.0868
 1201ERGO    R416371  15.601   6.962   7.326  0.0906  0.1910  0.0144
 1201ERGO    R516372  15.770   6.864   7.422  0.0038 -0.0016 -0.0144
 1201ERGO    C116373  15.495   6.781   7.673 -0.1083  0.0575 -0.1132
 1201ERGO    C216374  15.301   6.513   7.909 -0.1036  0.3354 -0.0848
 1202ERGO   ROH16375   0.675   0.411   8.761  0.1228  0.0453  0.0845
 1202ERGO    R116376   0.501   0.333   8.551  0.0924  0.1524  0.0691
 1202ERGO    R216377   0.351   0.100   8.561  0.1360  0.1212 -0.0512
 1202ERGO    R316378   0.145   0.270   8.513  0.0943  0.1155  0.1017
 1202ERGO    R416379   0.051   0.009   8.416  0.1435  0.1592 -0.0902
 1202ERGO    R516380   0.055   0.196   8.303  0.0913  0.2516  0.0502
 1202ERGO    C116381  -0.317   0.116   8.285  0.1087  0.1759  0.0307
 1202ERGO    C216382  -0.663   0.164   8.130 -0.1291 -0.0594 -0.1260
 1203ERGO   ROH16383   9.887  11.947  10.398  0.1156  0.0577  0.0012
 1203ERGO    R116384   9.988  12.031  10.148  0.1724  0.0147  0.0088
 1203ERGO    R216385  10.139  11.867   9.985 -0.0514 -0.1189 -0.0703
 1203ERGO    R316386   9.950  11.931   9.800 -0.0120  0.1641 -0.0150
 1203ERGO    R416387  10.190  11.869   9.643 -0.1099 -0.0534 -0.0783
 1203ERGO    R516388  10.071  12.052   9.631  0.0953  0.0882  0.0082
 1203ERGO    C116389  10.042  11.932   9.270 -0.1070  0.2505 -0.0311
 1203ERGO    C216390   9.951  12.017   8.903  0.0084  0.0906  0.1065
 1204ERGO   ROH16391   4.292   4.807   7.074 -0.0447 -0.2686  0.0148
 1204ERGO    R116392   4.533   4.811   7.222 -0.0253 -0.1325 -0.0180
 1204ERGO    R216393   4.548   4.912   7.479  0.0013  0.0734 -0.0946
 1204ERGO    R316394   4.654   4.668   7.534  0.0229  0.1228  0.0816
 1204ERGO    R416395   4.641   4.805   7.794 -0.1552  0.2356  0.0082
 1204ERGO    R516396   4.817   4.712   7.704 -0.0860  0.2330  0.1550
 1204ERGO    C116397   4.795   4.513   8.029 -0.2260  0.3765  0.2335
 1204ERGO    C216398   4.684   4.372   8.280  0.2819 -0.1257  0.0855
 1205ERGO   ROH16399  17.437  11.163  10.462  0.1868  0.0569 -0.0154
 1205ERGO    R116400  17.347  11.048  10.219 -0.0293  0.1953 -0.0032
 1205ERGO    R216401  17.133  11.149  10.077  0.0700  0.4988  0.0568
 1205ERGO    R316402  17.312  11.154   9.873  0.0315  0.2705  0.0136
 1205ERGO    R416403  17.051  11.124   9.742 -0.0091  0.3113  0.0877
 1205ERGO    R516404  17.226  10.997   9.714 -0.0790  0.2045  0.1371
 1205ERGO    C116405  17.172  11.116   9.356 -0.0915 -0.0122  0.0651
 1205ERGO    C216406  17.149  11.070   9.090  0.0495 -0.0713  0.0323
 1206ERGO   ROH16407   9.512  17.346   6.839 -0.0894  0.0107  0.0346
 1206ERGO    R116408   9.341  17.354   7.064 -0.0011  0.0429  0.1009
 1206ERGO    R216409   9.401  17.227   7.302  0.0350 -0.0249  0.0544
 1206ERGO    R316410   9.361  17.474   7.407  0.1778 -0.0269  0.1167
 1206ERGO    R416411   9.374  17.297   7.639  0.0245 -0.1075  0.0708
 1206ERGO    R516412   9.215  17.437   7.593  0.1210  0.0115  0.0822
 1206ERGO    C116413   9.321  17.570   7.934  0.1526 -0.1576  0.1389
 1206ERGO    C216414   9.452  17.655   8.328 -0.2615 -0.1079 -0.0828
 1207ERGO   ROH16415  10.273   5.487   6.524  0.0442  0.1866 -0.2502
 1207ERGO    R116416  10.245   5.450   6.803  0.0802  0.0548 -0.2640
 1207ERGO    R216417  10.448   5.508   6.981  0.0498  0.1168 -0.2503
 1207ERGO    R316418  10.257   5.660   7.100 -0.0469 -0.0573 -0.1787
 1207ERGO    R416419  10.457   5.613   7.311  0.1433  0.2339 -0.2888
 1207ERGO    R516420  10.242   5.573   7.323  0.1927 -0.0029 -0.1390
 1207ERGO    C116421  10.282   5.817   7.614  0.1068  0.1387 -0.2440
 1207ERGO    C216422  10.162   5.953   7.930 -0.0802  0.2803 -0.2782
 1208ERGO   ROH16423   0.805   2.863   7.028 -0.1757 -0.0693 -0.0551
 1208ERGO    R116424   0.832   3.013   7.266 -0.1334  0.0703 -0.1479
 1208ERGO    R216425   0.670   3.229   7.325 -0.3700 -0.1277 -0.0779
 1208ERGO    R316426   0.625   3.091   7.555  0.0564 -0.0917  0.0369
 1208ERGO    R416427   0.542   3.367   7.615 -0.3033 -0.1732 -0.0257
 1208ERGO    R516428   0.684   3.246   7.729 -0.0043  0.0891 -0.0954
 1208ERGO    C116429   0.425   3.318   8.000  0.1358 -0.1660  0.1123
 1208ERGO    C216430   0.307   3.564   8.217 -0.2006 -0.0444 -0.2115
 1209ERGO   ROH16431  15.052   9.157  10.575  0.0207  0.3086 -0.0645
 1209ERGO    R116432  14.972   9.233  10.314 -0.0435  0.2312 -0.0692
 1209ERGO    R216433  15.099   9.432  10.171 -0.1001  0.2224 -0.1494
 1209ERGO    R316434  15.121   9.238   9.983 -0.1051  0.1709 -0.0951
 1209ERGO    R416435  15.138   9.489   9.833  0.1636  0.1107 -0.1393
 1209ERGO    R516436  15.001   9.324   9.794  0.0839  0.2024 -0.1940
 1209ERGO    C116437  15.181   9.340   9.458  0.3126 -0.0026 -0.0824
 1209ERGO    C216438  15.237   9.273   9.152  0.0978  0.1217  0.1146
 1210ERGO   ROH16439   2.416   5.110   7.097  0.1679  0.3271  0.0302
 1210ERGO    R116440   2.253   5.013   7.308  0.0043  0.2064 -0.1482
 1210ERGO    R216441   2.338   5.007   7.571 -0.1381 -0.0908 -0.1063
 1210ERGO    R316442   2.110   5.148   7.614 -0.0898 -0.0141 -0.0924
 1210ERGO    R416443   2.142   4.983   7.854 -0.0657  0.0565 -0.0422
 1210ERGO    R516444   1.965   4.994   7.727 -0.1000  0.0596  0.0006
 1210ERGO    C116445   1.814   5.100   8.060  0.0217  0.2142  0.0082
 1210ERGO    C216446   1.863   5.039   8.486  0.0933 -0.0256  0.1204
 1211ERGO   ROH16447  17.600  16.925   6.807 -0.1394 -0.1283 -0.0161
 1211ERGO    R116448  17.674  16.850   7.070 -0.1290  0.0141  0.0209
 1211ERGO    R216449  17.731  17.036   7.266 -0.3033  0.1214 -0.0334
 1211ERGO    R316450  17.541  16.900   7.405 -0.2231  0.0243 -0.0163
 1211ERGO    R416451  17.715  17.015   7.611 -0.1391 -0.0547 -0.0343
 1211ERGO    R516452  17.660  16.805   7.590 -0.1211 -0.0559 -0.1170
 1211ERGO    C116453  17.528  16.874   7.942  0.0316 -0.2484 -0.0188
 1211ERGO    C216454  17.605  16.891   8.236  0.0758 -0.0052 -0.0338
 1212ERGO   ROH16455   2.146   9.754   7.174  0.4174  0.1321  0.1201
 1212ERGO    R116456   1.987   9.733   7.407  0.3401  0.0155  0.0588
 1212ERGO    R216457   2.096   9.710   7.660  0.2588  0.1124  0.1031
 1212ERGO    R316458   1.940   9.926   7.712  0.0661 -0.0091  0.0351
 1212ERGO    R416459   1.974   9.796   7.972  0.3269  0.1846  0.1095
 1212ERGO    R516460   1.785   9.849   7.878  0.2223 -0.0644  0.1609
 1212ERGO    C116461   1.756  10.048   8.202  0.1856  0.1127  0.0493
 1212ERGO    C216462   1.493  10.101   8.474 -0.0353 -0.5127  0.1199
 1213ERGO   ROH16463   1.892   0.106   6.805 -0.0471  0.2232 -0.2407
 1213ERGO    R116464   1.781   0.133   7.063 -0.0397  0.0388 -0.2176
 1213ERGO    R216465   1.898   0.023   7.288  0.1064  0.0984 -0.2684
 1213ERGO    R316466   1.884   0.277   7.381 -0.1447  0.0609 -0.1919
 1213ERGO    R416467   1.789   0.112   7.604  0.2671 -0.1326 -0.1438
 1213ERGO    R516468   1.685   0.281   7.515 -0.0390 -0.2382 -0.0109
 1213ERGO    C116469   1.713   0.403   7.875  0.1250 -0.3023  0.0004
 1213ERGO    C216470   1.542   0.342   8.134 -0.3612 -0.1977 -0.0160
 1214ERGO   ROH16471  10.564  12.229   6.640  0.1215  0.2644  0.1322
 1214ERGO    R116472  10.542  12.293   6.915  0.0499  0.0509  0.1786
 1214ERGO    R216473  10.366  12.164   7.084  0.0107 -0.0883  0.0366
 1214ERGO    R316474  10.590  12.120   7.231 -0.0242 -0.1942  0.0577
 1214ERGO    R416475  10.380  12.168   7.430  0.0457  0.2430  0.0349
 1214ERGO    R516476  10.571  12.271   7.416  0.1626  0.0155 -0.0900
 1214ERGO    C116477  10.599  12.127   7.768  0.0333  0.3364  0.0536
 1214ERGO    C216478  10.594  12.061   8.038  0.3834 -0.0433 -0.1510
 1215ERGO   ROH16479  12.095   6.619  10.037  0.0168  0.1684  0.1161
 1215ERGO    R116480  12.020   6.574   9.767  0.0606  0.0559  0.1220
 1215ERGO    R216481  12.053   6.765   9.570 -0.0186  0.0184  0.0703
 1215ERGO    R316482  12.188   6.565   9.445  0.0918  0.0497  0.1391
 1215ERGO    R416483  12.153   6.772   9.240 -0.1114 -0.0860  0.0392
 1215ERGO    R516484  12.097   6.562   9.223  0.0360 -0.1344  0.1651
 1215ERGO    C116485  12.339   6.589   8.929 -0.0619 -0.1174  0.0859
 1215ERGO    C216486  12.372   6.834   8.600  0.0151 -0.2069  0.1637
 1216ERGO   ROH16487  14.413  11.593   6.967  0.1583 -0.1767 -0.0728
 1216ERGO    R116488  14.264  11.474   7.175  0.1143 -0.1812 -0.1065
 1216ERGO    R216489  14.383  11.351   7.392  0.0689 -0.1281 -0.0501
 1216ERGO    R316490  14.225  11.521   7.534 -0.0140 -0.1422 -0.1252
 1216ERGO    R416491  14.284  11.303   7.720 -0.0184 -0.0970 -0.0717
 1216ERGO    R516492  14.087  11.378   7.667 -0.0198 -0.1525 -0.1433
 1216ERGO    C116493  14.079  11.434   8.044 -0.1470 -0.0922 -0.1548
 1216ERGO    C216494  14.133  11.289   8.367  0.0884 -0.0443  0.0315
 1217ERGO   ROH16495  13.069  11.016   6.889  0.0117 -0.1089  0.1812
 1217ERGO    R116496  12.890  10.971   7.103 -0.0000 -0.0113  0.1953
 1217ERGO    R216497  12.954  10.812   7.321 -0.0598 -0.0286  0.2162
 1217ERGO    R316498  12.887  11.034   7.462  0.0534  0.0219  0.1865
 1217ERGO    R416499  12.865  10.816   7.654  0.0567  0.0991  0.2446
 1217ERGO    R516500  12.712  10.963   7.607  0.0910  0.1225  0.2666
 1217ERGO    C116501  12.749  11.027   7.981  0.2307  0.2209  0.2333
 1217ERGO    C216502  12.698  11.220   8.310  0.2373 -0.0063 -0.0204
 1218ERGO   ROH16503  14.619  11.980  10.701  0.0054  0.1008  0.0522
 1218ERGO    R116504  14.656  12.064  10.433 -0.0198  0.1194  0.0539
 1218ERGO    R216505  14.820  11.930  10.256  0.1361  0.2532  0.0895
 1218ERGO    R316506  14.596  11.926  10.102  0.1637  0.0445  0.0524
 1218ERGO    R416507  14.819  11.912   9.911  0.1930 -0.0069  0.1008
 1218ERGO    R516508  14.655  12.056   9.909  0.1366 -0.0778 -0.0358
 1218ERGO    C116509  14.608  11.898   9.565  0.2522 -0.3542  0.0725
 1218ERGO    C216510  14.679  11.837   9.087  0.0827  0.1634  0.1652
 1219ERGO   ROH16511  11.041   7.760   9.729 -0.0302  0.2076 -0.1274
 1219ERGO    R116512  11.098   7.834   9.462 -0.1008  0.1297 -0.1637
 1219ERGO    R216513  11.236   7.669   9.288 -0.0119  0.1430 -0.1011
 1219ERGO    R316514  11.018   7.708   9.130 -0.0505 -0.0633 -0.1051
 1219ERGO    R416515  11.232   7.627   8.945 -0.0342 -0.1215 -0.0718
 1219ERGO    R516516  11.107   7.806   8.930 -0.1099 -0.1769 -0.1926
 1219ERGO    C116517  11.025   7.640   8.597 -0.0834 -0.4691 -0.0585
 1219ERGO    C216518  10.870   7.362   8.393 -0.0251 -0.2960  0.2388
 1220ERGO   ROH16519   9.484  16.115   8.457  0.1186  0.1141  0.1725
 1220ERGO    R116520   9.283  16.311   8.494 -0.0024  0.0124  0.0640
 1220ERGO    R216521   9.060  16.328   8.331  0.0090 -0.1853  0.0250
 1220ERGO    R316522   8.927  16.313   8.567 -0.0152 -0.1666  0.0128
 1220ERGO    R416523   8.725  16.398   8.373  0.0575  0.0513  0.0285
 1220ERGO    R516524   8.774  16.497   8.561  0.1216 -0.0485  0.0661
 1220ERGO    C116525   8.404  16.425   8.619  0.0629  0.2067  0.0191
 1220ERGO    C216526   8.159  16.287   8.643 -0.0077 -0.0377 -0.0503
 1221ERGO   ROH16527  14.686  15.457   6.125 -0.0584  0.0308 -0.0840
 1221ERGO    R116528  14.748  15.597   6.363  0.0113 -0.1538  0.0087
 1221ERGO    R216529  14.649  15.848   6.418  0.4012  0.0082  0.0182
 1221ERGO    R316530  14.564  15.730   6.648  0.0266  0.0685 -0.0845
 1221ERGO    R416531  14.610  16.011   6.721  0.3377 -0.0107  0.0196
 1221ERGO    R516532  14.693  15.835   6.820  0.0090 -0.1463  0.0607
 1221ERGO    C116533  14.507  15.995   7.112 -0.0508  0.0350 -0.0759
 1221ERGO    C216534  14.539  16.210   7.373 -0.0453  0.0263 -0.3008
 1222ERGO   ROH16535   7.250  13.290   6.493  0.0233 -0.1036  0.0169
 1222ERGO    R116536   7.356  13.166   6.725  0.1410 -0.0400 -0.0018
 1222ERGO    R216537   7.537  13.292   6.891  0.0144  0.1123  0.0245
 1222ERGO    R316538   7.354  13.230   7.083  0.0680 -0.1020  0.0091
 1222ERGO    R416539   7.606  13.262   7.229  0.0077  0.2740  0.0408
 1222ERGO    R516540   7.473  13.089   7.236  0.2410  0.0894  0.0544
 1222ERGO    C116541   7.475  13.186   7.605  0.0542  0.1670  0.0358
 1222ERGO    C216542   7.455  13.243   7.971 -0.1624 -0.0961 -0.2976
 1223ERGO   ROH16543  13.536  15.568   6.645 -0.0658 -0.1436  0.1374
 1223ERGO    R116544  13.503  15.565   6.926 -0.0147  0.0246  0.1467
 1223ERGO    R216545  13.678  15.436   7.095 -0.0682 -0.0082  0.1801
 1223ERGO    R316546  13.690  15.680   7.216  0.1197  0.0485  0.0506
 1223ERGO    R416547  13.738  15.488   7.432 -0.2436  0.1149  0.1937
 1223ERGO    R516548  13.588  15.645   7.430 -0.0676  0.2831  0.0015
 1223ERGO    C116549  13.784  15.746   7.741 -0.1696  0.2397  0.0800
 1223ERGO    C216550  14.001  15.917   8.006 -0.1334 -0.1661  0.0513
 1224ERGO   ROH16551  16.808   9.114  10.528  0.1008  0.1064 -0.0575
 1224ERGO    R116552  16.822   8.994  10.272 -0.0335 -0.0466  0.0058
 1224ERGO    R216553  16.599   8.909  10.134 -0.1260  0.1012  0.0695
 1224ERGO    R316554  16.698   9.067   9.938  0.0188 -0.1037 -0.0274
 1224ERGO    R416555  16.621   8.820   9.801 -0.3853 -0.0555  0.0906
 1224ERGO    R516556  16.816   8.916   9.793 -0.2460 -0.3263 -0.0231
 1224ERGO    C116557  16.727   8.917   9.422 -0.4004 -0.3390  0.0120
 1224ERGO    C216558  16.720   8.892   9.076  0.1777  0.0167 -0.2564
 1225ERGO   ROH16559   4.282   3.088   6.827  0.1752  0.2219  0.1036
 1225ERGO    R116560   4.381   3.191   7.071  0.1249  0.2200  0.1255
 1225ERGO    R216561   4.222   3.333   7.247  0.0309  0.0341  0.1980
 1225ERGO    R316562   4.309   3.147   7.425  0.2066  0.0404  0.1200
 1225ERGO    R416563   4.161   3.342   7.587  0.0782 -0.1353  0.2112
 1225ERGO    R516564   4.366   3.274   7.620  0.1366  0.0155  0.1545
 1225ERGO    C116565   4.208   3.172   7.952  0.2708 -0.2280  0.1456
 1225ERGO    C216566   4.183   3.145   8.252 -0.0501 -0.0915 -0.1527
 1226ERGO   ROH16567   3.545  17.318   6.755  0.2481  0.2093  0.1259
 1226ERGO    R116568   3.496  17.114   6.944  0.0718  0.1189 -0.0129
 1226ERGO    R216569   3.693  17.016   7.112 -0.0439 -0.0656  0.0254
 1226ERGO    R316570   3.513  17.079   7.306 -0.1071 -0.0954 -0.0243
 1226ERGO    R416571   3.708  16.904   7.439 -0.0750  0.0109  0.0526
 1226ERGO    R516572   3.491  16.878   7.434 -0.0594 -0.0723  0.0135
 1226ERGO    C116573   3.548  16.898   7.811 -0.1525  0.0274  0.0217
 1226ERGO    C216574   3.502  16.669   8.066  0.0131  0.2061 -0.1440
 1227ERGO   ROH16575   8.494  13.152   6.856  0.1395 -0.1182 -0.0331
 1227ERGO    R116576   8.609  13.242   7.099  0.1171 -0.0681 -0.0409
 1227ERGO    R216577   8.459  13.290   7.326  0.1009 -0.0544 -0.0548
 1227ERGO    R316578   8.637  13.119   7.440  0.1179 -0.0148 -0.0216
 1227ERGO    R416579   8.460  13.198   7.659  0.0222 -0.0998 -0.0668
 1227ERGO    R516580   8.677  13.211   7.657  0.0197 -0.0318  0.0045
 1227ERGO    C116581   8.627  12.985   7.960 -0.0076 -0.0891 -0.0427
 1227ERGO    C216582   8.688  12.808   8.271 -0.2781 -0.2037 -0.0102
 1228ERGO   ROH16583  16.211  10.058  10.599 -0.1178  0.3449  0.0940
 1228ERGO    R116584  16.154   9.969  10.336  0.0327  0.2371  0.0964
 1228ERGO    R216585  15.908  10.007  10.216  0.0330  0.0012  0.0163
 1228ERGO    R316586  16.057  10.122  10.021 -0.0080  0.0854  0.0341
 1228ERGO    R416587  15.850   9.972   9.877  0.0171  0.0693  0.0120
 1228ERGO    R516588  16.065   9.957   9.847  0.0195  0.1286 -0.0067
 1228ERGO    C116589  15.957  10.060   9.496 -0.0307  0.1879  0.0260
 1228ERGO    C216590  16.058  10.042   9.130  0.3711 -0.0581  0.0145
 1229ERGO   ROH16591  15.775  17.444   6.494  0.1532 -0.1289  0.1410
 1229ERGO    R116592  15.651  17.454   6.748  0.1098 -0.0984  0.1193
 1229ERGO    R216593  15.692  17.261   6.942 -0.0433 -0.1592  0.0966
 1229ERGO    R316594  15.759  17.476   7.095  0.0582 -0.2244  0.1430
 1229ERGO    R416595  15.707  17.261   7.287 -0.2697 -0.1747  0.1076
 1229ERGO    R516596  15.617  17.459   7.287 -0.0824 -0.0913  0.0494
 1229ERGO    C116597  15.779  17.462   7.632 -0.3062 -0.2450  0.1576
 1229ERGO    C216598  15.787  17.489   7.981  0.2599  0.1619  0.1279
 1230ERGO   ROH16599  17.543  12.716  10.498  0.0786  0.0667  0.0982
 1230ERGO    R116600  17.673  12.849  10.285  0.0145 -0.0123  0.0089
 1230ERGO    R216601  17.833  12.717  10.102 -0.0434 -0.0809  0.0082
 1230ERGO    R316602  17.668  12.835   9.921 -0.0977 -0.1453  0.0148
 1230ERGO    R416603  17.857  12.681   9.759 -0.0025 -0.0182  0.0043
 1230ERGO    R516604  17.811  12.893   9.739 -0.1178 -0.0397  0.0319
 1230ERGO    C116605  17.716  12.772   9.390 -0.0297 -0.0419  0.0081
 1230ERGO    C216606  17.679  12.916   9.087  0.0864  0.2789  0.1556
 1231ERGO   ROH16607  12.196   5.693  10.118 -0.0223  0.4181 -0.1717
 1231ERGO    R116608  12.336   5.589   9.895 -0.0897  0.0256 -0.0406
 1231ERGO    R216609  12.243   5.376   9.747 -0.4085  0.0989  0.0349
 1231ERGO    R316610  12.274   5.548   9.539  0.0165 -0.0665 -0.0474
 1231ERGO    R416611  12.259   5.283   9.414 -0.1208 -0.1249  0.1087
 1231ERGO    R516612  12.416   5.432   9.386  0.0697 -0.3142  0.1896
 1231ERGO    C116613  12.298   5.391   9.026  0.4455 -0.4105  0.0746
 1231ERGO    C216614  12.366   5.419   8.676 -0.2888  0.3689 -0.1772
 1232ERGO   ROH16615  15.063   7.841   6.612  0.0970  0.0907  0.0809
 1232ERGO    R116616  15.031   7.720   6.867  0.0620  0.0861  0.0750
 1232ERGO    R216617  15.233   7.718   7.057  0.0510  0.0479  0.0899
 1232ERGO    R316618  15.041   7.830   7.214  0.0572  0.0733  0.0783
 1232ERGO    R416619  15.256   7.759   7.399 -0.0484 -0.1327  0.1195
 1232ERGO    R516620  15.047   7.702   7.416 -0.0836 -0.0281  0.0178
 1232ERGO    C116621  15.090   7.888   7.746 -0.1006 -0.2140  0.1258
 1232ERGO    C216622  14.936   8.014   8.014  0.4526 -0.1030  0.3587
 1233ERGO   ROH16623  16.516  13.807   7.156  0.0793  0.2942  0.0757
 1233ERGO    R116624  16.471  13.958   7.391 -0.2152  0.3009  0.0190
 1233ERGO    R216625  16.217  14.015   7.485 -0.3366 -0.1946  0.0226
 1233ERGO    R316626  16.313  13.904   7.714 -0.0690  0.0934  0.0567
 1233ERGO    R416627  16.102  14.088   7.803 -0.3774 -0.2361  0.0172
 1233ERGO    R516628  16.309  14.083   7.873 -0.3443  0.1718 -0.0364
 1233ERGO    C116629  16.125  14.027   8.203 -0.1499  0.0101  0.0462
 1233ERGO    C216630  16.000  14.042   8.588 -0.0822 -0.0200  0.2836
 1234ERGO   ROH16631   9.709   0.826   6.909 -0.0187  0.0699  0.0141
 1234ERGO    R116632   9.643   0.723   7.164  0.0481  0.0950  0.0414
 1234ERGO    R216633   9.830   0.690   7.365  0.0996  0.1162 -0.0054
 1234ERGO    R316634   9.655   0.840   7.508  0.1362  0.1284  0.0276
 1234ERGO    R416635   9.838   0.730   7.708  0.1068  0.0327  0.0049
 1234ERGO    R516636   9.621   0.716   7.710  0.1018  0.0883 -0.0014
 1234ERGO    C116637   9.679   0.894   8.043  0.1455 -0.0044  0.0417
 1234ERGO    C216638   9.824   0.945   8.354 -0.0531 -0.2612  0.3349
 1235ERGO   ROH16639   7.597   5.463   6.490 -0.0515  0.2104 -0.0137
 1235ERGO    R116640   7.680   5.597   6.725 -0.1668  0.1063  0.0884
 1235ERGO    R216641   7.634   5.496   6.978  0.0363 -0.1930  0.0137
 1235ERGO    R316642   7.903   5.529   7.004  0.0045  0.1417 -0.0391
 1235ERGO    R416643   7.799   5.549   7.278  0.0588 -0.2334  0.0082
 1235ERGO    R516644   7.926   5.694   7.177 -0.1624  0.0251  0.0951
 1235ERGO    C116645   8.147   5.610   7.476  0.0419  0.0573 -0.0447
 1235ERGO    C216646   8.408   5.626   7.702  0.2049 -0.3546  0.1568
 1236ERGO   ROH16647  17.194  12.442  10.510 -0.2515  0.2479 -0.0346
 1236ERGO    R116648  17.230  12.560  10.256  0.0773  0.1221 -0.0489
 1236ERGO    R216649  17.434  12.487  10.085 -0.0937 -0.4364 -0.0176
 1236ERGO    R316650  17.230  12.449   9.910 -0.1866  0.0671 -0.0360
 1236ERGO    R416651  17.474  12.437   9.746 -0.1776 -0.4513 -0.0270
 1236ERGO    R516652  17.300  12.565   9.712  0.1002 -0.0347 -0.0074
 1236ERGO    C116653  17.305  12.373   9.383 -0.3137  0.0129 -0.0498
 1236ERGO    C216654  17.400  12.513   9.072  0.1668 -0.2719 -0.0365
 1237ERGO   ROH16655  12.582   0.128   6.687 -0.0033 -0.3654  0.0409
 1237ERGO    R116656  12.423   0.320   6.821  0.0506 -0.2767 -0.0215
 1237ERGO    R216657  12.261   0.255   7.035  0.0297 -0.1620 -0.0026
 1237ERGO    R316658  12.399   0.455   7.158  0.0857 -0.1622 -0.0644
 1237ERGO    R416659  12.305   0.284   7.377  0.0721 -0.0918 -0.0138
 1237ERGO    R516660  12.275   0.499   7.358  0.1159 -0.0890 -0.0610
 1237ERGO    C116661  12.461   0.488   7.690  0.1495 -0.0512 -0.0784
 1237ERGO    C216662  12.692   0.740   7.845 -0.1476 -0.2714  0.0667
 1238ERGO   ROH16663   2.777   1.462   7.013  0.0621 -0.1236  0.0488
 1238ERGO    R116664   2.682   1.601   7.241  0.1777 -0.0032  0.0261
 1238ERGO    R216665   2.415   1.608   7.311  0.1718  0.2600  0.0101
 1238ERGO    R316666   2.508   1.516   7.549  0.0748  0.1969  0.0230
 1238ERGO    R416667   2.248   1.638   7.612 -0.0807 -0.0871 -0.0893
 1238ERGO    R516668   2.439   1.682   7.708 -0.1966  0.0301  0.0814
 1238ERGO    C116669   2.239   1.569   8.012 -0.3188 -0.3485 -0.1350
 1238ERGO    C216670   2.228   1.544   8.314  0.2256  0.0873  0.1288
 1239ERGO   ROH16671  16.594  16.841   6.640 -0.1936 -0.0129  0.0199
 1239ERGO    R116672  16.643  16.668   6.859 -0.1377  0.0042  0.0213
 1239ERGO    R216673  16.815  16.734   7.065 -0.1306  0.0457  0.0025
 1239ERGO    R316674  16.598  16.680   7.220 -0.1049  0.0077  0.0253
 1239ERGO    R416675  16.827  16.591   7.379 -0.0705  0.0710  0.0118
 1239ERGO    R516676  16.652  16.473   7.327 -0.0484  0.0277  0.0356
 1239ERGO    C116677  16.631  16.458   7.708 -0.0113  0.0501  0.0384
 1239ERGO    C216678  16.663  16.534   7.969 -0.1370 -0.0317 -0.0650
 1240ERGO   ROH16679   5.308  17.011   7.018  0.0641  0.0499  0.1381
 1240ERGO    R116680   5.211  17.032   7.283 -0.0339 -0.0943  0.1149
 1240ERGO    R216681   5.098  16.819   7.418 -0.0165 -0.1871 -0.0169
 1240ERGO    R316682   5.286  16.880   7.605 -0.0989 -0.2111  0.0751
 1240ERGO    R416683   5.070  16.749   7.755 -0.0956 -0.3751 -0.0608
 1240ERGO    R516684   5.159  16.944   7.798 -0.1851 -0.3617  0.0700
 1240ERGO    C116685   5.231  16.765   8.127 -0.2190 -0.5069 -0.0001
 1240ERGO    C216686   5.231  16.510   8.297  0.2993  0.0372  0.0618
 1241ERGO   ROH16687   6.106   1.516  10.662  0.0099  0.3890 -0.0010
 1241ERGO    R116688   6.063   1.659  10.422  0.1640  0.3198 -0.0717
 1241ERGO    R216689   6.266   1.713  10.242  0.2165 -0.0322 -0.1269
 1241ERGO    R316690   6.097   1.593  10.066  0.0415  0.0860 -0.0424
 1241ERGO    R416691   6.250   1.784   9.904  0.0740 -0.0005 -0.1141
 1241ERGO    R516692   6.033   1.768   9.916  0.0695  0.1369  0.0049
 1241ERGO    C116693   6.082   1.712   9.542 -0.1733  0.1289 -0.0272
 1241ERGO    C216694   6.065   1.783   9.377 -0.1901 -0.3906 -0.0473
 1242ERGO   ROH16695  17.284  15.142   6.904  0.1187  0.1993 -0.0519
 1242ERGO    R116696  17.325  15.025   7.158  0.2118  0.1859 -0.0718
 1242ERGO    R216697  17.499  15.132   7.345  0.1001  0.3154 -0.0351
 1242ERGO    R316698  17.280  15.124   7.506  0.0913  0.0759 -0.0563
 1242ERGO    R416699  17.505  15.169   7.688  0.0414  0.1239 -0.0132
 1242ERGO    R516700  17.355  15.011   7.703  0.1478  0.0154 -0.1147
 1242ERGO    C116701  17.302  15.183   8.039 -0.0012 -0.2124 -0.0203
 1242ERGO    C216702  17.396  15.461   8.239 -0.0007 -0.0381 -0.3241
 1243ERGO   ROH16703  12.583   7.432   6.561  0.2022  0.2299  0.1117
 1243ERGO    R116704  12.432   7.511   6.787  0.0211  0.0951  0.0403
 1243ERGO    R216705  12.364   7.335   6.989 -0.0416 -0.0004 -0.0592
 1243ERGO    R316706  12.482   7.522   7.148 -0.2177 -0.0027  0.0772
 1243ERGO    R416707  12.359   7.333   7.335  0.1204 -0.3561 -0.0541
 1243ERGO    R516708  12.330   7.549   7.331 -0.1694 -0.3880  0.1791
 1243ERGO    C116709  12.466   7.508   7.685  0.0493 -0.5653  0.0768
 1243ERGO    C216710  12.442   7.532   7.978 -0.1806  0.1373  0.0941
 1244ERGO   ROH16711   9.755   8.753   9.719  0.2017 -0.1563 -0.0715
 1244ERGO    R116712   9.823   8.901   9.488  0.0987 -0.0120 -0.0109
 1244ERGO    R216713  10.018   8.818   9.310  0.0941  0.1525 -0.0899
 1244ERGO    R316714   9.818   8.845   9.128  0.0487  0.1698 -0.0408
 1244ERGO    R416715  10.064   8.882   8.974  0.0245  0.0934 -0.1116
 1244ERGO    R516716   9.895   9.018   8.981  0.0523  0.1352 -0.0855
 1244ERGO    C116717   9.904   8.946   8.607 -0.0585  0.0752 -0.0782
 1244ERGO    C216718   9.767   8.996   8.341 -0.1174  0.0152  0.0524
 1245ERGO   ROH16719  11.081   9.560  10.096 -0.3381 -0.0844 -0.0304
 1245ERGO    R116720  11.098   9.649   9.827 -0.1955 -0.0432 -0.0091
 1245ERGO    R216721  11.339   9.670   9.693 -0.1251 -0.0754  0.1010
 1245ERGO    R316722  11.214   9.511   9.511 -0.0819 -0.0193  0.0233
 1245ERGO    R416723  11.366   9.704   9.350 -0.1363  0.0886  0.1161
 1245ERGO    R516724  11.153   9.661   9.334 -0.1194  0.0429  0.0938
 1245ERGO    C116725  11.265   9.575   8.980 -0.1022  0.2370  0.0519
 1245ERGO    C216726  11.292   9.693   8.597 -0.1616 -0.3121 -0.1684
 1246ERGO   ROH16727   3.787  10.947  10.547 -0.0834  0.2782  0.0337
 1246ERGO    R116728   3.656  11.008  10.303 -0.2091 -0.1791 -0.0198
 1246ERGO    R216729   3.767  11.174  10.112 -0.6538  0.1232 -0.0236
 1246ERGO    R316730   3.724  10.961   9.948  0.0392 -0.0678  0.0102
 1246ERGO    R416731   3.727  11.192   9.769 -0.6155 -0.0764 -0.0410
 1246ERGO    R516732   3.570  11.042   9.784 -0.1771 -0.5668 -0.0542
 1246ERGO    C116733   3.664  11.003   9.416  0.0573 -0.3720 -0.0194
 1246ERGO    C216734   3.651  11.182   9.209 -0.1287  0.0069 -0.2835
 1247ERGO   ROH16735  16.508  13.170  10.532 -0.3092 -0.1686  0.1582
 1247ERGO    R116736  16.571  13.297  10.287 -0.1565 -0.1243  0.2192
 1247ERGO    R216737  16.752  13.191  10.106 -0.1398 -0.1580  0.2532
 1247ERGO    R316738  16.544  13.217   9.933 -0.0655 -0.0051  0.1851
 1247ERGO    R416739  16.777  13.171   9.762 -0.0398 -0.1230  0.2581
 1247ERGO    R516740  16.636  13.336   9.747  0.0681 -0.0352  0.2330
 1247ERGO    C116741  16.597  13.183   9.399  0.0880  0.0410  0.1970
 1247ERGO    C216742  16.664  13.069   9.107 -0.3189  0.2487 -0.0931
 1248ERGO   ROH16743  14.013  10.491  10.572 -0.2179  0.0567 -0.1008
 1248ERGO    R116744  13.891  10.535  10.321 -0.1256 -0.2510 -0.2039
 1248ERGO    R216745  13.913  10.775  10.184 -0.5796 -0.1971 -0.1964
 1248ERGO    R316746  14.001  10.614   9.983 -0.0325 -0.0131 -0.1202
 1248ERGO    R416747  13.904  10.855   9.848 -0.4604 -0.2232 -0.2064
 1248ERGO    R516748  13.845  10.649   9.805  0.0368 -0.3684 -0.2605
 1248ERGO    C116749  13.982  10.750   9.464  0.1225 -0.0656 -0.1405
 1248ERGO    C216750  14.001  10.718   9.076 -0.1304 -0.1245  0.2331
 1249ERGO   ROH16751  10.485   7.619   9.632  0.1654  0.0192  0.0693
 1249ERGO    R116752  10.604   7.603   9.376  0.0034 -0.0965 -0.0001
 1249ERGO    R216753  10.491   7.461   9.167 -0.2713  0.0380  0.0561
 1249ERGO    R316754  10.515   7.698   9.036 -0.0873  0.0216  0.0552
 1249ERGO    R416755  10.522   7.495   8.825 -0.2864  0.0096  0.0516
 1249ERGO    R516756  10.669   7.653   8.858 -0.1454 -0.1115  0.0348
 1249ERGO    C116757  10.562   7.737   8.502 -0.1224 -0.0224  0.0481
 1249ERGO    C216758  10.614   7.735   8.230  0.1234 -0.3664  0.0897
 1250ERGO   ROH16759   1.344  13.090   6.800  0.0402 -0.0743  0.1124
 1250ERGO    R116760   1.331  12.992   7.066 -0.1325 -0.1002  0.0953
 1250ERGO    R216761   1.381  13.151   7.286 -0.0482 -0.1776  0.1336
 1250ERGO    R316762   1.136  13.064   7.364 -0.1563  0.0421  0.0460
 1250ERGO    R416763   1.241  13.210   7.596 -0.0233 -0.2172  0.1520
 1250ERGO    R516764   1.164  13.006   7.595 -0.2490 -0.1349  0.0138
 1250ERGO    C116765   0.929  13.162   7.850 -0.1103 -0.0341  0.0806
 1250ERGO    C216766   0.637  13.339   7.961 -0.1614 -0.3117 -0.2315
 1251ERGO   ROH16767   3.766  17.429   7.213 -0.0023 -0.1604  0.0223
 1251ERGO    R116768   3.760  17.476   7.493  0.1050  0.0718 -0.0112
 1251ERGO    R216769   3.744  17.271   7.677 -0.2589  0.2352  0.1548
 1251ERGO    R316770   3.966  17.390   7.779 -0.0239 -0.0882  0.0337
 1251ERGO    R416771   3.824  17.284   8.013 -0.1132  0.2290  0.1202
 1251ERGO    R516772   3.892  17.489   7.984  0.2134  0.1101  0.0249
 1251ERGO    C116773   4.080  17.402   8.305  0.1922 -0.0784 -0.0137
 1251ERGO    C216774   4.274  17.293   8.593  0.1156  0.2375  0.1820
 1252ERGO   ROH16775   5.408  11.840  10.290 -0.2058  0.1543  0.1092
 1252ERGO    R116776   5.356  12.009  10.069  0.0117  0.0938  0.0086
 1252ERGO    R216777   5.528  12.031   9.854  0.0837 -0.1906  0.0317
 1252ERGO    R316778   5.306  11.968   9.711  0.0500 -0.0445  0.0191
 1252ERGO    R416779   5.498  12.067   9.512  0.1953 -0.3668  0.0016
 1252ERGO    R516780   5.294  12.139   9.542  0.2639 -0.1346 -0.0877
 1252ERGO    C116781   5.271  12.030   9.178  0.2286 -0.3323 -0.0278
 1252ERGO    C216782   5.254  12.005   8.796 -0.1203 -0.1545 -0.2521
 1253ERGO   ROH16783   9.597  15.943   6.497  0.4301  0.0473  0.0439
 1253ERGO    R116784   9.518  15.899   6.765  0.2511  0.1070  0.0012
 1253ERGO    R216785   9.643  15.716   6.928  0.1071  0.1090  0.1074
 1253ERGO    R316786   9.670  15.930   7.094  0.0475  0.1263  0.0968
 1253ERGO    R416787   9.633  15.701   7.274  0.3645  0.0755  0.1167
 1253ERGO    R516788   9.517  15.886   7.273  0.2057 -0.0150  0.2056
 1253ERGO    C116789   9.652  15.893   7.630  0.4583  0.0722  0.1120
 1253ERGO    C216790   9.654  15.913   7.932  0.0213  0.4127 -0.0964
 1254ERGO   ROH16791   4.330  13.205   7.044  0.1764 -0.0802  0.0283
 1254ERGO    R116792   4.322  13.342   7.292 -0.0537  0.1234 -0.0880
 1254ERGO    R216793   4.089  13.376   7.435 -0.1041 -0.2089 -0.0965
 1254ERGO    R316794   4.233  13.261   7.635  0.1511  0.2435 -0.0018
 1254ERGO    R416795   4.004  13.387   7.770 -0.3665 -0.4494 -0.1506
 1254ERGO    R516796   4.215  13.416   7.818 -0.4581  0.2241 -0.0158
 1254ERGO    C116797   4.090  13.285   8.153 -0.2796 -0.1645 -0.0933
 1254ERGO    C216798   4.140  13.359   8.606  0.2400  0.1530  0.1627
 1255ERGO   ROH16799   9.235   2.079   6.757 -0.1053 -0.0441 -0.0104
 1255ERGO    R116800   9.176   2.152   7.024 -0.0747 -0.0662  0.0017
 1255ERGO    R216801   9.124   1.966   7.221 -0.0560 -0.0820 -0.0104
 1255ERGO    R316802   9.323   2.097   7.352 -0.0395 -0.0962 -0.0191
 1255ERGO    R416803   9.115   2.058   7.554  0.0095 -0.1641  0.0155
 1255ERGO    R516804   9.209   2.247   7.500 -0.0197 -0.1425  0.0429
 1255ERGO    C116805   9.296   2.234   7.871  0.0632 -0.2253  0.0223
 1255ERGO    C216806   9.450   2.246   8.212  0.0255  0.1134 -0.4380
 1256ERGO   ROH16807  14.648  16.947   6.420 -0.2018 -0.1446 -0.0329
 1256ERGO    R116808  14.696  17.063   6.673  0.0372 -0.0592 -0.1126
 1256ERGO    R216809  14.520  17.036   6.885  0.0817  0.2631 -0.0199
 1256ERGO    R316810  14.741  16.945   7.015  0.0305  0.0681 -0.0690
 1256ERGO    R416811  14.590  17.090   7.219  0.2526  0.2645 -0.0560
 1256ERGO    R516812  14.799  17.121   7.166  0.2633  0.0382 -0.1276
 1256ERGO    C116813  14.838  17.036   7.535  0.3040  0.0823 -0.1232
 1256ERGO    C216814  14.891  17.059   7.857  0.0895 -0.1678  0.0560
 1257ERGO   ROH16815   9.523   7.863   9.600  0.1406 -0.1064  0.0209
 1257ERGO    R116816   9.481   7.915   9.325  0.1440 -0.1004  0.0218
 1257ERGO    R216817   9.687   7.921   9.141  0.1336 -0.2051  0.0063
 1257ERGO    R316818   9.533   7.738   9.012  0.0386 -0.1408  0.0266
 1257ERGO    R416819   9.678   7.877   8.798  0.1732 -0.2960  0.0164
 1257ERGO    R516820   9.462   7.849   8.812  0.1520 -0.1500 -0.0192
 1257ERGO    C116821   9.528   7.679   8.477  0.1072 -0.2885  0.0413
 1257ERGO    C216822   9.659   7.674   8.196 -0.0348 -0.0985  0.0587
 1258ERGO   ROH16823   5.401   8.595   6.703  0.2374 -0.0578  0.1705
 1258ERGO    R116824   5.333   8.757   6.925  0.2010 -0.1011  0.1893
 1258ERGO    R216825   5.187   8.662   7.139  0.2101 -0.1533  0.1619
 1258ERGO    R316826   5.398   8.755   7.283  0.1821 -0.1360  0.1951
 1258ERGO    R416827   5.200   8.678   7.484  0.1630 -0.2143  0.1678
 1258ERGO    R516828   5.298   8.871   7.467  0.1318 -0.1839  0.2074
 1258ERGO    C116829   5.406   8.775   7.820  0.1093 -0.2335  0.2026
 1258ERGO    C216830   5.375   9.037   8.076 -0.0330 -0.1956  0.2837
 1259ERGO   ROH16831  13.230   8.594  10.258  0.0049 -0.0506 -0.1184
 1259ERGO    R116832  13.223   8.692   9.993  0.0387 -0.1718 -0.1661
 1259ERGO    R216833  13.389   8.894   9.904 -0.1508  0.0025 -0.1554
 1259ERGO    R316834  13.453   8.712   9.712  0.1837 -0.0111 -0.0348
 1259ERGO    R416835  13.461   8.971   9.575 -0.3115 -0.0937 -0.2130
 1259ERGO    R516836  13.348   8.795   9.514  0.0182 -0.3498 -0.0888
 1259ERGO    C116837  13.563   8.846   9.203 -0.0909 -0.1624 -0.1334
 1259ERGO    C216838  13.681   8.968   8.894  0.2277 -0.0920  0.0307
 1260ERGO   ROH16839   3.593   4.672   7.409 -0.0792 -0.0726  0.0671
 1260ERGO    R116840   3.651   4.547   7.656 -0.0047 -0.1338  0.0204
 1260ERGO    R216841   3.771   4.680   7.866  0.0621 -0.1827  0.0231
 1260ERGO    R316842   3.555   4.591   8.004  0.0987 -0.2140  0.0574
 1260ERGO    R416843   3.757   4.646   8.209  0.0495 -0.0205  0.0386
 1260ERGO    R516844   3.648   4.459   8.181  0.1419 -0.0798  0.1281
 1260ERGO    C116845   3.546   4.541   8.540  0.0764  0.0445  0.0799
 1260ERGO    C216846   3.672   4.581   8.879 -0.2719 -0.1446 -0.0859
 1261ERGO   ROH16847  14.938  16.145   7.091  0.1348  0.1059  0.0381
 1261ERGO    R116848  15.000  15.979   7.311  0.1936  0.1315  0.0414
 1261ERGO    R216849  15.175  16.055   7.511  0.0091  0.2831  0.1512
 1261ERGO    R316850  14.965  15.995   7.673 -0.0189  0.0332  0.0259
 1261ERGO    R416851  15.201  15.900   7.818 -0.0009  0.2607  0.1404
 1261ERGO    R516852  15.024  15.784   7.769  0.1497  0.0795  0.0232
 1261ERGO    C116853  15.020  15.752   8.149 -0.0327  0.0129  0.0165
 1261ERGO    C216854  14.972  15.824   8.434 -0.2525  0.2768  0.1361
 1262ERGO   ROH16855  14.770   3.096   6.855  0.0643 -0.1603 -0.0756
 1262ERGO    R116856  14.849   3.072   7.126  0.0169 -0.1332 -0.0593
 1262ERGO    R216857  15.108   3.118   7.210 -0.0183 -0.0355 -0.0046
 1262ERGO    R316858  14.988   3.291   7.381 -0.1197 -0.0831 -0.0269
 1262ERGO    R416859  15.196   3.161   7.541 -0.0458  0.0525 -0.0084
 1262ERGO    R516860  14.984   3.174   7.591 -0.0560 -0.0621 -0.0131
 1262ERGO    C116861  15.134   3.348   7.895 -0.1569  0.0591 -0.0315
 1262ERGO    C216862  15.379   3.465   8.029 -0.2331  0.2507  0.0951
 1263ERGO   ROH16863   0.216   7.119   7.274 -0.2220  0.2485 -0.1916
 1263ERGO    R116864   0.095   7.119   7.530 -0.0153  0.0290 -0.0893
 1263ERGO    R216865   0.205   6.987   7.747  0.2830  0.0312 -0.2316
 1263ERGO    R316866   0.185   7.231   7.865  0.1591 -0.0350 -0.1139
 1263ERGO    R416867   0.041   7.050   8.044  0.1364 -0.1677 -0.2688
 1263ERGO    R516868  -0.036   7.235   7.957  0.1193 -0.1474 -0.2060
 1263ERGO    C116869  -0.074   7.316   8.328 -0.0653 -0.3457 -0.1800
 1263ERGO    C216870  -0.355   7.351   8.599  0.1864 -0.0290 -0.0563
 1264ERGO   ROH16871   2.703  10.497   6.949 -0.0580 -0.0295 -0.0042
 1264ERGO    R116872   2.710  10.416   7.220 -0.0230 -0.0159 -0.0021
 1264ERGO    R216873   2.925  10.280   7.328 -0.0016  0.0131 -0.0192
 1264ERGO    R316874   2.920  10.481   7.510 -0.0026  0.0179 -0.0231
 1264ERGO    R416875   3.063  10.262   7.644  0.0150  0.0207 -0.0251
 1264ERGO    R516876   2.889  10.371   7.720  0.0105  0.0166 -0.0185
 1264ERGO    C116877   3.139  10.442   7.999  0.0237  0.0298 -0.0320
 1264ERGO    C216878   3.224  10.629   8.394  0.1315 -0.2726 -0.0472
 1265ERGO   ROH16879   0.966   1.856   6.676 -0.2315 -0.2685 -0.0251
 1265ERGO    R116880   0.984   1.955   6.940 -0.0134 -0.1681 -0.0760
 1265ERGO    R216881   0.762   2.013   7.094  0.1115  0.1290 -0.0015
 1265ERGO    R316882   0.881   1.845   7.272  0.0180  0.0852  0.0208
 1265ERGO    R416883   0.763   2.057   7.437 -0.1265  0.0138  0.0165
 1265ERGO    R516884   0.971   1.990   7.439 -0.1157  0.0437  0.1322
 1265ERGO    C116885   0.876   1.925   7.803 -0.3529 -0.0945  0.0481
 1265ERGO    C216886   1.029   1.958   8.117  0.0016  0.2898  0.3191
 1266ERGO   ROH16887  10.442   5.784   9.939  0.1669 -0.3277  0.0577
 1266ERGO    R116888  10.480   5.617   9.714  0.2212 -0.1410 -0.0725
 1266ERGO    R216889  10.288   5.585   9.519  0.1495 -0.2135  0.0161
 1266ERGO    R316890  10.490   5.659   9.352 -0.0174  0.1051 -0.0548
 1266ERGO    R416891  10.289   5.538   9.176  0.1444 -0.3208  0.0298
 1266ERGO    R516892  10.500   5.484   9.189  0.2574  0.0624 -0.0022
 1266ERGO    C116893  10.479   5.580   8.821 -0.0152 -0.0842 -0.0287
 1266ERGO    C216894  10.477   5.538   8.491 -0.2354 -0.1173  0.1135
 1267ERGO   ROH16895   5.262   1.783   8.703  0.1901 -0.1414  0.2199
 1267ERGO    R116896   5.122   1.691   8.931 -0.0126  0.0427  0.1724
 1267ERGO    R216897   5.218   1.490   9.094 -0.3617 -0.1312  0.1715
 1267ERGO    R316898   5.182   1.675   9.290 -0.1274 -0.0971  0.1864
 1267ERGO    R416899   5.210   1.421   9.433 -0.1477 -0.1016  0.1847
 1267ERGO    R516900   5.046   1.564   9.453 -0.0645 -0.0188  0.2944
 1267ERGO    C116901   5.170   1.554   9.814  0.1968 -0.0524  0.2063
 1267ERGO    C216902   5.206   1.610  10.202 -0.1736 -0.5423 -0.0526
 1268ERGO   ROH16903   2.031  15.997   6.802 -0.0220  0.0203 -0.0944
 1268ERGO    R116904   1.926  15.985   7.064 -0.1502 -0.0648 -0.1476
 1268ERGO    R216905   1.930  15.753   7.216 -0.1036 -0.0829 -0.1684
 1268ERGO    R316906   2.055  15.913   7.397 -0.2788 -0.0332 -0.0915
 1268ERGO    R416907   1.988  15.671   7.547 -0.1264 -0.1233 -0.1756
 1268ERGO    R516908   1.937  15.875   7.602 -0.3018 -0.1801 -0.1340
 1268ERGO    C116909   2.138  15.773   7.909 -0.3042 -0.1003 -0.1076
 1268ERGO    C216910   2.225  15.675   8.225 -0.0183 -0.1049  0.0110
 1269ERGO   ROH16911   1.227   6.780   7.119  0.1880  0.0414 -0.0027
 1269ERGO    R116912   1.340   6.849   7.370  0.0301 -0.0014  0.0820
 1269ERGO    R216913   1.227   7.039   7.536 -0.0394  0.0220  0.0157
 1269ERGO    R316914   1.235   6.837   7.718 -0.2221  0.0068  0.0078
 1269ERGO    R416915   1.152   7.072   7.872 -0.1946  0.0263 -0.0192
 1269ERGO    R516916   1.319   6.940   7.918 -0.2793 -0.0488  0.0571
 1269ERGO    C116917   1.117   6.902   8.238 -0.4565  0.0145 -0.0469
 1269ERGO    C216918   1.178   6.734   8.504 -0.1400  0.2198 -0.0144
 1270ERGO   ROH16919   7.309  11.784   6.405 -0.0246  0.0406  0.1706
 1270ERGO    R116920   7.222  11.886   6.654 -0.2845  0.0125  0.0930
 1270ERGO    R216921   7.036  11.756   6.812 -0.0395 -0.2860  0.1277
 1270ERGO    R316922   7.230  11.777   7.002 -0.1160  0.2369  0.1651
 1270ERGO    R416923   6.981  11.740   7.153 -0.0745 -0.5427  0.1133
 1270ERGO    R516924   7.126  11.901   7.179 -0.5337 -0.0997  0.1823
 1270ERGO    C116925   7.131  11.750   7.529 -0.1665 -0.2012  0.1401
 1270ERGO    C216926   7.170  11.554   7.770 -0.1055 -0.1750  0.2653
 1271ERGO   ROH16927   0.995  12.160   7.184  0.2290  0.0202 -0.0900
 1271ERGO    R116928   1.073  12.171   7.456  0.0247  0.0103 -0.0288
 1271ERGO    R216929   0.891  12.179   7.664 -0.1326 -0.0885 -0.1605
 1271ERGO    R316930   1.031  11.964   7.752 -0.1167 -0.0488 -0.0894
 1271ERGO    R416931   0.997  12.133   7.989 -0.0782  0.0569 -0.1572
 1271ERGO    R516932   1.185  12.054   7.912 -0.0905  0.0237 -0.1548
 1271ERGO    C116933   1.190  11.903   8.262 -0.0316  0.1789 -0.0885
 1271ERGO    C216934   1.165  11.695   8.539 -0.1361  0.0498 -0.1397
 1272ERGO   ROH16935   5.371  15.821   7.502  0.1187 -0.0341 -0.0314
 1272ERGO    R116936   5.295  15.774   7.771  0.1209  0.1224 -0.0032
 1272ERGO    R216937   5.184  15.536   7.855 -0.0634  0.2413  0.0964
 1272ERGO    R316938   5.387  15.543   8.036 -0.0288  0.1373  0.0632
 1272ERGO    R416939   5.211  15.327   8.130 -0.0245  0.1014 -0.0117
 1272ERGO    R516940   5.281  15.498   8.246  0.0080  0.0390  0.0616
 1272ERGO    C116941   5.418  15.213   8.459  0.0307 -0.0775 -0.1058
 1272ERGO    C216942   5.532  14.916   8.553  0.1576 -0.1337 -0.0795
 1273ERGO   ROH16943  13.181   6.606   6.410  0.0116  0.0976 -0.0316
 1273ERGO    R116944  13.198   6.723   6.668 -0.0620  0.0843 -0.0207
 1273ERGO    R216945  13.038   6.642   6.878  0.0155 -0.0639 -0.0178
 1273ERGO    R316946  13.276   6.610   7.005  0.0511  0.1105 -0.0380
 1273ERGO    R416947  13.080   6.634   7.221  0.0389 -0.1158 -0.0216
 1273ERGO    R516948  13.261   6.752   7.197 -0.0639  0.0492 -0.0006
 1273ERGO    C116949  13.328   6.599   7.540  0.0858  0.0177 -0.0429
 1273ERGO    C216950  13.237   6.616   7.823 -0.1376  0.2416 -0.1499
 1274ERGO   ROH16951  12.735  12.311   6.757  0.3150 -0.0162 -0.0854
 1274ERGO    R116952  12.562  12.365   6.975  0.2719  0.0847 -0.1431
 1274ERGO    R216953  12.532  12.192   7.188 -0.0443  0.0087 -0.2391
 1274ERGO    R316954  12.596  12.412   7.334  0.1569 -0.1382 -0.1026
 1274ERGO    R416955  12.393  12.274   7.493 -0.0058 -0.0189 -0.2147
 1274ERGO    R516956  12.389  12.482   7.430  0.2159  0.0206 -0.0954
 1274ERGO    C116957  12.373  12.528   7.809  0.2055 -0.1728 -0.0724
 1274ERGO    C216958  12.329  12.376   8.132  0.0813 -0.0767 -0.0680
 1275ERGO   ROH16959   8.143   9.487  10.594  0.4185 -0.2709 -0.0052
 1275ERGO    R116960   8.067   9.599  10.345  0.2925 -0.0655  0.1233
 1275ERGO    R216961   8.251   9.694  10.163  0.2114 -0.1004  0.0236
 1275ERGO    R316962   8.122   9.525   9.993 -0.0633  0.0978  0.0279
 1275ERGO    R416963   8.224   9.739   9.821  0.1769 -0.0014  0.0391
 1275ERGO    R516964   8.018   9.669   9.833  0.0822  0.2692  0.0828
 1275ERGO    C116965   8.087   9.606   9.463 -0.1012  0.2423  0.0522
 1275ERGO    C216966   8.016   9.601   9.098 -0.0497 -0.1197  0.0935
 1276ERGO   ROH16967   7.387   8.136  10.397 -0.0454 -0.0841  0.0481
 1276ERGO    R116968   7.322   8.224  10.135  0.0231 -0.0576  0.0403
 1276ERGO    R216969   7.423   8.458  10.028  0.0701 -0.0616  0.0824
 1276ERGO    R316970   7.504   8.293   9.828  0.0989 -0.0513  0.0852
 1276ERGO    R416971   7.410   8.534   9.691 -0.0730 -0.1155  0.0752
 1276ERGO    R516972   7.345   8.330   9.652  0.0227 -0.1601  0.1264
 1276ERGO    C116973   7.478   8.423   9.307 -0.1293 -0.1373  0.0733
 1276ERGO    C216974   7.454   8.378   8.887  0.3090 -0.0547 -0.0490
 1277ERGO   ROH16975   4.977  14.503   6.805  0.2802 -0.2097 -0.0044
 1277ERGO    R116976   4.784  14.524   7.011  0.2823 -0.2007 -0.0036
 1277ERGO    R216977   4.584  14.337   7.048  0.1779 -0.1093 -0.1015
 1277ERGO    R316978   4.684  14.329   7.301  0.1611 -0.2828 -0.0989
 1277ERGO    R416979   4.399  14.271   7.332  0.0714  0.1055 -0.1191
 1277ERGO    R516980   4.512  14.425   7.436  0.2846 -0.0609 -0.0926
 1277ERGO    C116981   4.384  14.225   7.735 -0.0062  0.0678 -0.1269
 1277ERGO    C216982   4.325  14.154   8.046 -0.0623  0.0491 -0.0767
 1278ERGO   ROH16983   6.863  15.366   7.189  0.3883 -0.1334 -0.0081
 1278ERGO    R116984   6.918  15.321   7.463  0.1241 -0.0910  0.0551
 1278ERGO    R216985   6.737  15.200   7.633  0.0627 -0.3231 -0.1647
 1278ERGO    R316986   6.945  15.033   7.683  0.2099 -0.0812  0.0563
 1278ERGO    R416987   6.743  14.962   7.883 -0.0120 -0.4636 -0.2952
 1278ERGO    R516988   6.951  15.015   7.922 -0.1353 -0.2118  0.0578
 1278ERGO    C116989   6.941  14.666   8.076  0.0827 -0.3186 -0.1638
 1278ERGO    C216990   6.947  14.419   8.279 -0.1172 -0.2001  0.0823
 1279ERGO   ROH16991  11.161  15.283  10.264  0.3585 -0.2678  0.0763
 1279ERGO    R116992  11.061  15.405  10.029  0.1906 -0.2221  0.1698
 1279ERGO    R216993  11.225  15.535   9.848  0.0485 -0.0994  0.1290
 1279ERGO    R316994  11.108  15.366   9.670  0.0178 -0.0798  0.1300
 1279ERGO    R416995  11.250  15.561   9.504 -0.0829 -0.0040  0.1258
 1279ERGO    R516996  11.039  15.508   9.490 -0.0794 -0.0454  0.1909
 1279ERGO    C116997  11.154  15.418   9.137 -0.1883  0.0701  0.1248
 1279ERGO    C216998  11.215  15.433   8.775 -0.0289  0.0845 -0.1655
 1280ERGO   ROH16999   4.568   1.867   7.179 -0.1651 -0.1180 -0.0571
 1280ERGO    R117000   4.444   2.009   7.390 -0.1190 -0.0508 -0.0765
 1280ERGO    R217001   4.435   1.913   7.649  0.0159  0.0742 -0.0298
 1280ERGO    R317002   4.548   2.153   7.708 -0.0324  0.1380 -0.1867
 1280ERGO    R417003   4.508   2.025   7.968  0.0249  0.2720 -0.0990
 1280ERGO    R517004   4.439   2.223   7.909 -0.0311  0.2278 -0.2107
 1280ERGO    C117005   4.656   2.316   8.208 -0.0153  0.4470 -0.2866
 1280ERGO    C217006   4.874   2.438   8.532 -0.1003  0.0680  0.0095
 1281ERGO   ROH17007   7.650   8.695   6.854 -0.0924 -0.0845  0.0240
 1281ERGO    R117008   7.743   8.715   7.121 -0.1146 -0.1809  0.0385
 1281ERGO    R217009   7.956   8.877   7.193 -0.1377 -0.1906  0.1163
 1281ERGO    R317010   7.776   8.978   7.370 -0.1581 -0.2765  0.1471
 1281ERGO    R417011   8.037   9.069   7.468 -0.1913 -0.0371  0.0278
 1281ERGO    R517012   7.886   8.961   7.582 -0.0678 -0.1235  0.1161
 1281ERGO    C117013   7.917   9.276   7.795 -0.2418 -0.0284  0.0051
 1281ERGO    C217014   7.768   9.542   7.914 -0.1426 -0.0512 -0.0183
 1282ERGO   ROH17015   3.971   5.893   6.994 -0.0384 -0.2344 -0.0135
 1282ERGO    R117016   4.175   5.933   7.186 -0.0213 -0.1990 -0.0393
 1282ERGO    R217017   4.151   6.113   7.395  0.0760 -0.0167 -0.1835
 1282ERGO    R317018   4.210   5.895   7.546 -0.0542  0.0685 -0.0060
 1282ERGO    R417019   4.195   6.116   7.738 -0.0808  0.2050 -0.1631
 1282ERGO    R517020   4.361   5.977   7.713 -0.1072  0.1400  0.0076
 1282ERGO    C117021   4.277   5.914   8.079 -0.2943  0.4142  0.0154
 1282ERGO    C217022   4.168   5.976   8.360 -0.2048  0.3255  0.3120
 1283ERGO   ROH17023  17.151  16.013   8.328 -0.0744 -0.1587  0.1976
 1283ERGO    R117024  16.999  16.189   8.489 -0.0439 -0.0052  0.0609
 1283ERGO    R217025  16.882  16.419   8.388 -0.0827 -0.1110 -0.1410
 1283ERGO    R317026  16.656  16.312   8.495 -0.0493 -0.0194  0.0251
 1283ERGO    R417027  16.617  16.602   8.513 -0.0710 -0.0012 -0.2747
 1283ERGO    R517028  16.601  16.458   8.676 -0.0214  0.1699 -0.1165
 1283ERGO    C117029  16.251  16.609   8.686 -0.0330  0.1488 -0.1967
 1283ERGO    C217030  15.938  16.728   8.747  0.0463  0.1271 -0.0176
 1284ERGO   ROH17031  10.972  17.298   7.096  0.0996  0.0215  0.0732
 1284ERGO    R117032  10.860  17.114   7.280 -0.0317  0.1513  0.1225
 1284ERGO    R217033  11.014  16.960   7.449 -0.1315 -0.0507  0.0266
 1284ERGO    R317034  10.856  17.071   7.641  0.1084  0.1347  0.1235
 1284ERGO    R417035  10.937  16.811   7.751 -0.2284 -0.0273  0.0147
 1284ERGO    R517036  10.733  16.886   7.731 -0.1337  0.2859  0.1185
 1284ERGO    C117037  10.744  16.828   8.108 -0.0596  0.1606  0.0988
 1284ERGO    C217038  10.839  16.675   8.388  0.1705 -0.0187  0.1489
 1285ERGO   ROH17039   2.400  16.978   6.716 -0.0666 -0.2569 -0.0880
 1285ERGO    R117040   2.493  17.012   6.981 -0.0548 -0.1491 -0.1055
 1285ERGO    R217041   2.351  16.925   7.201 -0.0066 -0.1323 -0.0682
 1285ERGO    R317042   2.583  16.795   7.259  0.0410 -0.0386 -0.0491
 1285ERGO    R417043   2.428  16.787   7.509  0.0732  0.0099 -0.0240
 1285ERGO    R517044   2.632  16.861   7.485  0.0491  0.0645 -0.0790
 1285ERGO    C117045   2.691  16.586   7.742  0.1644  0.1806  0.0198
 1285ERGO    C217046   2.670  16.474   8.042 -0.1241  0.2204 -0.1626
 1286ERGO   ROH17047  13.874  12.432   6.621  0.1633  0.2389 -0.0685
 1286ERGO    R117048  13.744  12.460   6.871  0.0894  0.0345 -0.0810
 1286ERGO    R217049  13.677  12.244   7.031  0.2668 -0.0834 -0.1613
 1286ERGO    R317050  13.818  12.381   7.218  0.1045 -0.0067 -0.0940
 1286ERGO    R417051  13.635  12.211   7.372  0.3893 -0.3984 -0.1734
 1286ERGO    R517052  13.659  12.427   7.391  0.0694 -0.3718 -0.0216
 1286ERGO    C117053  13.743  12.321   7.747  0.3083 -0.5098 -0.1174
 1286ERGO    C217054  13.790  12.409   8.005 -0.1613 -0.1893 -0.2182
 1287ERGO   ROH17055  11.047   1.474   6.846 -0.0858  0.1159 -0.1385
 1287ERGO    R117056  10.830   1.429   7.022 -0.0100 -0.1419 -0.1060
 1287ERGO    R217057  10.822   1.216   7.198  0.3207 -0.0932 -0.0219
 1287ERGO    R317058  10.780   1.411   7.382  0.0459 -0.0788 -0.0958
 1287ERGO    R417059  10.742   1.161   7.530  0.3836 -0.0742 -0.0036
 1287ERGO    R517060  10.602   1.328   7.518  0.1550 -0.2697 -0.0708
 1287ERGO    C117061  10.656   1.314   7.896  0.1620 -0.0496 -0.0624
 1287ERGO    C217062  10.868   1.424   8.165 -0.3302  0.2712  0.1297
 1288ERGO   ROH17063   0.566  16.403   8.716 -0.0612  0.2202  0.0787
 1288ERGO    R117064   0.593  16.310   8.983 -0.1341  0.0924  0.0424
 1288ERGO    R217065   0.833  16.318   9.120 -0.1386 -0.1052  0.0636
 1288ERGO    R317066   0.686  16.453   9.304 -0.0727 -0.0960  0.1100
 1288ERGO    R417067   0.911  16.340   9.456 -0.1400 -0.2829  0.0767
 1288ERGO    R517068   0.699  16.317   9.501 -0.1568 -0.1832  0.0569
 1288ERGO    C117069   0.818  16.480   9.824 -0.0788 -0.3775  0.1279
 1288ERGO    C217070   0.720  16.430  10.116  0.3760  0.0837  0.0512
 1289ERGO   ROH17071   9.073  14.941   6.562 -0.4770 -0.1202 -0.1130
 1289ERGO    R117072   9.179  14.965   6.824 -0.1971 -0.2186 -0.2139
 1289ERGO    R217073   9.053  15.111   7.022  0.1499 -0.0760 -0.0987
 1289ERGO    R317074   9.072  14.878   7.160  0.0366 -0.0879 -0.1016
 1289ERGO    R417075   9.100  15.085   7.364  0.3721 -0.0885 -0.1283
 1289ERGO    R517076   9.237  14.920   7.328  0.2016 -0.2203 -0.2207
 1289ERGO    C117077   9.145  14.851   7.692  0.3951 -0.1068 -0.1483
 1289ERGO    C217078   9.088  14.818   8.095 -0.1863 -0.0628 -0.0957
 1290ERGO   ROH17079   0.057   5.057   7.296  0.2957 -0.0894  0.1512
 1290ERGO    R117080   0.077   5.125   7.570  0.0557  0.1887  0.1043
 1290ERGO    R217081  -0.109   5.287   7.697 -0.3120 -0.0459 -0.1150
 1290ERGO    R317082  -0.126   5.077   7.869  0.0184  0.0617  0.0593
 1290ERGO    R417083  -0.295   5.283   7.988 -0.3653 -0.1214 -0.1495
 1290ERGO    R517084  -0.132   5.177   8.086 -0.1950  0.2377 -0.0246
 1290ERGO    C117085  -0.420   5.084   8.318 -0.0861 -0.0642 -0.0061
 1290ERGO    C217086  -0.657   4.795   8.484  0.0720 -0.2173 -0.0851
 1291ERGO   ROH17087  13.042   7.371  10.225  0.1176 -0.1475 -0.0616
 1291ERGO    R117088  13.053   7.459   9.957 -0.0305 -0.4752 -0.1767
 1291ERGO    R217089  13.241   7.642   9.867 -0.5695  0.0255 -0.3053
 1291ERGO    R317090  13.294   7.448   9.684  0.1694 -0.0662 -0.0297
 1291ERGO    R417091  13.351   7.699   9.544 -0.7757  0.0094 -0.3832
 1291ERGO    R517092  13.219   7.539   9.476 -0.1992 -0.6199 -0.1726
 1291ERGO    C117093  13.465   7.550   9.185 -0.2019 -0.0861 -0.1699
 1291ERGO    C217094  13.495   7.434   8.905  0.2176 -0.1263 -0.0902
 1292ERGO   ROH17095   1.539   8.402  11.037 -0.0383 -0.1128 -0.1856
 1292ERGO    R117096   1.446   8.372  10.772 -0.0713  0.1049 -0.2001
 1292ERGO    R217097   1.464   8.574  10.584  0.2697  0.1272 -0.1483
 1292ERGO    R317098   1.590   8.384  10.438 -0.0283 -0.0455 -0.1879
 1292ERGO    R417099   1.470   8.563  10.239  0.2021  0.1644 -0.1505
 1292ERGO    R517100   1.445   8.346  10.251 -0.1153  0.1921 -0.1732
 1292ERGO    C117101   1.591   8.377   9.900 -0.1170  0.0239 -0.1889
 1292ERGO    C217102   1.573   8.448   9.550  0.0385  0.0781 -0.0334
 1293ERGO   ROH17103  10.450  11.760   6.384 -0.1346 -0.1649  0.1048
 1293ERGO    R117104  10.401  11.652   6.642 -0.2678  0.0250  0.1600
 1293ERGO    R217105  10.604  11.593   6.819 -0.3311 -0.2335  0.1447
 1293ERGO    R317106  10.460  11.753   6.986 -0.0404  0.0769  0.1084
 1293ERGO    R417107  10.614  11.579   7.165 -0.4642 -0.2852  0.1474
 1293ERGO    R517108  10.398  11.610   7.167 -0.4117  0.1881  0.0815
 1293ERGO    C117109  10.485  11.720   7.522 -0.2688 -0.0241  0.1148
 1293ERGO    C217110  10.465  11.614   7.799  0.0660  0.1845  0.1341
 1294ERGO   ROH17111  14.332   8.451  10.291  0.2046  0.1448  0.0841
 1294ERGO    R117112  14.283   8.493  10.015  0.0726  0.1852  0.1131
 1294ERGO    R217113  14.364   8.721   9.882  0.2080  0.1068  0.0595
 1294ERGO    R317114  14.483   8.543   9.715 -0.0633 -0.0118 -0.0133
 1294ERGO    R417115  14.390   8.758   9.539  0.0968  0.1144  0.0515
 1294ERGO    R517116  14.347   8.546   9.518 -0.1507  0.1609  0.0467
 1294ERGO    C117117  14.517   8.612   9.183 -0.2225  0.0074 -0.0214
 1294ERGO    C217118  14.565   8.680   8.814 -0.0491 -0.0805  0.2384
 1295ERGO   ROH17119   7.545   3.143   7.102  0.2362  0.0562 -0.2268
 1295ERGO    R117120   7.692   3.048   7.325  0.1549  0.0956 -0.1548
 1295ERGO    R217121   7.765   3.212   7.535  0.0808  0.1352 -0.1561
 1295ERGO    R317122   7.641   3.021   7.684  0.0225  0.1639 -0.1689
 1295ERGO    R417123   7.818   3.158   7.873 -0.0901  0.2283 -0.1139
 1295ERGO    R517124   7.810   2.944   7.835 -0.0503  0.2195 -0.0604
 1295ERGO    C117125   7.732   2.948   8.209 -0.2443  0.3095 -0.1012
 1295ERGO    C217126   7.705   3.115   8.565 -0.0301 -0.0793 -0.1142
 1296ERGO   ROH17127  14.469   8.430   6.230 -0.0206 -0.2972 -0.1358
 1296ERGO    R117128  14.442   8.236   6.435 -0.1375 -0.1132  0.0249
 1296ERGO    R217129  14.656   8.153   6.589 -0.1347 -0.3002 -0.0866
 1296ERGO    R317130  14.493   8.224   6.795  0.1230  0.0771 -0.0008
 1296ERGO    R417131  14.696   8.049   6.916 -0.1777 -0.3755 -0.1041
 1296ERGO    R517132  14.480   8.026   6.930 -0.2379  0.1012  0.0152
 1296ERGO    C117133  14.568   8.055   7.300  0.0392 -0.0649 -0.0338
 1296ERGO    C217134  14.622   7.899   7.604  0.3100  0.0076  0.0642
 1297ERGO   ROH17135   4.207   0.859   6.998  0.0652 -0.1953 -0.1072
 1297ERGO    R117136   4.376   0.827   7.223  0.0196 -0.2500 -0.0797
 1297ERGO    R217137   4.458   1.040   7.379  0.1994 -0.2510 -0.1642
 1297ERGO    R317138   4.355   0.890   7.581  0.0437 -0.0737 -0.1091
 1297ERGO    R417139   4.585   1.027   7.700  0.0570 -0.1146 -0.1014
 1297ERGO    R517140   4.547   0.812   7.701 -0.0472 -0.0934  0.0198
 1297ERGO    C117141   4.562   0.877   8.077 -0.1721  0.1314 -0.0130
 1297ERGO    C217142   4.687   1.131   8.228 -0.0821 -0.1311  0.0993
 1298ERGO   ROH17143  13.675   2.556  10.465 -0.0898  0.1979  0.0894
 1298ERGO    R117144  13.846   2.614  10.246 -0.1250  0.3063  0.0911
 1298ERGO    R217145  13.892   2.435  10.041  0.0179  0.3224  0.1117
 1298ERGO    R317146  13.812   2.643   9.885 -0.1310  0.2481  0.0859
 1298ERGO    R417147  13.889   2.433   9.696  0.0753  0.2892  0.1112
 1298ERGO    R517148  13.962   2.638   9.698 -0.0929  0.3554  0.1091
 1298ERGO    C117149  13.813   2.627   9.348 -0.0310  0.2001  0.0866
 1298ERGO    C217150  13.716   2.434   9.140  0.1308  0.0300  0.0026
 1299ERGO   ROH17151  12.184   7.869  10.015  0.1629  0.0921 -0.0078
 1299ERGO    R117152  12.267   7.884   9.745  0.1148  0.1025 -0.0220
 1299ERGO    R217153  12.198   7.692   9.557  0.0951  0.1031 -0.0124
 1299ERGO    R317154  12.105   7.907   9.419  0.0578  0.0981  0.0047
 1299ERGO    R417155  12.170   7.709   9.213  0.1353  0.1316 -0.0142
 1299ERGO    R517156  12.241   7.915   9.222  0.0843  0.1526  0.0212
 1299ERGO    C117157  12.067   7.921   8.883  0.1237  0.1435  0.0010
 1299ERGO    C217158  11.979   8.074   8.684 -0.1197 -0.1219  0.1849
 1300ERGO   ROH17159  15.398   8.322  10.511 -0.0235 -0.0504  0.0718
 1300ERGO    R117160  15.541   8.325  10.267  0.0317 -0.0274  0.1050
 1300ERGO    R217161  15.505   8.133  10.071 -0.0271  0.0720  0.0186
 1300ERGO    R317162  15.458   8.349   9.913  0.1239  0.1598  0.0957
 1300ERGO    R417163  15.516   8.131   9.726 -0.1834  0.1497  0.0113
 1300ERGO    R517164  15.614   8.326   9.733  0.0193  0.0464  0.0195
 1300ERGO    C117165  15.478   8.333   9.377 -0.1327  0.2774  0.0794
 1300ERGO    C217166  15.565   8.296   9.079  0.0820 -0.1698 -0.1001
 1301ERGO   ROH17167   4.905  10.096   6.711  0.1500 -0.0160 -0.1258
 1301ERGO    R117168   4.906  10.209   6.971  0.0913  0.0031 -0.1341
 1301ERGO    R217169   5.100  10.150   7.158  0.0013 -0.0497 -0.0576
 1301ERGO    R317170   5.128  10.420   7.167  0.0903 -0.0580 -0.0668
 1301ERGO    R417171   5.215  10.327   7.431 -0.0404 -0.0689 -0.0270
 1301ERGO    R517172   5.064  10.479   7.390  0.0262 -0.0198 -0.0947
 1301ERGO    C117173   5.309  10.684   7.599  0.0188 -0.0879 -0.0178
 1301ERGO    C217174   5.487  10.754   7.939  0.2717  0.0734 -0.3219
 1302ERGO   ROH17175   2.968   9.478  11.099  0.1380  0.1664 -0.0376
 1302ERGO    R117176   2.779   9.440  10.891  0.1247  0.1162 -0.0170
 1302ERGO    R217177   2.738   9.626  10.691  0.1017  0.0758 -0.0532
 1302ERGO    R317178   2.788   9.415  10.528  0.1019  0.0444 -0.0121
 1302ERGO    R417179   2.690   9.625  10.349  0.0166 -0.0247 -0.0413
 1302ERGO    R517180   2.612   9.423  10.365  0.0615 -0.0339  0.0298
 1302ERGO    C117181   2.709   9.426   9.996 -0.0328 -0.1127  0.0042
 1302ERGO    C217182   2.727   9.523   9.698 -0.2367  0.2976 -0.1029
 1303ERGO   ROH17183   4.092   8.190  10.813  0.1660 -0.1705 -0.0588
 1303ERGO    R117184   4.104   8.072  10.557  0.1238 -0.0026 -0.1391
 1303ERGO    R217185   3.879   8.028  10.402  0.0696 -0.1391 -0.0175
 1303ERGO    R317186   4.019   8.169  10.216 -0.1953  0.1166 -0.0302
 1303ERGO    R417187   3.796   8.052  10.067 -0.0558 -0.2283  0.0062
 1303ERGO    R517188   4.007   8.036  10.018 -0.0299  0.1173 -0.0462
 1303ERGO    C117189   3.878   8.200   9.699 -0.3774 -0.0401  0.0081
 1303ERGO    C217190   3.898   8.176   9.302  0.1054  0.1195 -0.0895
 1304ERGO   ROH17191   0.178   9.690   6.968 -0.2756 -0.3584 -0.0248
 1304ERGO    R117192   0.127   9.613   7.236 -0.3244 -0.1390  0.0319
 1304ERGO    R217193   0.310   9.651   7.438 -0.1695 -0.3873 -0.0556
 1304ERGO    R317194   0.102   9.778   7.559  0.1093  0.0680 -0.0328
 1304ERGO    R417195   0.266   9.673   7.781 -0.1829 -0.4636 -0.0526
 1304ERGO    R517196   0.052   9.640   7.749 -0.2710  0.0804 -0.1170
 1304ERGO    C117197   0.045   9.805   8.093  0.0710 -0.0806 -0.0294
 1304ERGO    C217198   0.130   9.884   8.374 -0.2527 -0.1475  0.0765
 1305W        W17199   3.395   7.475   2.571  0.1136 -0.0534 -0.0098
 1306W        W17200   9.683   6.706  16.202  0.1320  0.2181  0.1004
 1307W        W17201   0.829   6.354  14.498  0.2895 -0.2373  0.2893
 1308W        W17202   0.793  11.141   2.688  0.3516 -0.1115  0.0326
 1309W        W17203   4.052   6.197  13.933  0.1111 -0.0886  0.3785
 1310W        W17204  11.680   5.473  13.797 -0.0169 -0.0740  0.2062
 1311W        W17205  17.611   5.641  14.695 -0.0826 -0.0642 -0.0391
 1312W        W17206  13.810   6.427  15.966  0.2026 -0.0164 -0.1695
 1313W        W17207   9.155  13.226   4.333  0.0159 -0.1412  0.0041
 1314W        W17208   6.004   4.640   5.012  0.1231  0.0300  0.1811
 1315W        W17209   8.301   3.985   0.551 -0.2846 -0.4798  0.0071
 1316W        W17210   1.494   9.691  14.833  0.3960  0.0028 -0.2287
 1317W        W17211  15.834  12.725   0.225 -0.0596  0.0364  0.0510
 1318W        W17212   3.418   4.362   6.007 -0.0861 -0.0009  0.0670
 1319W        W17213   8.519   3.538   0.605  0.0721 -0.0885  0.1432
 1320W        W17214   9.296  10.026   0.003 -0.2007  0.0722 -0.2272
 1321W        W17215  13.259   3.701  15.661 -0.1793  0.0744 -0.0668
 1322W        W17216  14.063   6.018  14.617  0.0674  0.1055 -0.1335
 1323W        W17217   8.200  13.591   4.353 -0.2227 -0.0405  0.0014
 1324W        W17218  15.008  12.866   2.899 -0.2238 -0.4878  0.2154
 1325W        W17219   0.585   2.965  15.539  0.0028  0.0116 -0.0045
 1326W        W17220   2.430   8.663   3.255  0.2296  0.3887 -0.4004
 1327W        W17221   9.819   7.826   1.756 -0.0701  0.0092  0.0736
 1328W        W17222   0.770  12.472   6.292 -0.1571  0.3066 -0.1631
 1329W        W17223   6.018   7.113  16.748 -0.0951  0.3362 -0.0876
 1330W        W17224   4.211   7.604  14.425 -0.5800 -0.1034  0.1896
 1331W        W17225  12.410   6.799  15.105 -0.1047 -0.0315 -0.1544
 1332W        W17226   7.692  16.989   3.887  0.0300 -0.4287 -0.1492
 1333W        W17227   1.814   5.907  16.567 -0.0042  0.1507  0.2165
 1334W        W17228  13.002  10.771  13.573  0.0585 -0.1600 -0.0147
 1335W        W17229   3.232  11.050   4.975 -0.0854 -0.1159 -0.2927
 1336W        W17230   5.819   3.789  16.138 -0.0474  0.0969  0.0766
 1337W        W17231  12.005   2.989   4.737 -0.1353 -0.1153  0.2220
 1338W        W17232   3.488  12.297  16.141 -0.3227  0.0436  0.0272
 1339W        W17233   5.581   3.788   3.185 -0.2933  0.2375 -0.1010
 1340W        W17234   4.902   3.288  14.571  0.0940  0.0303  0.0552
 1341W        W17235   2.873  15.651  14.770 -0.3993 -0.0232  0.2446
 1342W        W17236  13.141   4.405  13.778  0.2459  0.3830 -0.1073
 1343W        W17237  13.724  17.528  13.746 -0.3494  0.0195 -0.0414
 1344W        W17238   9.799  13.671   4.900 -0.1583  0.0787  0.1699
 1345W        W17239   0.244  15.639   4.308  0.1171 -0.1870 -0.2151
 1346W        W17240  11.087   7.066   6.030 -0.0552  0.0230  0.2675
 1347W        W17241   7.336  12.807   3.027 -0.3458 -0.2498 -0.1202
 1348W        W17242  17.537  14.078  11.804  0.3047  0.0216  0.1416
 1349W        W17243   6.801   0.115  17.208  0.1994  0.3197 -0.1090
 1350W        W17244   4.381  17.120   3.721 -0.0981 -0.1058  0.1022
 1351W        W17245   3.928   8.390   4.240 -0.0913 -0.0102  0.1523
 1352W        W17246   1.596   5.289   1.941 -0.1196  0.0427  0.0026
 1353W        W17247   6.587  13.284   4.469 -0.0397  0.1549 -0.1705
 1354W        W17248  14.109  17.458  14.716  0.1764 -0.0592 -0.0536
 1355W        W17249   4.186   7.628   4.716 -0.0371  0.3812 -0.0449
 1356W        W17250   9.583  10.446  12.738  0.0157  0.1222  0.1509
 1357W        W17251   0.378   0.708  15.568  0.0688  0.0474  0.0290
 1358W        W17252  10.660  14.900   0.637 -0.0192  0.2010 -0.3459
 1359W        W17253   1.511   0.145  15.949 -0.4428 -0.1650  0.1055
 1360W        W17254   9.968   2.253   3.973 -0.0166  0.0599 -0.0294
 1361W        W17255   3.761   1.972  13.628 -0.3726 -0.2183 -0.1297
 1362W        W17256   2.225  12.690  15.738  0.2408 -0.2003 -0.0396
 1363W        W17257  16.172  11.642  13.901 -0.1159 -0.0509 -0.1744
 1364W        W17258   2.459  15.085   1.189  0.1762 -0.1554  0.3105
 1365W        W17259  14.691  13.053   0.138 -0.1282  0.1817 -0.0228
 1366W        W17260  10.645   8.386  13.812  0.0236  0.2443  0.0201
 1367W        W17261   3.003   6.090  13.558  0.1816  0.0731  0.1133
 1368W        W17262   7.883   3.963   5.416 -0.0828  0.2729  0.0601
 1369W        W17263  15.935  12.730   0.700  0.0902  0.2265  0.0937
 1370W        W17264  13.707  15.121  14.456  0.2228  0.0282  0.1479
 1371W        W17265  11.225  12.078  12.051  0.0471  0.2895 -0.0006
 1372W        W17266   3.397   1.743   5.850  0.0020  0.2135  0.1745
 1373W        W17267  11.354  13.383  14.310  0.4001 -0.1653  0.4336
 1374W        W17268  16.351   2.870  11.854 -0.0171  0.1540 -0.2570
 1375W        W17269  13.612   8.235   2.283  0.0344 -0.1310  0.2163
 1376W        W17270  13.921  10.040   2.287 -0.1050 -0.3662  0.4695
 1377W        W17271  15.562  11.677  15.732  0.0632  0.1709 -0.3785
 1378W        W17272  17.497   4.103   2.490  0.0936 -0.2053  0.0079
 1379W        W17273   0.469   9.774  13.013 -0.2886  0.0718 -0.3155
 1380W        W17274   3.568  14.091   3.651 -0.0220 -0.0351  0.0028
 1381W        W17275  13.080   5.169   0.740  0.0506 -0.1218  0.0950
 1382W        W17276   2.842   3.723  13.896  0.0058  0.1804 -0.0776
 1383W        W17277  10.617   6.041  15.616  0.1203 -0.0142 -0.0317
 1384W        W17278   6.983  10.420  13.771  0.0766 -0.2800 -0.0641
 1385W        W17279  10.144  15.945  12.832  0.0455 -0.1656 -0.1301
 1386W        W17280   6.725   7.835  13.507 -0.0592  0.0214 -0.0849
 1387W        W17281  15.314   6.187  15.813 -0.2671 -0.3111  0.1032
 1388W        W17282   1.794  17.232   1.321 -0.0400 -0.0343  0.2003
 1389W        W17283  16.574   4.343   1.565 -0.0850  0.1163 -0.0127
 1390W        W17284   9.807  14.900   2.671  0.1081  0.1219 -0.0461
 1391W        W17285   4.119   3.141   5.094 -0.0121  0.0876  0.3030
 1392W        W17286   7.371   4.267  12.115 -0.0676  0.0699 -0.1508
 1393W        W17287  15.381  10.411   4.638  0.0040 -0.3391 -0.2652
 1394W        W17288  13.141   3.796  14.658  0.1333 -0.4339  0.0390
 1395W        W17289  12.276  12.402   3.286 -0.2251 -0.0980  0.0186
 1396W        W17290  11.727   8.356   1.290  0.2807  0.0195 -0.1349
 1397W        W17291  16.928  11.889   2.899  0.0586 -0.2226 -0.4207
 1398W        W17292   7.880  11.421  12.156  0.4011 -0.1498  0.1656
 1399W        W17293  12.715   9.402   5.277 -0.0946 -0.1134  0.1564
 1400W        W17294   8.766  13.455   0.466  0.0326  0.1541  0.2739
 1401W        W17295  15.781   3.062   0.859 -0.3215  0.2285 -0.2992
 1402W        W17296  15.741  13.709   1.577 -0.2239 -0.0899  0.0423
 1403W        W17297  10.411  11.986  16.567 -0.3273 -0.1912  0.0045
 1404W        W17298   8.752  11.087   2.510  0.2324  0.0240 -0.0859
 1405W        W17299  13.598  10.897  16.727  0.0211 -0.0662 -0.1545
 1406W        W17300  16.678   1.771   6.405 -0.2164 -0.0574 -0.3273
 1407W        W17301   4.667  16.837   5.302  0.0134 -0.4489  0.0086
 1408W        W17302   1.725  17.360   4.734  0.1056 -0.0863 -0.0372
 1409W        W17303   8.654  13.111  12.274 -0.0926  0.6280 -0.2467
 1410W        W17304   4.431  12.238   3.754  0.3062 -0.3607 -0.2556
 1411W        W17305   5.445  16.752  17.055  0.1153 -0.1650 -0.0276
 1412W        W17306   3.005   1.428   0.622 -0.2092 -0.2237  0.0489
 1413W        W17307   5.237  12.998  14.064  0.1444  0.1999  0.1515
 1414W        W17308  12.746  16.343  16.990 -0.0710 -0.0340 -0.0392
 1415W        W17309  10.159   6.938  16.402  0.1961 -0.3883 -0.0789
 1416W        W17310   4.525   0.122   1.294  0.2235 -0.0876 -0.1232
 1417W        W17311  15.867  12.397   3.255 -0.1388 -0.4302 -0.0428
 1418W        W17312   9.800   0.928   2.635 -0.0689  0.0338  0.1979
 1419W        W17313  10.089   9.576   2.141 -0.0802 -0.2920  0.0469
 1420W        W17314  16.879   2.402  13.185  0.2959  0.0240  0.2741
 1421W        W17315  13.143   7.547  15.447  0.2534  0.3043 -0.0595
 1422W        W17316   1.273  11.205   3.010 -0.0513 -0.3605  0.1432
 1423W        W17317   4.916  14.067  14.408 -0.1619  0.0670 -0.0412
 1424W        W17318   4.819   7.583  14.227  0.2299  0.3540 -0.2809
 1425W        W17319   5.272   4.902  14.825 -0.0325  0.6231 -0.4332
 1426W        W17320  13.977   2.280  14.219 -0.0847  0.1203  0.0713
 1427W        W17321   4.459   6.078  12.079 -0.1329 -0.0500  0.0073
 1428W        W17322  16.451  14.906   4.853  0.1613  0.0807 -0.2201
 1429W        W17323   3.768  14.604   2.367 -0.2812  0.0029  0.3238
 1430W        W17324  12.970   8.639   1.007  0.0936  0.1289  0.0012
 1431W        W17325  14.379  12.641  16.628  0.1365  0.1844 -0.1157
 1432W        W17326   3.316   2.247   3.365  0.2016  0.1378 -0.1552
 1433W        W17327  15.960  13.989  13.025  0.0874  0.0317  0.0048
 1434W        W17328  11.108   1.875  14.363 -0.0160 -0.1473 -0.4035
 1435W        W17329  11.022   8.884   0.562  0.1098  0.1457  0.0132
 1436W        W17330  13.160  13.789  16.936  0.3357  0.1087 -0.2118
 1437W        W17331   4.866   8.881  15.701 -0.0358 -0.1227  0.1751
 1438W        W17332  10.271  10.189  15.325 -0.0031 -0.2309 -0.0886
 1439W        W17333  11.566   0.980  16.879 -0.0830  0.0412  0.1492
 1440W        W17334   1.629  16.871  15.507 -0.1590  0.2463  0.2759
 1441W        W17335   2.205   0.082   3.514  0.1321 -0.0978  0.0030
 1442W        W17336   5.772   6.024   2.208  0.3405  0.0416 -0.0498
 1443W        W17337  11.822   3.155   3.291 -0.0446 -0.0629 -0.2468
 1444W        W17338   5.918   8.714  16.446  0.2507  0.0906  0.1739
 1445W        W17339   1.080  12.673  16.566 -0.1159 -0.0626  0.5395
 1446W        W17340   5.853   5.468  16.953 -0.1103 -0.2532 -0.0417
 1447W        W17341  13.378  16.815  12.577  0.0816  0.0491 -0.0634
 1448W        W17342  14.273   6.737  11.399  0.3393 -0.1110 -0.0312
 1449W        W17343   0.857  16.059   3.780  0.1149 -0.3274  0.2893
 1450W        W17344   7.536   5.691  15.522 -0.3161 -0.2015 -0.0134
 1451W        W17345  12.557   3.689  12.758 -0.0056  0.0742 -0.2701
 1452W        W17346   7.019  13.077  14.326  0.0336  0.0030  0.2267
 1453W        W17347  10.572   7.678  15.581  0.2525  0.0611 -0.1880
 1454W        W17348   5.847  10.158   2.334 -0.3403  0.1964 -0.2784
 1455W        W17349   1.171  12.081  14.212  0.0058  0.0431 -0.2125
 1456W        W17350  12.434  14.333   5.745 -0.0408 -0.0426 -0.5560
 1457W        W17351   1.844   3.839  15.999 -0.3531  0.1281  0.0340
 1458W        W17352  16.426   3.022   3.521 -0.0253  0.0619  0.0952
 1459W        W17353   5.856   3.079  17.077  0.0864  0.0037 -0.2564
 1460W        W17354   0.081  10.905   1.823 -0.0722 -0.1853 -0.0469
 1461W        W17355  13.372   7.137  15.281 -0.2696 -0.2218 -0.1228
 1462W        W17356  12.605   2.351  16.450 -0.3367  0.1433  0.1190
 1463W        W17357  12.062   0.126   3.792 -0.1440  0.2614  0.0634
 1464W        W17358  11.080  14.632   2.059  0.2262  0.0511 -0.4277
 1465W        W17359   3.104  13.300  14.996 -0.3578 -0.1025  0.1204
 1466W        W17360  12.640   1.607  12.605  0.3170  0.0393 -0.1513
 1467W        W17361  15.442   1.036  17.046 -0.0225  0.1084 -0.1911
 1468W        W17362   6.474  16.997  12.941 -0.0725  0.0105 -0.1678
 1469W        W17363   4.302  17.491  12.280 -0.0191  0.0805  0.1774
 1470W        W17364  11.878   6.325   1.828 -0.0326  0.5324 -0.2635
 1471W        W17365   6.074  13.773  17.052  0.0787  0.0450  0.0372
 1472W        W17366   9.995   3.146   4.007  0.1215 -0.1875 -0.2541
 1473W        W17367  11.557   2.555   5.314 -0.3203 -0.0056 -0.3264
 1474W        W17368   2.776   2.569   4.466  0.2289  0.0666 -0.0435
 1475W        W17369   2.067  17.071  15.086 -0.1136  0.1954 -0.0263
 1476W        W17370  10.187  13.480  14.203 -0.0091 -0.0181  0.1558
 1477W        W17371  12.023   9.137  15.300 -0.0979 -0.0152  0.2693
 1478W        W17372  17.622  17.515   4.553 -0.0246 -0.1498 -0.0385
 1479W        W17373   3.333  14.739  15.687 -0.1526 -0.0714 -0.3023
 1480W        W17374   6.037  10.968  12.522 -0.1126 -0.3017  0.0971
 1481W        W17375  10.643  12.481  16.738 -0.1271  0.1616 -0.0488
 1482W        W17376  15.243   1.992  12.825  0.0468 -0.1368  0.1381
 1483W        W17377   1.728   2.851  12.843 -0.1844 -0.0829 -0.1945
 1484W        W17378   7.605   0.303   3.608  0.0705 -0.1020  0.4342
 1485W        W17379   6.678   6.989   3.980  0.0195  0.4126  0.0409
 1486W        W17380   1.387   6.444   6.328  0.1975  0.1268  0.2008
 1487W        W17381  11.497  10.804  14.231  0.4302  0.0529 -0.0323
 1488W        W17382  12.211   5.052  15.082 -0.2856  0.1069 -0.1385
 1489W        W17383  13.469  15.006  13.549  0.2818 -0.1078 -0.0538
 1490W        W17384   0.090   0.078  12.645  0.0722  0.0685 -0.0583
 1491W        W17385   5.479   3.874  13.995 -0.3929  0.3274  0.0974
 1492W        W17386  12.982  10.156  16.909 -0.0744  0.2104 -0.1982
 1493W        W17387  12.157   0.668   1.744 -0.1699 -0.2275 -0.1735
 1494W        W17388  13.467   2.534  14.250  0.0727 -0.4723  0.0099
 1495W        W17389  11.610  13.773  14.591  0.2276  0.3336 -0.1801
 1496W        W17390  10.547  17.544  12.405 -0.1364  0.0640  0.1321
 1497W        W17391  11.018   1.762  15.408  0.4127  0.2617 -0.1508
 1498W        W17392   8.603  14.654   1.246 -0.0142  0.1914  0.0209
 1499W        W17393   0.642   2.710   3.201  0.3236  0.3554  0.2327
 1500W        W17394   0.783  15.663   4.103  0.2110  0.0239  0.3067
 1501W        W17395   2.482  17.366   0.524 -0.1219  0.0716 -0.2687
 1502W        W17396  13.677  11.274  17.195 -0.1029  0.1413 -0.0404
 1503W        W17397  10.493   4.314  14.866 -0.0824  0.1289  0.2290
 1504W        W17398  16.289   4.502  16.643 -0.1377  0.0073 -0.0678
 1505W        W17399   5.740   2.520   2.824 -0.0002 -0.0187 -0.2748
 1506W        W17400   5.878  14.007  13.009  0.1881 -0.1247  0.1974
 1507W        W17401  12.100  15.878  13.791 -0.2252 -0.0615  0.1436
 1508W        W17402  14.330   2.702   1.055 -0.2123 -0.1122  0.2886
 1509W        W17403  11.902  15.460  16.617 -0.3951 -0.0771  0.0352
 1510W        W17404   5.480  12.193  16.436  0.2152 -0.1590 -0.0901
 1511W        W17405  14.587   7.208   4.438  0.1498  0.0169 -0.4663
 1512W        W17406  16.486   2.198   3.836  0.1747 -0.1728  0.3279
 1513W        W17407   8.986   3.891  15.798  0.0375  0.2391 -0.1917
 1514W        W17408   4.616  15.730  15.139 -0.0960 -0.0002  0.2513
 1515W        W17409   9.158   5.276   2.247  0.1027  0.0299  0.2378
 1516W        W17410  13.828   3.846   1.920 -0.1155  0.0623  0.0139
 1517W        W17411  13.324  11.802   0.641  0.0304 -0.1316 -0.2454
 1518W        W17412   8.926   2.540   5.740  0.1391  0.2269 -0.2172
 1519W        W17413   8.281   2.096   4.502  0.1053 -0.2979  0.1766
 1520W        W17414  14.323  10.335   3.865 -0.0207 -0.2008  0.2760
 1521W        W17415   8.456   7.346   2.181  0.2027 -0.3102  0.3169
 1522W        W17416   0.132   8.368  16.443  0.4204 -0.1868  0.2424
 1523W        W17417  11.411   3.189  16.211  0.2347  0.0558 -0.1171
 1524W        W17418  13.790  13.238   1.640 -0.3410  0.0907  0.0658
 1525W        W17419   7.557  11.180   0.146 -0.1311 -0.0929 -0.2181
 1526W        W17420  16.096   8.814  12.533  0.2192  0.2135 -0.0839
 1527W        W17421   0.541   3.738  17.253 -0.3830 -0.0202  0.0334
 1528W        W17422   8.801  10.950   1.515 -0.0533  0.2279  0.0754
 1529W        W17423  12.941  14.014   1.582  0.0226  0.0674 -0.0596
 1530W        W17424   9.842  12.517   5.831  0.0357 -0.0699  0.0163
 1531W        W17425  14.343   6.095   1.499  0.0555 -0.0337  0.1717
 1532W        W17426  14.330   0.491  13.589 -0.1777 -0.3100 -0.0061
 1533W        W17427  10.544   8.799   0.728  0.5082 -0.1572  0.2905
 1534W        W17428  14.893   9.787   2.599  0.1969  0.3132  0.0862
 1535W        W17429   8.202  10.139  13.433 -0.1348 -0.0816 -0.0466
 1536W        W17430   5.535  10.254  16.717 -0.1207  0.1603 -0.0048
 1537W        W17431   9.468  12.478  13.496 -0.0481 -0.0877  0.2281
 1538W        W17432   3.414   3.461   2.742  0.0071  0.1112  0.1730
 1539W        W17433  15.542  16.442   1.095 -0.0565 -0.1404 -0.1581
 1540W        W17434   5.368  16.264   1.205  0.0231 -0.0257 -0.0135
 1541W        W17435   9.197   8.534  16.336 -0.1798 -0.0170 -0.1517
 1542W        W17436   2.880  15.988   1.700 -0.0774 -0.3887  0.0266
 1543W        W17437   6.233   0.741   1.567  0.1678  0.2098  0.0947
 1544W        W17438  13.224   8.892  14.436  0.2954 -0.0797  0.2405
 1545W        W17439  14.787  16.297   5.465 -0.0497  0.0216 -0.0600
 1546W        W17440   8.579   4.033   3.974 -0.1418  0.0180 -0.1938
 1547W        W17441  11.422   8.879   0.261  0.1626 -0.0685 -0.0689
 1548W        W17442   7.572  16.416   5.928 -0.2182  0.0937 -0.0531
 1549W        W17443   0.967  17.061  15.923 -0.0294  0.0897 -0.1177
 1550W        W17444   0.207  12.550  13.637  0.1947  0.2600  0.1809
 1551W        W17445   6.326  17.490  16.453  0.1377 -0.2823 -0.1293
 1552W        W17446   5.906   6.660  13.486  0.2251 -0.1959  0.0106
 1553W        W17447   9.254   5.817   0.945  0.1451  0.0883  0.0850
 1554W        W17448  17.074  17.415  15.916 -0.1648 -0.3696 -0.2245
 1555W        W17449   9.453   3.353   3.210 -0.1243 -0.3480  0.2561
 1556W        W17450   6.377   0.719  16.723 -0.0254  0.3728 -0.0602
 1557W        W17451  11.043   4.697   3.215 -0.0443  0.3509  0.1559
 1558W        W17452  13.847  11.989  12.154 -0.0322 -0.1475  0.2840
 1559W        W17453   7.330   6.062  15.276  0.2654  0.0003 -0.3310
 1560W        W17454  16.174   0.458  14.459  0.0338  0.0607  0.0097
 1561W        W17455  10.208  12.917  15.940 -0.0563 -0.0068 -0.2886
 1562W        W17456  14.974   3.682  13.661 -0.1334  0.2000 -0.1919
 1563W        W17457  16.668  16.430  14.962  0.2659  0.1343 -0.3017
 1564W        W17458   5.332   2.040   5.661  0.0490 -0.0222  0.3678
 1565W        W17459  12.230   3.971   3.469  0.0704 -0.2355 -0.1572
 1566W        W17460   7.480  13.154  14.054  0.1518  0.0303 -0.4138
 1567W        W17461  16.864  12.465  15.260  0.0732 -0.1000  0.1194
 1568W        W17462   1.474   8.683   3.686  0.0343 -0.1408  0.1905
 1569W        W17463  12.750   8.574  15.216  0.0969  0.1549 -0.0184
 1570W        W17464  14.351   4.963   0.094 -0.0214 -0.2282 -0.2169
 1571W        W17465   0.164  13.698   1.458  0.1805 -0.1172  0.1826
 1572W        W17466   4.596   4.783  17.021 -0.0433  0.0659 -0.2098
 1573W        W17467  15.258   5.432  12.426  0.2482 -0.1051 -0.2686
 1574W        W17468  14.124  15.393   0.215 -0.1660 -0.1297 -0.1145
 1575W        W17469   8.437  17.469   1.377 -0.1480  0.0576 -0.0585
 1576W        W17470  13.578   5.580  13.958 -0.2175 -0.0081  0.0253
 1577W        W17471   7.066   2.684   5.962  0.2366 -0.0818  0.1175
 1578W        W17472  15.177  13.528  13.099 -0.2296 -0.2453 -0.4205
 1579W        W17473   9.744  14.152  15.816  0.1384  0.1903 -0.0269
 1580W        W17474   3.075  13.382   2.631  0.2837  0.0948  0.2897
 1581W        W17475  15.451  16.330  14.861  0.0988 -0.2192 -0.0939
 1582W        W17476  16.274   3.973  14.051  0.0948  0.0444 -0.1412
 1583W        W17477   5.810   6.605  15.095 -0.0254  0.2973 -0.1189
 1584W        W17478   5.445  12.521   0.912 -0.1953 -0.2340 -0.0352
 1585W        W17479   5.731   9.553   0.484 -0.0451  0.0932  0.1384
 1586W        W17480   3.494   7.474   5.175 -0.5652 -0.1396  0.0638
 1587W        W17481   2.999   9.160   2.142  0.2585  0.4008 -0.2561
 1588W        W17482   7.062   9.374   2.206 -0.0377  0.1075 -0.1614
 1589W        W17483  12.699   9.375   1.211 -0.0005 -0.1646  0.0756
 1590W        W17484   2.340  10.690   1.485  0.1469 -0.0487  0.0788
 1591W        W17485   7.242  14.744  15.804 -0.1748 -0.0677 -0.1824
 1592W        W17486   1.443  10.259   1.211  0.0007  0.1352 -0.4530
 1593W        W17487  13.120  16.292   4.052 -0.1639  0.1477  0.2665
 1594W        W17488   4.809  17.543   2.267 -0.1717  0.0292  0.3490
 1595W        W17489   8.917  15.310  12.894 -0.2513 -0.0107  0.0414
 1596W        W17490   4.622   5.892  15.730  0.1601 -0.2673  0.2398
 1597W        W17491   2.669  10.798  13.594 -0.0774 -0.0797  0.1811
 1598W        W17492  13.472   8.064  15.518 -0.0113 -0.2617 -0.1017
 1599W        W17493   3.006  12.104   1.535  0.1065  0.0773 -0.0128
 1600W        W17494  17.465   7.593   3.944 -0.0372  0.4482  0.1875
 1601W        W17495  17.225   4.093  13.629 -0.1033  0.1270 -0.1938
 1602W        W17496   0.950  15.674  13.103  0.0825  0.2524 -0.0779
 1603W        W17497  15.124   2.119   0.942  0.3371  0.0793  0.0193
 1604W        W17498   9.456   5.882  14.375 -0.2267 -0.0220 -0.0819
 1605W        W17499  12.775   1.488  16.842 -0.1417  0.0180  0.0330
 1606W        W17500  14.130  13.625   3.425 -0.2259 -0.2286  0.3111
 1607W        W17501   8.186   8.640   2.480  0.2231 -0.1961 -0.2076
 1608W        W17502   4.157  10.544   5.007  0.2858  0.0042  0.2161
 1609W        W17503   9.687  14.471  14.888 -0.1179  0.2791  0.0211
 1610W        W17504  12.988  10.111  14.744 -0.0074  0.3820  0.2028
 1611W        W17505  17.219   0.743   3.724  0.1871 -0.0951  0.1921
 1612W        W17506   6.798  13.009  12.786  0.0268 -0.1529  0.0106
 1613W        W17507   3.857  15.958   5.093  0.0098  0.1184  0.3318
 1614W        W17508   5.833   4.483  12.324 -0.0961  0.0675  0.0906
 1615W        W17509  16.625   3.473  16.363  0.2287 -0.1029  0.0742
 1616W        W17510   2.109   7.568   1.476  0.1044 -0.0536  0.2129
 1617W        W17511   9.042   6.718  10.911 -0.0659 -0.1806 -0.1143
 1618W        W17512  16.951  11.191   5.567 -0.0338  0.1464 -0.0216
 1619W        W17513   5.178  12.567  12.653  0.1820 -0.0639 -0.1398
 1620W        W17514  12.922   8.483  14.729 -0.2615 -0.0499 -0.2391
 1621W        W17515   4.372  17.230   1.596  0.1939 -0.0866  0.3556
 1622W        W17516   4.137   5.685   2.913  0.1068 -0.0311 -0.0898
 1623W        W17517   9.709  14.225   3.339  0.1603 -0.0340  0.2719
 1624W        W17518  15.798   8.306   0.886  0.2456 -0.0583  0.0404
 1625W        W17519   5.161  10.462  14.719  0.0569  0.0721  0.1582
 1626W        W17520   1.924   0.912  12.892 -0.0014  0.2663 -0.1080
 1627W        W17521   1.326  17.590   4.467  0.1836 -0.3140  0.0892
 1628W        W17522   3.872   2.638  14.303  0.3271 -0.1939 -0.2803
 1629W        W17523  15.595  12.907  17.027 -0.0881 -0.0860  0.0946
 1630W        W17524   7.508  13.931   1.417 -0.0877  0.0856 -0.1771
 1631W        W17525  13.418  17.615   3.004  0.1938 -0.3412  0.1271
 1632W        W17526  14.148   3.278  12.484 -0.1267  0.1341  0.2630
 1633W        W17527   4.232  17.328  14.770 -0.3768  0.3047  0.0275
 1634W        W17528  10.221   9.584  13.860 -0.0386  0.3566 -0.0254
 1635W        W17529   0.943  13.279   2.281 -0.1878  0.1360 -0.2744
 1636W        W17530  12.201   9.570  11.757 -0.0027  0.0004  0.0895
 1637W        W17531  11.561   0.917   0.078  0.1372 -0.2637 -0.0311
 1638W        W17532  15.136  13.423  14.095 -0.0822 -0.1769 -0.0196
 1639W        W17533   7.060   9.921  12.524  0.1158 -0.2467  0.1284
 1640W        W17534   2.536   5.230   4.569 -0.1959  0.0114  0.1000
 1641W        W17535  11.370   3.548   0.745 -0.0155 -0.1563 -0.1618
 1642W        W17536  14.830   4.139  13.543  0.1740  0.0557  0.1045
 1643W        W17537  11.462   4.135  14.430  0.0075  0.1223  0.0586
 1644W        W17538   8.237   5.298   5.160 -0.2501  0.3646  0.2837
 1645W        W17539   2.644   1.336  13.248 -0.4026 -0.0121 -0.0677
 1646W        W17540  15.014  13.415   3.793  0.1822 -0.5600  0.0638
 1647W        W17541  13.248   9.092   1.934 -0.0628 -0.0963  0.1999
 1648W        W17542   4.885  13.540  11.671  0.2662 -0.1218  0.2219
 1649W        W17543  10.193   3.883   1.972 -0.0216  0.0484  0.2183
 1650W        W17544   2.736   6.670  16.587 -0.2827  0.1269 -0.0936
 1651W        W17545   4.410  15.171   6.793 -0.1270 -0.0203 -0.2059
 1652W        W17546  16.346   5.453  12.930  0.1096  0.0456  0.0993
 1653W        W17547  11.301   1.205  15.673 -0.1219 -0.1856  0.0113
 1654W        W17548  10.772   3.318   1.363  0.4415  0.0856 -0.0753
 1655W        W17549  17.071  16.787   3.222 -0.2902  0.0533  0.0765
 1656W        W17550   2.975   5.690   5.457  0.1949  0.1849 -0.3003
 1657W        W17551  12.886   6.713  12.012  0.0186 -0.0930  0.0393
 1658W        W17552  15.715   2.892   4.299 -0.0459 -0.0714 -0.0622
 1659W        W17553   7.315   6.515   3.695  0.0933 -0.1239  0.0982
 1660W        W17554   8.957  12.700  14.519  0.0087  0.0858 -0.0637
 1661W        W17555  10.925   3.333  16.408  0.2472  0.3440 -0.1028
 1662W        W17556  13.174   3.346   3.882  0.0081 -0.0775 -0.2293
 1663W        W17557   8.150  12.261   5.554  0.0108  0.2123  0.0344
 1664W        W17558  15.184   9.369  16.446 -0.0700  0.0877 -0.0359
 1665W        W17559   8.207   4.178  16.982  0.1114 -0.2564  0.0475
 1666W        W17560   7.061   5.759  16.191  0.0671 -0.1630 -0.3871
 1667W        W17561  16.615   7.878  12.187  0.2927  0.0657  0.1849
 1668W        W17562  15.696   2.022  12.534 -0.0773 -0.1039  0.1180
 1669W        W17563  10.601  14.670  14.667  0.0288  0.0168 -0.0902
 1670W        W17564   1.808  13.845  13.332 -0.1625 -0.0036  0.1927
 1671W        W17565  15.253   7.523  17.151 -0.1384 -0.0641  0.0657
 1672W        W17566  11.260  14.581  14.050  0.2769 -0.1340 -0.1734
 1673W        W17567   1.611  14.975   2.108  0.2892 -0.0735  0.0931
 1674W        W17568   0.561   8.783  17.074  0.1764  0.2490  0.1374
 1675W        W17569  15.746   5.553  13.837  0.3016 -0.1691 -0.2913
 1676W        W17570   1.196   9.697   4.755  0.0479 -0.0903  0.0064
 1677W        W17571  16.037   6.650   4.574 -0.3016  0.0106  0.0406
 1678W        W17572   2.815  10.508   1.456 -0.0981  0.1197 -0.3337
 1679W        W17573   2.537  11.447   4.501  0.1584 -0.0656 -0.0680
 1680W        W17574   6.471  13.026   1.499  0.0378  0.3476  0.0378
 1681W        W17575  13.593   3.000   0.648 -0.1757 -0.0110 -0.0017
 1682W        W17576  16.781  13.200   2.779 -0.0379  0.1392 -0.2499
 1683W        W17577   0.436   1.837  12.297  0.0844 -0.1111 -0.1248
 1684W        W17578   5.973  16.811   1.754  0.3623  0.1733  0.2338
 1685W        W17579  15.916   9.555   0.373  0.0326 -0.2742  0.4558
 1686W        W17580  14.214  10.364  14.523 -0.1127 -0.0712  0.1148
 1687W        W17581  10.007  12.516   1.870  0.3605  0.2694 -0.2369
 1688W        W17582   0.484  15.284  16.260  0.1408 -0.0813 -0.0727
 1689W        W17583  15.746   7.712  15.596 -0.3432 -0.1711  0.1215
 1690W        W17584  10.144  11.575   1.920 -0.0439  0.1253  0.1291
 1691W        W17585  11.128   1.189   4.101 -0.1925 -0.1513 -0.1630
 1692W        W17586   1.711   8.494   5.497  0.2952 -0.0765 -0.0473
 1693W        W17587  13.158   4.497   1.358 -0.0418 -0.0438 -0.1048
 1694W        W17588   4.535   2.494   2.322 -0.0423 -0.2791  0.0981
 1695W        W17589  16.524  15.359  12.335  0.0453  0.0565  0.0329
 1696W        W17590   7.590  12.305  12.763 -0.2078 -0.0134 -0.0759
 1697W        W17591   0.324   3.655   5.867 -0.2941 -0.3661  0.1477
 1698W        W17592   4.954  11.943   2.631 -0.0215  0.0588  0.1150
 1699W        W17593   3.486  11.539  16.937  0.2914 -0.2188  0.1083
 1700W        W17594   2.648   9.310   0.685  0.0305  0.0510  0.0215
 1701W        W17595  10.853   3.658   2.163  0.0649 -0.0922 -0.2075
 1702W        W17596   0.551  15.212   5.973 -0.1103 -0.2632 -0.0147
 1703W        W17597  10.226   5.278  12.988 -0.1784  0.0341 -0.0839
 1704W        W17598  11.870   8.577   3.169  0.2922  0.0800  0.2444
 1705W        W17599   3.557   7.614   4.320 -0.1690 -0.0909 -0.0328
 1706W        W17600  10.624   8.084   2.084  0.1990 -0.2067  0.1571
 1707W        W17601   8.283   0.011   0.924 -0.2127 -0.2271  0.1487
 1708W        W17602   9.886   0.497  15.672 -0.0312  0.0661 -0.1924
 1709W        W17603  13.530   3.777   5.761 -0.1183 -0.1086  0.1567
 1710W        W17604   9.574   6.698  13.556 -0.5489 -0.1628 -0.0429
 1711W        W17605   8.983   5.256   0.531 -0.2169 -0.3752  0.0729
 1712W        W17606  11.913   4.057  12.328  0.2109 -0.0782  0.0219
 1713W        W17607  10.906  13.584  14.716  0.1993  0.0540 -0.2382
 1714W        W17608   9.721  13.678   3.114  0.0215 -0.1349  0.0093
 1715W        W17609   7.938  15.345  11.388 -0.0294 -0.4835 -0.3613
 1716W        W17610   9.476  14.186  16.477 -0.0451  0.1097  0.1255
 1717W        W17611   4.782   9.426  11.629 -0.1890  0.2451 -0.0107
 1718W        W17612   9.980   2.790  17.009  0.1915 -0.0744 -0.2055
 1719W        W17613   9.201   0.720   7.031  0.0447  0.1563  0.1030
 1720W        W17614   4.762  14.952   0.571 -0.0311  0.1235 -0.2092
 1721W        W17615   3.182  11.114   3.506  0.0114  0.0295  0.2771
 1722W        W17616   4.844  10.433   1.524  0.0216  0.1435  0.1601
 1723W        W17617  12.261  12.419   4.201  0.2152 -0.0780 -0.0963
 1724W        W17618   0.015   5.840  14.229  0.2361  0.1420  0.0211
 1725W        W17619   0.703  12.517   2.672 -0.0508  0.3445 -0.0136
 1726W        W17620  12.355   7.929   0.645  0.0351 -0.0081  0.1019
 1727W        W17621   2.946   1.633  14.248 -0.1928 -0.1225  0.1354
 1728W        W17622  11.031   4.219   2.864 -0.3610 -0.0744  0.0875
 1729W        W17623   7.653   7.263  14.158 -0.0735  0.2632 -0.1670
 1730W        W17624  13.520  11.189  16.293  0.0518 -0.2397 -0.0255
 1731W        W17625   5.294  11.080  15.256 -0.2598  0.0623  0.1213
 1732W        W17626   3.967   6.371   3.632 -0.0405 -0.0381  0.1372
 1733W        W17627   7.693   7.012  15.248 -0.2962  0.3652  0.0488
 1734W        W17628   5.587   9.945  13.296  0.2054  0.0105 -0.0980
 1735W        W17629   7.844  10.410  13.627 -0.2011  0.1087  0.0061
 1736W        W17630   8.555  16.417   4.631  0.2349 -0.3328  0.2979
 1737W        W17631   6.112   3.319   0.233 -0.1832  0.0301 -0.0204
 1738W        W17632  17.074   3.477  16.079 -0.0015 -0.1360 -0.0226
 1739W        W17633   2.940  16.675  16.384 -0.1226  0.0306 -0.1139
 1740W        W17634  17.450  12.636   4.004 -0.0099  0.2976 -0.1670
 1741W        W17635  17.489   9.637  15.253  0.2662 -0.0765  0.0798
 1742W        W17636  16.619   9.365  11.436 -0.2739  0.2234 -0.0072
 1743W        W17637  15.288   8.008   0.148  0.0628  0.0828 -0.3086
 1744W        W17638  14.449  15.017   5.769 -0.1539  0.1166  0.2381
 1745W        W17639   9.958   5.843   1.536  0.1955 -0.1643 -0.2373
 1746W        W17640  16.237   3.749  15.003 -0.3274  0.0344 -0.0735
 1747W        W17641  15.342   7.835  12.440  0.0512 -0.2347 -0.1985
 1748W        W17642   0.165  16.248   1.662  0.0537  0.2876 -0.3088
 1749W        W17643   6.199  13.235   3.581  0.1248 -0.3064  0.2069
 1750W        W17644   1.803   9.426   0.279 -0.1773  0.2958  0.2904
 1751W        W17645  12.272   7.200  13.697  0.3959  0.1061  0.0816
 1752W        W17646  14.259   6.745  16.410  0.0812 -0.4774 -0.0754
 1753W        W17647   8.567  17.553   5.453 -0.0499  0.1526  0.2033
 1754W        W17648   4.729  11.286  12.043 -0.2175 -0.1246 -0.0605
 1755W        W17649   8.430   1.194  12.622  0.3188  0.1041 -0.1630
 1756W        W17650   2.143   6.140  13.513 -0.1029  0.3547 -0.0650
 1757W        W17651  14.723   6.771  16.747 -0.2986 -0.0356  0.0201
 1758W        W17652  13.787   0.146   0.119  0.0003  0.1342 -0.1155
 1759W        W17653  11.127   0.575  14.938 -0.1521 -0.0041  0.0241
 1760W        W17654  13.556   5.507   5.622  0.0434 -0.2664 -0.0706
 1761W        W17655  15.999   2.182   3.437  0.0380 -0.1110  0.0626
 1762W        W17656   7.206  14.776   3.589 -0.2457  0.3459 -0.1281
 1763W        W17657   8.888   7.638   3.224 -0.3317 -0.1283  0.3085
 1764W        W17658  16.074  16.896  12.702  0.1120 -0.2137 -0.3962
 1765W        W17659  10.579  13.022   0.724  0.3388  0.0733  0.4121
 1766W        W17660   8.261   2.199  14.567  0.1270  0.5191  0.1675
 1767W        W17661  12.093   9.481  17.253 -0.4476 -0.0756 -0.2170
 1768W        W17662  13.926   0.777   4.554 -0.2177  0.0574  0.0272
 1769W        W17663   7.769   9.598   5.224  0.0969  0.2113 -0.0747
 1770W        W17664   9.954   0.432  13.072 -0.1306 -0.0761  0.0216
 1771W        W17665  14.079  14.981  13.634 -0.0056  0.1871 -0.1746
 1772W        W17666  10.632  10.613  11.925  0.1340  0.2986  0.0012
 1773W        W17667   6.815   9.964  15.896  0.1839 -0.2994 -0.0492
 1774W        W17668   6.026  10.356  13.415 -0.0059  0.0654  0.3186
 1775W        W17669   4.863   0.869  13.855 -0.2890  0.1770  0.0065
 1776W        W17670   3.621  16.189  14.347  0.0119  0.0013  0.3837
 1777W        W17671   0.698  13.672   1.397  0.2291 -0.0213  0.1866
 1778W        W17672   6.305   3.746  12.913  0.1303 -0.2359 -0.1884
 1779W        W17673  11.234  17.565   3.532 -0.2143  0.0337 -0.3120
 1780W        W17674  13.684  13.351  14.274 -0.0946 -0.3468  0.1627
 1781W        W17675   1.317   9.665  12.000 -0.1579  0.0002  0.0746
 1782W        W17676   7.629  11.315   3.389 -0.0238 -0.1116 -0.2856
 1783W        W17677   9.442   8.789   4.923  0.2535 -0.0721 -0.1407
 1784W        W17678   8.930  12.696  16.808 -0.1645 -0.0471 -0.0291
 1785W        W17679  16.777  14.508   2.800 -0.3902  0.2055  0.6777
 1786W        W17680   9.502   3.571  12.924 -0.2322 -0.0496  0.0799
 1787W        W17681   6.816  15.461   4.634  0.1393 -0.1568 -0.2970
 1788W        W17682   5.986  16.443   0.474 -0.2760  0.3550  0.4160
 1789W        W17683   4.182   4.283  12.317 -0.0947  0.1110 -0.0050
 1790W        W17684   4.104   3.279  12.359  0.1471 -0.0919  0.2037
 1791W        W17685  14.999  16.391   5.003 -0.0047  0.0766  0.2796
 1792W        W17686   5.034  13.380  15.457  0.1720 -0.1580 -0.1684
 1793W        W17687  15.719  10.096   0.461 -0.0080  0.0980 -0.5665
 1794W        W17688   6.814   9.418  12.066  0.1940  0.2109 -0.0882
 1795W        W17689   6.341  11.784   1.438  0.1017  0.2159  0.0969
 1796W        W17690   8.434   3.318  13.130 -0.1956  0.3313 -0.0774
 1797W        W17691   1.441   8.786  14.547  0.0428 -0.2424  0.2195
 1798W        W17692   5.862   9.201  12.125  0.2007  0.1232  0.0715
 1799W        W17693   7.285  16.290  12.209 -0.2258 -0.0781  0.3804
 1800W        W17694   0.673   3.883  15.046  0.0594  0.1606 -0.1427
 1801W        W17695  15.798  13.186  12.620  0.2009 -0.0728 -0.0214
 1802W        W17696   1.883  11.840  16.235 -0.1539 -0.0655  0.0266
 1803W        W17697  11.371   5.997   0.502 -0.1813  0.1735 -0.3684
 1804W        W17698   4.646   3.311  12.617  0.0494 -0.0723 -0.1469
 1805W        W17699   3.687   8.483   0.703 -0.2719 -0.0918 -0.0562
 1806W        W17700   4.778   1.346   5.884  0.2656  0.3372 -0.0342
 1807W        W17701   5.093   5.214  15.191  0.0639 -0.1736 -0.5008
 1808W        W17702  14.005   2.350   4.283  0.2732  0.0165 -0.2493
 1809W        W17703   1.633  11.773   0.586 -0.1719  0.0961  0.0553
 1810W        W17704   6.730   1.226   1.932 -0.3405 -0.1224 -0.1027
 1811W        W17705   7.982  12.483  14.280  0.1941 -0.1336 -0.0006
 1812W        W17706   0.142   1.810   1.576  0.0779  0.0441 -0.3111
 1813W        W17707   6.366  14.023  12.889 -0.0653  0.0386  0.2473
 1814W        W17708  12.490  10.410  12.673  0.0023 -0.0118 -0.1014
 1815W        W17709  16.448  17.161  11.866  0.3392 -0.0063 -0.2457
 1816W        W17710   6.525   3.107   5.340  0.2184  0.0939 -0.1116
 1817W        W17711  11.385   7.835  16.297 -0.1475  0.0861  0.0893
 1818W        W17712   7.301   6.434   5.446 -0.1444 -0.0784 -0.0772
 1819W        W17713  15.713  14.655   2.534 -0.0497 -0.0761 -0.1574
 1820W        W17714  10.155   9.459   4.292  0.2958  0.1186 -0.4182
 1821W        W17715   4.261   2.434  12.658 -0.0469 -0.3141  0.0480
 1822W        W17716  10.875   2.055  15.015  0.1306  0.0419  0.0285
 1823W        W17717   1.578   5.116   3.685  0.2439 -0.2543  0.0769
 1824W        W17718   7.325  14.092   2.443 -0.1902 -0.0140 -0.2348
 1825W        W17719   2.274  12.212   6.514 -0.0651 -0.2438  0.0900
 1826W        W17720   7.693   9.346   3.446 -0.1354  0.4646 -0.1878
 1827W        W17721  15.784   2.124  15.877  0.2749  0.0547  0.2624
 1828W        W17722  11.304  11.687   5.312  0.0394  0.0258 -0.0007
 1829W        W17723   2.262   9.094  14.705 -0.0130  0.1668 -0.0632
 1830W        W17724  16.323  15.337   0.601  0.0120 -0.2659 -0.2818
 1831W        W17725  13.238  16.880  16.428 -0.2422  0.0412  0.1475
 1832W        W17726  17.431  10.254  15.145  0.2912 -0.1128  0.0830
 1833W        W17727   4.528   0.727  14.821 -0.0927  0.1073  0.2730
 1834W        W17728  10.067   6.059   3.110 -0.2785 -0.3442 -0.1505
 1835W        W17729   4.703  13.067  11.604 -0.2508 -0.1709 -0.0583
 1836W        W17730   4.258   3.375   4.670 -0.0147  0.0129 -0.0512
 1837W        W17731  12.022  16.574  11.851  0.0013  0.3482  0.3005
 1838W        W17732   1.362  15.426  12.704 -0.0400 -0.3766  0.1771
 1839W        W17733   3.148   2.039   3.786 -0.2277  0.0429  0.1421
 1840W        W17734   0.597  11.338   2.264  0.0939 -0.3340 -0.0512
 1841W        W17735   5.859  14.690   0.023 -0.0386  0.0160 -0.1650
 1842W        W17736  12.631   3.109  11.895 -0.2086 -0.1302 -0.1128
 1843W        W17737  15.548   0.585  16.222  0.0207  0.0534 -0.1307
 1844W        W17738  12.845   9.769  12.263  0.0097  0.0543  0.1269
 1845W        W17739   7.313   8.202   3.956 -0.0374 -0.0054  0.0154
 1846W        W17740  10.884  14.681  15.482 -0.0848  0.3366 -0.0664
 1847W        W17741  12.784  13.710  13.910  0.0641 -0.1031 -0.2709
 1848W        W17742   1.134  13.333  17.286 -0.0989  0.1228  0.1426
 1849W        W17743   8.450  12.866  15.871 -0.1051  0.4567  0.3621
 1850W        W17744   1.314   6.884  15.914  0.0463 -0.1126  0.3688
 1851W        W17745   6.753   5.473   0.574  0.0152  0.1218 -0.1892
 1852W        W17746  13.064   2.329  14.429 -0.0606  0.0579  0.0650
 1853W        W17747   2.915  14.478   1.784 -0.1806  0.1852  0.0037
 1854W        W17748  12.503   5.296  14.745 -0.1668 -0.0578 -0.2143
 1855W        W17749   9.477  14.985  15.717  0.3657  0.0388 -0.1765
 1856W        W17750   2.830  13.787  16.403 -0.0447 -0.1622 -0.0169
 1857W        W17751   7.103  12.655  15.602  0.2472 -0.0743 -0.0090
 1858W        W17752   7.054   3.681  11.991  0.1836 -0.0185 -0.0078
 1859W        W17753  10.872  13.792  11.753  0.2248  0.0662 -0.1732
 1860W        W17754  12.091  13.772   1.745  0.0198 -0.0644 -0.1016
 1861W        W17755   5.608   3.988   1.259  0.0738 -0.0180  0.1471
 1862W        W17756  12.383   5.848  12.192  0.0225  0.0082  0.1535
 1863W        W17757   7.727  15.369   5.211 -0.0911 -0.1233  0.0709
 1864W        W17758   5.593   0.521   6.277  0.1137 -0.0395  0.1486
 1865W        W17759  16.786  16.711   4.175  0.2280 -0.3702 -0.0621
 1866W        W17760   8.375  10.291  15.560 -0.0556  0.0341  0.1014
 1867W        W17761   8.527   0.716  15.417  0.0160  0.1458  0.0444
 1868W        W17762   9.816   1.152  13.329 -0.0574 -0.0843  0.0494
 1869W        W17763   3.108   6.642   0.250 -0.2253 -0.0833  0.2035
 1870W        W17764   7.359  14.944  13.867 -0.0975 -0.2904 -0.1868
 1871W        W17765  15.188  10.779  13.566 -0.0200 -0.0260 -0.0520
 1872W        W17766   6.626  16.002   1.211  0.1547  0.0519  0.0006
 1873W        W17767   3.513   4.144  16.741 -0.0590  0.0472  0.3620
 1874W        W17768  15.918   9.905   1.208  0.2766  0.0105 -0.2584
 1875W        W17769  11.477  13.889  11.767  0.0296  0.0042 -0.2692
 1876W        W17770   5.824  16.195   4.165 -0.2108  0.1858  0.2901
 1877W        W17771  15.684   3.199   0.177  0.1607 -0.0455 -0.1396
 1878W        W17772   6.427   8.712  15.324  0.2004  0.0786  0.1520
 1879W        W17773  12.916   0.101   4.975  0.1483 -0.1299  0.3707
 1880W        W17774  15.752   3.421   1.254  0.1949  0.3237  0.0519
 1881W        W17775   3.691   3.850   1.739 -0.0484  0.0363 -0.0447
 1882W        W17776  14.776   1.897  17.272 -0.1211 -0.0353 -0.0171
 1883W        W17777   7.064   1.007   3.109 -0.0800 -0.1228  0.0979
 1884W        W17778   9.933  13.402   4.507  0.2160 -0.0361 -0.0608
 1885W        W17779  13.386   7.537   0.380 -0.4459 -0.3301  0.1405
 1886W        W17780   3.029   5.939   6.859 -0.0843  0.0234  0.2106
 1887W        W17781   9.774  12.854   0.167  0.0176  0.0122  0.1442
 1888W        W17782  16.138   7.513   6.016  0.0675  0.0448 -0.2201
 1889W        W17783  10.122   5.685   4.210 -0.3197  0.2057  0.1516
 1890W        W17784   2.718   9.522  13.185  0.0243  0.0575 -0.0744
 1891W        W17785   9.178  14.523  13.212  0.0373 -0.0292  0.0824
 1892W        W17786  15.487   5.694   0.609 -0.0876 -0.1587 -0.0668
 1893W        W17787   4.413   4.608  14.401  0.1199 -0.0626 -0.1192
 1894W        W17788   4.176  13.920  15.062  0.0539 -0.0191 -0.0333
 1895W        W17789   4.396   2.770   1.318  0.0721 -0.1207 -0.3251
 1896W        W17790  15.832  16.677  17.059 -0.1239 -0.0532  0.1376
 1897W        W17791   8.999   2.672   0.423 -0.0161 -0.2457 -0.0363
 1898W        W17792   9.019  11.854   5.273 -0.1981  0.0395 -0.1278
 1899W        W17793   5.286   2.312  16.941  0.0246 -0.0908  0.0732
 1900W        W17794   3.224  15.860   3.677 -0.0409 -0.1043  0.1190
 1901W        W17795  16.730  11.720  14.206  0.0395  0.1669 -0.0334
 1902W        W17796  13.789   8.874  16.387  0.0210 -0.3396 -0.0593
 1903W        W17797  14.339   7.870  13.628  0.0020  0.2704  0.0752
 1904W        W17798  10.075   4.170   4.411 -0.3676  0.1392  0.0064
 1905W        W17799   8.150   0.090  12.833 -0.0344 -0.2253 -0.0151
 1906W        W17800   0.893  10.784   5.716 -0.1497 -0.3092 -0.1025
 1907W        W17801  16.403   8.877   6.126  0.0520 -0.0771 -0.0425
 1908W        W17802  14.087  14.828   5.452 -0.2877 -0.0471  0.0578
 1909W        W17803   5.368  10.785   4.501 -0.2783  0.2744  0.0806
 1910W        W17804   8.029   9.478   0.192 -0.0995 -0.2748  0.3359
 1911W        W17805  10.843   2.290  12.076  0.2445  0.1119  0.3065
 1912W        W17806   0.140  11.955   0.076  0.3802  0.1659  0.2721
 1913W        W17807   5.093   2.853   4.532 -0.1285 -0.1352 -0.0030
 1914W        W17808   7.140   2.264  12.653 -0.1601 -0.0354 -0.3207
 1915W        W17809   1.873   8.387   2.348 -0.0562 -0.0431  0.1575
 1916W        W17810   1.469   3.160   2.971  0.2481  0.0075  0.0888
 1917W        W17811   2.550   8.659  13.470 -0.0258 -0.0810 -0.1324
 1918W        W17812   1.092   2.425  13.658 -0.0866 -0.1335  0.0152
 1919W        W17813  10.187  11.320  14.051  0.0156 -0.2732 -0.0286
 1920W        W17814   8.895   4.315  13.805 -0.2059 -0.4123  0.1438
 1921W        W17815  10.620   5.474  11.785 -0.1630  0.2923  0.2248
 1922W        W17816  14.856   7.835   3.101 -0.1694  0.1798 -0.5954
 1923W        W17817   8.914  11.425   3.934 -0.1840  0.0589 -0.3018
 1924W        W17818   5.271   9.676   1.353 -0.0483 -0.0096 -0.1247
 1925W        W17819  11.788  11.058   0.694  0.1194  0.1145  0.0638
 1926W        W17820   0.409   4.902   4.507 -0.0197 -0.0543  0.1248
 1927W        W17821   8.919  16.855   0.513 -0.0161 -0.2240  0.0167
 1928W        W17822   8.366   8.708   3.303 -0.0259  0.1391  0.0123
 1929W        W17823  15.063  11.256  12.594  0.0053  0.1687  0.0378
 1930W        W17824  15.349  10.419  12.411 -0.0479 -0.0373  0.2601
 1931W        W17825  16.045   5.311  14.178 -0.1132 -0.1472 -0.0539
 1932W        W17826   1.742  15.243  12.991 -0.0680 -0.1419  0.2318
 1933W        W17827  17.477   3.862   4.435  0.2728  0.2835 -0.0670
 1934W        W17828  15.908  13.977  14.203  0.2812 -0.3285  0.1628
 1935W        W17829   2.663  12.864  15.886  0.3899  0.1386 -0.0913
 1936W        W17830   3.213   8.366   0.924  0.0042  0.2468  0.1141
 1937W        W17831  12.305   7.476  15.282  0.1234  0.1211 -0.0054
 1938W        W17832   5.027   1.994   1.380 -0.2535  0.0219  0.3482
 1939W        W17833  10.339  11.882  15.069  0.0858 -0.2179 -0.1709
 1940W        W17834   5.240  15.341  14.343  0.1284  0.2979 -0.1550
 1941W        W17835   6.253   5.603  17.185 -0.0054 -0.0399 -0.1456
 1942W        W17836  13.476  10.945   1.075 -0.2350 -0.3347  0.2224
 1943W        W17837  14.562  10.156  16.961 -0.2177 -0.2048 -0.2545
 1944W        W17838  10.906   1.554  11.277  0.1968 -0.1111 -0.3167
 1945W        W17839  17.617  14.189  16.911 -0.0900 -0.1372 -0.0205
 1946W        W17840   5.009   8.328   1.478  0.2485  0.3152 -0.4906
 1947W        W17841  13.652  14.008  13.516 -0.0731 -0.0427 -0.1300
 1948W        W17842  14.290   8.345   3.854 -0.2690 -0.0224 -0.2762
 1949W        W17843   8.672  13.627   2.732  0.2207 -0.1115 -0.2227
 1950W        W17844  13.496   1.123   5.705 -0.0007  0.1615 -0.0251
 1951W        W17845   3.297   5.004  16.487 -0.1959  0.2230  0.0016
 1952W        W17846  11.396   0.338   1.691  0.1997 -0.0747 -0.1733
 1953W        W17847   6.482   9.064   1.472  0.2379  0.0292  0.1110
 1954W        W17848   6.325  10.952   3.131  0.0789 -0.2104 -0.0708
 1955W        W17849   1.744   1.807  14.855 -0.0115  0.0338  0.0278
 1956W        W17850  13.563   9.555  13.189 -0.4445  0.1989  0.0953
 1957W        W17851   1.773   5.067  15.797 -0.0013 -0.3168  0.0295
 1958W        W17852   6.724   2.079   5.513 -0.0378 -0.0666 -0.2351
 1959W        W17853  10.115  10.839   2.593  0.2418  0.2738 -0.1717
 1960W        W17854   5.674  12.199   2.330  0.4266  0.2014  0.1406
 1961W        W17855   1.059  11.225  12.964  0.0408  0.0267  0.1083
 1962W        W17856  13.150   8.416   4.108  0.1808  0.1292  0.5085
 1963W        W17857   2.518   3.994  12.574  0.0005  0.0614  0.2084
 1964W        W17858  10.688   5.244  12.279  0.1671  0.0420  0.3887
 1965W        W17859  11.840   2.051   2.672 -0.4568  0.0097  0.2859
 1966W        W17860  15.235   9.139   0.534 -0.0885 -0.0796 -0.2347
 1967W        W17861  15.211   5.445   2.348 -0.0528  0.3549 -0.0256
 1968W        W17862   8.481   8.908   2.809 -0.2472  0.0123 -0.1056
 1969W        W17863   8.367   2.489   0.995  0.1522 -0.0973  0.2034
 1970W        W17864   3.421  15.590  13.922 -0.1326 -0.0276  0.1664
 1971W        W17865   9.424   4.166   1.983 -0.1296  0.0012 -0.1692
 1972W        W17866   1.499  14.010   2.034 -0.2271 -0.1113  0.0101
 1973W        W17867  17.044   3.902  15.663  0.0046 -0.0902  0.5446
 1974W        W17868   9.507   5.045  15.783 -0.0270  0.2212  0.1265
 1975W        W17869  15.717  11.720  11.746  0.1209  0.1176 -0.2726
 1976W        W17870   5.404  11.019  15.941  0.2741 -0.3002 -0.0323
 1977W        W17871  14.170   2.713   3.392  0.2531  0.2706 -0.0444
 1978W        W17872   7.854  13.284   3.126 -0.0012  0.0728  0.1543
 1979W        W17873   7.053   5.419   1.728 -0.1196  0.1456  0.3046
 1980W        W17874  16.778  15.493   2.979 -0.1750 -0.2616 -0.0039
 1981W        W17875   6.826  12.859   4.219  0.0973 -0.1359 -0.0189
 1982W        W17876   2.791   3.805   4.804  0.1238  0.0746  0.2923
 1983W        W17877  13.817   6.836   0.585 -0.4205  0.0417 -0.0428
 1984W        W17878   2.636  12.572   6.544  0.0223 -0.1408  0.2744
 1985W        W17879   9.361  14.067  14.694  0.2630  0.7180 -0.0655
 1986W        W17880   7.055   7.978  16.817  0.1566  0.0173 -0.1187
 1987W        W17881  16.371  12.180  12.888 -0.1063  0.1107  0.0751
 1988W        W17882   1.467   6.011   6.707 -0.1950  0.0771 -0.0863
 1989W        W17883  11.455   5.363  16.537  0.3773  0.0063  0.1520
 1990W        W17884   3.831  11.450  15.602  0.0562 -0.1905  0.2646
 1991W        W17885  13.482   7.794  14.499  0.0232 -0.2631 -0.4995
 1992W        W17886   4.397   3.629  15.343  0.0026 -0.2222  0.1015
 1993W        W17887   1.975   7.930   2.005  0.2496 -0.0297  0.1850
 1994W        W17888   6.615   9.698   2.583  0.1670 -0.2639 -0.5312
 1995W        W17889   5.773   5.646   5.833 -0.0657 -0.0997 -0.0280
 1996W        W17890   2.084   9.433   5.259 -0.1171  0.1201  0.0116
 1997W        W17891  10.298   5.155   4.148 -0.1648 -0.0596 -0.0249
 1998W        W17892   4.201   2.453   3.638  0.0045 -0.0703  0.1158
 1999W        W17893  17.021  12.186   5.521  0.1183 -0.4014 -0.2236
 2000W        W17894   0.408  11.725   3.174  0.1803 -0.0746  0.0885
 2001W        W17895   3.051  16.823   2.689  0.2035 -0.3566 -0.2767
 2002W        W17896   9.899   8.340   3.418  0.0823  0.0763 -0.1362
 2003W        W17897   2.094  16.425  16.353 -0.3657 -0.4905 -0.4441
 2004W        W17898  16.613   3.911   1.965 -0.1596 -0.0305  0.1400
 2005W        W17899  14.138   1.661  12.367  0.1544  0.3274  0.3365
 2006W        W17900   7.251   6.973  13.474 -0.3028  0.3193 -0.1415
 2007W        W17901  16.307   2.941   0.201 -0.0073  0.0060  0.1854
 2008W        W17902   7.523  11.613   1.646 -0.1764 -0.1692  0.2713
 2009W        W17903   4.550  13.974   0.989 -0.1226 -0.5008  0.3313
 2010W        W17904  15.585   5.169  15.639 -0.2097 -0.0761  0.3026
 2011W        W17905   5.144  11.228   1.276 -0.0893  0.0433 -0.0720
 2012W        W17906   9.469  12.326   3.791 -0.0260  0.0421 -0.0446
 2013W        W17907  13.953   7.093  15.237  0.0231 -0.3849  0.3206
 2014W        W17908  12.573   1.639  13.990 -0.0120 -0.0751  0.2325
 2015W        W17909  13.466   7.765   3.117  0.1808 -0.1977 -0.0161
 2016W        W17910   1.298  10.622   6.013 -0.3301  0.1391  0.0652
 2017W        W17911  16.716   8.448  12.402  0.0571 -0.1208 -0.1157
 2018W        W17912   6.021   4.344   2.085 -0.0307 -0.2684 -0.1447
 2019W        W17913   4.366   0.048   3.887 -0.1691 -0.2745 -0.0811
 2020W        W17914  13.960   6.451   0.313 -0.2584  0.3055  0.1783
 2021W        W17915   5.170   2.698   0.128  0.1188  0.2616  0.0378
 2022W        W17916  12.832  11.216   3.520  0.2188 -0.0685 -0.0630
 2023W        W17917   3.881  13.643  13.575 -0.3244 -0.0882 -0.0961
 2024W        W17918   2.006   6.030  16.094  0.2283 -0.2244  0.2021
 2025W        W17919   9.599  16.356  13.526  0.0207  0.1847 -0.1585
 2026W        W17920   4.389  10.630  15.084 -0.1169  0.1846  0.0713
 2027W        W17921   7.779  15.499  17.043 -0.0097 -0.1035 -0.0057
 2028W        W17922  13.087  12.112  16.301 -0.3890  0.2380 -0.0092
 2029W        W17923   9.977  13.296  12.502 -0.0678  0.2225 -0.2116
 2030W        W17924  10.990   8.939  15.865  0.2458  0.1634 -0.0317
 2031W        W17925  15.421  11.544   3.450  0.1283  0.2930  0.2487
 2032W        W17926  11.877   7.093  16.729 -0.0915  0.0856 -0.0251
 2033W        W17927   5.676  17.432   0.560  0.0497 -0.4973 -0.0643
 2034W        W17928   0.378   5.498   1.231  0.3038 -0.0239 -0.0559
 2035W        W17929  16.403   2.163   0.323  0.1204 -0.1317  0.0988
 2036W        W17930  11.803   4.870   0.933 -0.2915 -0.0161  0.0281
 2037W        W17931   2.163  12.238  12.975 -0.1519  0.0411 -0.1244
 2038W        W17932  12.867   0.630   5.003 -0.1779  0.0249  0.2610
 2039W        W17933  13.858  11.373  14.015  0.0074 -0.2211  0.1664
 2040W        W17934  16.411   4.726  13.641 -0.0237 -0.1731  0.1542
 2041W        W17935   7.502   7.709  16.784 -0.1496  0.2730 -0.1795
 2042W        W17936   6.095  11.211  14.350  0.2499  0.1065  0.1391
 2043W        W17937  13.288  11.280   0.762  0.1797 -0.0461 -0.2383
 2044W        W17938  11.790  17.545   3.402 -0.1529  0.0893 -0.1588
 2045W        W17939  10.241  16.791   2.351 -0.1401 -0.4997  0.1146
 2046W        W17940   0.706   8.313  17.297  0.0632  0.0283  0.2306
 2047W        W17941  15.571  13.169  13.090 -0.0071 -0.1952  0.5422
 2048W        W17942   8.227  11.135   2.263 -0.2275  0.1891 -0.3256
 2049W        W17943   4.611   8.365   5.100 -0.1898 -0.0312  0.0240
 2050W        W17944  15.321  17.456   2.545  0.0795  0.1023 -0.0167
 2051W        W17945   9.659  10.997   1.057  0.0582  0.0437  0.0966
 2052W        W17946  16.715  10.770   4.002  0.0385 -0.3242 -0.0191
 2053W        W17947   3.579   5.887   0.580 -0.0601 -0.1574  0.2872
 2054W        W17948  16.911  10.388  15.399 -0.0919  0.2060 -0.0121
 2055W        W17949  14.366  12.184  14.465  0.0354  0.1492 -0.0233
 2056W        W17950   8.790  10.825  15.316  0.0556  0.0871  0.1180
 2057W        W17951  12.561   0.885   2.665  0.0055 -0.0469  0.0321
 2058W        W17952   3.625   1.041  14.050  0.2201 -0.0439  0.1122
 2059W        W17953   5.869   1.861   0.151  0.0529 -0.1573  0.1000
 2060W        W17954  13.847  15.782   1.546  0.1426 -0.0819 -0.3156
 2061W        W17955  16.161  16.031   2.469  0.2133 -0.0333  0.2238
 2062W        W17956   7.144   6.285  12.876  0.2318  0.2871  0.0318
 2063W        W17957   8.157   4.738  13.620 -0.1112  0.0316  0.1223
 2064W        W17958   5.555  13.025  13.156 -0.1599  0.1479 -0.3711
 2065W        W17959   8.554  14.525   5.951  0.0038  0.1167 -0.0253
 2066W        W17960  13.078   7.623   3.412  0.1935  0.3470 -0.0657
 2067W        W17961   9.160   0.228   6.136  0.3995  0.0084 -0.3386
 2068W        W17962  12.359  12.515   2.507 -0.0855  0.1108  0.1673
 2069W        W17963  11.091  11.363   1.281  0.1741 -0.3318  0.1689
 2070W        W17964  16.699   2.164  15.143  0.0541 -0.2225  0.3276
 2071W        W17965  16.991   4.411  14.785  0.3477 -0.1719  0.1407
 2072W        W17966  16.028  10.600   1.309  0.0877  0.1640 -0.2243
 2073W        W17967   8.237  12.477  16.054  0.0300  0.1618  0.2820
 2074W        W17968  13.793   3.427   0.619  0.0095 -0.1284  0.1456
 2075W        W17969   4.197  13.299  13.438 -0.0081  0.0014  0.0208
 2076W        W17970  13.756   2.722   2.345 -0.1165  0.1298 -0.1206
 2077W        W17971  12.402  10.678  15.542  0.1980  0.1265 -0.4786
 2078W        W17972   0.221   9.353  14.052  0.1282 -0.0740 -0.3677
 2079W        W17973   2.505  11.809   6.683  0.1116 -0.3308  0.1113
 2080W        W17974   0.589  16.146  12.554  0.0231 -0.1105 -0.2958
 2081W        W17975   0.440   4.005   4.229 -0.0792 -0.0086 -0.2403
 2082W        W17976   0.301   7.965   5.587  0.0513  0.1459 -0.2205
 2083W        W17977   2.724  10.202   5.104  0.0595 -0.1852  0.0537
 2084W        W17978   1.643  15.494  14.048 -0.1383 -0.2865  0.0593
 2085W        W17979  14.572  11.131   4.462  0.1169 -0.0361 -0.3765
 2086W        W17980   2.284  17.327  13.356  0.1543  0.2187  0.0908
 2087W        W17981  15.997   8.854  14.287 -0.2670 -0.2179  0.1233
 2088W        W17982  15.522  12.095  13.810  0.1775 -0.2158 -0.1365
 2089W        W17983   1.376   7.062  14.543 -0.0427 -0.0203 -0.2637
 2090W        W17984   5.903  12.655  14.563  0.1617 -0.2095 -0.0972
 2091W        W17985  14.231   0.533  13.079 -0.1610  0.0793 -0.0123
 2092W        W17986   1.374   1.980  15.277  0.0044 -0.0644 -0.1374
 2093W        W17987   5.009   0.548  14.657  0.3894 -0.0581  0.0318
 2094W        W17988   7.057  10.720  12.188  0.0774 -0.0283  0.2548
 2095W        W17989   2.246   4.620   5.755 -0.2597 -0.0337 -0.1247
 2096W        W17990   8.493   2.919   5.724 -0.0316  0.1656  0.0910
 2097W        W17991  15.838  14.052  11.166  0.1677  0.0719  0.2442
 2098W        W17992  11.257   0.805   5.503  0.0770  0.1234  0.0358
 2099W        W17993   4.755  17.045   6.245 -0.1926 -0.3330  0.1375
 2100W        W17994   7.913  11.475   1.893  0.1750  0.1374  0.1716
 2101W        W17995   4.348   9.650   4.651  0.0350  0.0444  0.0621
 2102W        W17996   3.879  15.414  13.889 -0.0209 -0.0145 -0.3336
 2103W        W17997   3.572   2.450   3.757 -0.1172 -0.0802 -0.1526
 2104W        W17998   7.958   6.125  17.111  0.1851 -0.0492 -0.0000
 2105W        W17999  15.247  12.448  14.127  0.2053 -0.0440 -0.3430
 2106W        W18000   0.321  10.834   0.135 -0.1740  0.0920  0.3307
 2107W        W18001   1.534  13.722  14.788  0.0691  0.1436  0.1521
 2108W        W18002  12.447  11.036   3.266 -0.1152 -0.2228  0.1403
 2109W        W18003   6.132   4.090   4.116 -0.0653  0.3494  0.4321
 2110W        W18004   1.934  15.283  15.945 -0.1413  0.0942 -0.1736
 2111W        W18005   9.587  12.361   1.607  0.0759 -0.2119 -0.2843
 2112W        W18006   0.772  14.695  14.575  0.1803 -0.2262  0.3091
 2113W        W18007   1.478  16.564   4.391 -0.0415 -0.1480  0.3799
 2114W        W18008  12.512   7.355  12.681  0.0841 -0.1355 -0.1361
 2115W        W18009   7.839   0.237  16.561 -0.0767  0.0569 -0.0306
 2116W        W18010  14.499   7.243  16.591 -0.1068  0.2540  0.1287
 2117W        W18011   8.834  17.340  15.666 -0.0581  0.1337  0.2310
 2118W        W18012  11.202  14.047   0.993  0.2852  0.3137 -0.2865
 2119W        W18013   6.849   5.548  17.067  0.0502 -0.0753 -0.0338
 2120W        W18014   1.426  13.857   3.525 -0.0238 -0.1006  0.0264
 2121W        W18015   0.840   1.175  12.172 -0.0000 -0.0479 -0.0691
 2122W        W18016   1.681   4.488  12.737 -0.1495 -0.2182  0.2943
 2123W        W18017   7.703   3.356   4.638  0.0967  0.0579  0.1239
 2124W        W18018   7.495   4.877   0.553 -0.0451  0.2949 -0.0908
 2125W        W18019   4.710   2.232  14.211  0.0220  0.1737  0.1061
 2126W        W18020  11.654   9.721   5.435  0.2200 -0.0333  0.0157
 2127W        W18021   9.003   0.479   2.022  0.0639  0.1267  0.1339
 2128W        W18022   7.426  12.217   0.314  0.1171  0.0214 -0.0182
 2129W        W18023   4.754   0.878   2.470  0.0038 -0.1519  0.0061
 2130W        W18024  13.784   7.359   2.740  0.0080  0.0047 -0.4645
 2131W        W18025   4.363   8.878   2.088 -0.0333  0.0932  0.0399
 2132W        W18026   0.925   9.475  15.281  0.2556  0.1238  0.0529
 2133W        W18027   8.483  11.155  13.899  0.2632 -0.2578 -0.2177
 2134W        W18028   6.766   3.276   4.962 -0.1009 -0.1603 -0.2410
 2135W        W18029   1.993   4.899   6.741  0.0744 -0.2861  0.1879
 2136W        W18030  11.777  14.203  12.420  0.0759  0.3233  0.0194
 2137W        W18031   6.904   7.866  12.531 -0.0577  0.1259 -0.1060
 2138W        W18032   4.889   9.539  12.743 -0.0925 -0.0942 -0.2992
 2139W        W18033   8.061   9.695   0.987 -0.2039  0.2154  0.0996
 2140W        W18034   6.283   9.367   1.154  0.3985 -0.2244 -0.1111
 2141W        W18035   8.895   8.057   5.088  0.1176  0.0625 -0.1199
 2142W        W18036   3.870  12.226   6.085 -0.3827  0.0006 -0.1747
 2143W        W18037  13.695   7.010   1.538  0.2338 -0.1009 -0.1745
 2144W        W18038  10.736  17.259   0.986  0.2403  0.1186  0.1354
 2145W        W18039  10.293   5.640  14.329 -0.0480  0.1054 -0.2203
 2146W        W18040   2.461   5.091   5.615 -0.0289 -0.0081  0.1766
 2147W        W18041   0.795   1.179   0.864 -0.3154 -0.0922  0.0892
 2148W        W18042  17.576   5.498   1.421  0.1512  0.2653  0.0341
 2149W        W18043  10.004  16.338  14.559 -0.2752  0.5282 -0.0628
 2150W        W18044   8.303  14.162   2.033  0.1300 -0.1313  0.1744
 2151W        W18045  12.820  15.835   1.832  0.2999 -0.1244  0.0888
 2152W        W18046   6.320   1.317  13.170  0.2785  0.2877  0.1933
 2153W        W18047   3.351   4.509  15.515 -0.1332 -0.2936 -0.2895
 2154W        W18048  13.821  17.076  15.518  0.0791  0.5818 -0.0020
 2155W        W18049  11.450   8.426   5.474  0.0572 -0.1224  0.3162
 2156W        W18050  13.493   9.168  16.171 -0.0401 -0.0792  0.4858
 2157W        W18051  14.564   8.707  12.078 -0.1672 -0.1980 -0.1977
 2158W        W18052   1.873  15.236   3.046  0.1756  0.0229  0.1073
 2159W        W18053   0.603  15.933  12.128 -0.0941 -0.1643  0.0491
 2160W        W18054   6.068  10.717  12.952  0.0107 -0.3929 -0.2310
 2161W        W18055   8.561   3.067   5.198 -0.0464  0.0211  0.2327
 2162W        W18056  15.020   7.242  16.691 -0.0507 -0.0541  0.1638
 2163W        W18057  12.621  16.258   5.410  0.2374 -0.0336 -0.1072
 2164W        W18058   3.459   3.425   4.079  0.3482 -0.2038  0.2024
 2165W        W18059  16.966   3.561   2.027 -0.0282  0.0208 -0.0425
 2166W        W18060   9.631   6.026   2.269  0.0164 -0.1487 -0.1910
 2167W        W18061   9.855   8.108  12.861  0.0288 -0.1111  0.2300
 2168W        W18062  16.533   4.267   0.323  0.3020  0.1371 -0.0258
 2169W        W18063   6.103  10.621   2.245 -0.1374 -0.0410 -0.1799
 2170W        W18064  12.393  12.343  15.569  0.1458  0.0632 -0.0139
 2171W        W18065  13.951  16.976   2.259  0.2480 -0.1263  0.2452
 2172W        W18066   9.598  15.549   4.359  0.0437 -0.0503  0.3437
 2173W        W18067   2.608   8.786   1.553  0.1671 -0.1275  0.1126
 2174W        W18068  13.661   9.580   0.276 -0.2019  0.2482 -0.4407
 2175W        W18069   0.953   3.055   3.533 -0.1386  0.2703 -0.0078
 2176W        W18070  10.741  11.776   1.256  0.1376  0.1083 -0.0092
 2177W        W18071  10.382  12.278   3.622  0.2786  0.1613 -0.0406
 2178W        W18072   8.719  16.839   3.375 -0.0196  0.1208  0.0672
 2179W        W18073   9.344   2.461  13.349 -0.1351 -0.0765 -0.0752
 2180W        W18074   7.543   2.151  14.658  0.1458  0.4802  0.0115
 2181W        W18075   7.470   2.420  13.136  0.0972  0.0228 -0.2047
 2182W        W18076   0.490  14.735  16.219  0.0432  0.1520  0.2665
 2183W        W18077   3.929   4.181  17.024  0.1990 -0.1046 -0.1720
 2184W        W18078  12.435  13.519  12.443 -0.1288 -0.1188  0.1586
 2185W        W18079  16.254   7.696  14.074  0.3774  0.2706 -0.0403
 2186W        W18080  16.494   4.121  13.122 -0.0938 -0.0654 -0.0395
 2187W        W18081  14.734   7.592   4.747  0.2463  0.0617  0.1280
 2188W        W18082  10.737  16.269  12.227 -0.0560 -0.2224  0.2179
 2189W        W18083   4.049   0.517  15.801 -0.2778  0.0142 -0.1409
 2190W        W18084  13.952   3.541   1.151 -0.1507 -0.0320 -0.0195
 2191W        W18085  12.591   2.545   3.327  0.0194  0.1892 -0.1331
 2192W        W18086   4.576   0.431   2.372 -0.1071  0.0112 -0.0253
 2193W        W18087   3.450  12.043  17.012 -0.1502  0.1474  0.1720
 2194W        W18088   6.644  14.044  16.334 -0.2858 -0.0812 -0.1946
 2195W        W18089   9.485  11.481   3.741 -0.0345 -0.1661  0.0043
 2196W        W18090  14.820   2.249  14.925 -0.2952 -0.3170  0.0587
 2197W        W18091  10.480  10.365   2.636 -0.1276  0.2773 -0.0574
 2198W        W18092   7.798  12.138   5.884  0.0482  0.2393  0.2740
 2199W        W18093   2.710   4.137   0.821  0.3254  0.2017 -0.0315
 2200W        W18094   7.041   1.960   1.013 -0.1725 -0.1297  0.0408
 2201W        W18095   9.650   3.747  13.365 -0.0984 -0.0868 -0.1027
 2202W        W18096   5.795   4.186   1.636  0.0432  0.1645  0.0853
 2203W        W18097  12.965   2.762   2.472  0.0342 -0.1259 -0.2397
 2204W        W18098   4.631  16.128   3.662  0.1660  0.3025  0.1601
 2205W        W18099   9.623  14.712   3.282  0.3823  0.0407  0.0681
 2206W        W18100  12.031   0.787  17.185  0.0639 -0.0295  0.0193
 2207W        W18101   4.374  16.520  12.397 -0.1249  0.0516 -0.5754
 2208W        W18102  16.512  17.184   0.635 -0.0784 -0.0678 -0.0628
 2209W        W18103   9.693  11.531  16.209  0.0039 -0.2082 -0.0653
 2210W        W18104  11.876   4.822  11.574  0.1103  0.0285  0.0018
 2211W        W18105   9.749   3.803  16.227  0.1470 -0.0704 -0.2773
 2212W        W18106   5.395   7.687   1.364  0.1086 -0.3860 -0.0947
 2213W        W18107   8.040  13.711   5.168 -0.2994 -0.0367  0.2373
 2214W        W18108   2.391  14.942   5.444 -0.1149  0.1241  0.1484
 2215W        W18109   7.026   4.583  17.298  0.0841 -0.3495 -0.2472
 2216W        W18110   8.053   6.285   0.294  0.1218 -0.1338 -0.0327
 2217W        W18111  13.564   3.070  14.584  0.0989 -0.3436  0.0077
 2218W        W18112  15.010   7.452  14.917 -0.1668 -0.0272 -0.0890
 2219W        W18113  14.579   4.626   5.350  0.1641  0.0519  0.3156
 2220W        W18114  17.604   6.477  16.906  0.2561 -0.1048 -0.0148
 2221W        W18115  17.554  10.515   2.145 -0.2900 -0.2306  0.1083
 2222W        W18116  15.210  10.704   2.909  0.1985  0.1477 -0.1743
 2223W        W18117   2.512  12.887   6.163 -0.3513 -0.1687 -0.0988
 2224W        W18118   9.693  10.855   0.293  0.0603  0.5748 -0.0598
 2225W        W18119   1.470  13.280   3.407  0.2018 -0.1337  0.2571
 2226W        W18120   7.454   5.566  12.457 -0.2177  0.0636 -0.0372
 2227W        W18121   9.206  17.187   0.813  0.1495  0.1431  0.0353
 2228W        W18122   7.053   4.064   3.014 -0.0090  0.1613  0.3842
 2229W        W18123  17.548  15.148   1.841  0.0000 -0.0703  0.0699
 2230W        W18124   8.017   5.451   4.771  0.0652 -0.0498  0.4099
 2231W        W18125   3.117   9.239  12.759  0.2922  0.0214 -0.1701
 2232W        W18126  10.669   0.694  16.841  0.0935 -0.3327 -0.1225
 2233W        W18127  13.849   3.103   3.581  0.0067 -0.2370  0.0396
 2234W        W18128  13.934  13.536  15.845 -0.2757  0.0661 -0.1637
 2235W        W18129   6.375   2.911  15.034 -0.2069 -0.1327  0.1058
 2236W        W18130  13.934  16.596  14.497 -0.2232  0.2855 -0.0922
 2237W        W18131   0.271   5.378  12.470  0.0262 -0.1215  0.0990
 2238W        W18132   3.135   0.764   4.289  0.2225 -0.1942 -0.0736
 2239W        W18133   2.937   5.278   1.691 -0.1664 -0.1747 -0.3205
 2240W        W18134  13.122  16.656  11.599 -0.0057 -0.3247 -0.1240
 2241W        W18135  16.841  12.514   2.132  0.0390 -0.0750  0.2961
 2242W        W18136   3.924  14.577  15.700 -0.0040  0.2845  0.0616
 2243W        W18137  16.592   9.061   5.146  0.1920  0.2014 -0.1828
 2244W        W18138  13.135  17.203  12.524 -0.1723  0.0113  0.0521
 2245W        W18139   1.190  17.402   4.893 -0.0072  0.5087  0.1115
 2246W        W18140  14.467   6.101  10.694 -0.1134  0.1780 -0.1861
 2247W        W18141   8.488   9.159   5.590  0.2360 -0.2073  0.3314
 2248W        W18142   6.480  10.969  15.341 -0.2446  0.0101  0.0708
 2249W        W18143  17.169   5.818  14.780  0.2589  0.1163 -0.0294
 2250W        W18144   0.869  15.123  17.165 -0.2895  0.0561 -0.2396
 2251W        W18145  13.803   2.740   0.135  0.1553 -0.0302  0.0625
 2252W        W18146  12.208   4.828   1.181 -0.0280  0.0998 -0.1541
 2253W        W18147  14.076   2.989  16.461  0.1375  0.0767  0.2274
 2254W        W18148   6.731  12.143  15.653 -0.1234 -0.0106  0.4007
 2255W        W18149   0.854  12.127  17.221 -0.0172  0.0696  0.0922
 2256W        W18150   0.161  12.999   3.246 -0.3052  0.1033  0.2729
 2257W        W18151  15.334   7.490  12.880 -0.0542  0.0666  0.1247
 2258W        W18152  16.141   2.804  12.405 -0.0694  0.1291  0.1178
 2259W        W18153   7.336  13.764   4.858  0.1400 -0.0569  0.1349
 2260W        W18154   4.316   4.723  15.455 -0.1659  0.0407  0.1229
 2261W        W18155   5.747   3.708  12.528 -0.0126  0.2129  0.1255
 2262W        W18156   7.640  15.672   4.777  0.0203 -0.2613  0.0148
 2263W        W18157   1.098  14.852   1.120 -0.0952  0.3150 -0.0744
 2264W        W18158   6.671  16.583   5.026 -0.1603 -0.0043  0.0558
 2265W        W18159   8.374   9.109  13.776 -0.0468 -0.2456  0.4045
 2266W        W18160  14.880   5.070   1.323  0.4348 -0.4888  0.0228
 2267W        W18161  14.046   1.704   5.340 -0.0278  0.2232 -0.2954
 2268W        W18162   3.837   2.442  16.525 -0.2351  0.1142  0.0529
 2269W        W18163  14.984   4.586   4.757 -0.0236 -0.0253  0.1875
 2270W        W18164  11.025  13.099  11.761  0.1241 -0.0365  0.0910
 2271W        W18165   3.151   3.556   4.506 -0.1242 -0.0995  0.0220
 2272W        W18166   2.423  11.338   0.702 -0.1481  0.0830 -0.1471
 2273W        W18167   4.478  10.885   5.453 -0.3139 -0.3244  0.3006
 2274W        W18168  12.292  14.284   3.377  0.1225  0.0178  0.0242
 2275W        W18169  14.327   9.528  12.491  0.1108  0.0703  0.0576
 2276W        W18170   9.735   3.830   2.348 -0.1392  0.0920  0.2103
 2277W        W18171   1.133   8.459   0.189 -0.1021 -0.1515  0.3555
 2278W        W18172  13.448   6.800  11.887  0.0766  0.1516  0.1166
 2279W        W18173  14.578   8.913  16.208 -0.0118 -0.2038 -0.2545
 2280W        W18174   8.203  13.258  15.659  0.0381  0.3695  0.0047
 2281W        W18175  14.538   6.207   6.131  0.1282 -0.0660 -0.0475
 2282W        W18176   9.386   7.085   1.371 -0.0221 -0.0415  0.2494
 2283W        W18177   9.410   8.947  12.675 -0.0196  0.0020  0.1294
 2284W        W18178   4.505  12.410  14.260  0.3191 -0.1481 -0.1672
 2285W        W18179   5.353   5.389   0.016 -0.0317  0.2302 -0.3815
 2286W        W18180  16.580  11.808   3.241  0.0382 -0.2562  0.1626
 2287W        W18181  11.897   3.477   0.656  0.0794 -0.0227 -0.0160
 2288W        W18182   0.385   0.093   3.332  0.4693  0.0994 -0.1776
 2289W        W18183  11.301  11.897  12.745 -0.0675 -0.0188  0.1830
 2290W        W18184  15.373   3.599   3.400  0.2400  0.1144  0.1419
 2291W        W18185  16.461   3.688  13.658  0.0610 -0.0577 -0.1481
 2292W        W18186  16.111   1.189  13.205 -0.0591  0.0789  0.0444
 2293W        W18187  16.694   1.273   2.851 -0.4094  0.1800  0.1281
 2294W        W18188  14.936   8.403   4.922  0.2171  0.2787  0.0787
 2295W        W18189   2.942   0.706  16.926 -0.0229  0.2285 -0.0620
 2296W        W18190   6.036   7.188   3.834 -0.0351 -0.5901 -0.2342
 2297W        W18191   2.710   0.577  14.355  0.0267 -0.0189  0.1646
 2298W        W18192   9.943  12.116   3.827 -0.0661  0.2484  0.0147
 2299W        W18193   9.000  16.854   2.589  0.2949 -0.3053  0.0250
 2300W        W18194  14.960   5.809  15.666 -0.1866 -0.2892  0.2151
 2301W        W18195  14.598  17.508  12.958  0.0064  0.0814  0.2138
 2302W        W18196  14.190   4.196   6.521  0.4970 -0.1044  0.1218
 2303W        W18197  13.192   7.369   3.854 -0.0391  0.2702  0.0354
 2304W        W18198   4.659   1.627  14.721 -0.0190  0.0554 -0.0241
 2305W        W18199  10.359  10.357   3.980  0.0954  0.0559 -0.0507
 2306W        W18200  17.288   9.568  13.386  0.2610 -0.1770 -0.2298
 2307W        W18201   0.724   6.540   3.924  0.2673  0.0675 -0.3772
 2308W        W18202   5.729  15.740  17.151  0.1640  0.0605 -0.2048
 2309W        W18203   7.589   6.474   3.188 -0.0757 -0.2039 -0.0096
 2310W        W18204  12.179   1.315   0.834  0.0595  0.0083  0.3273
 2311W        W18205  10.442   3.813   0.657 -0.0729 -0.0712  0.2340
 2312W        W18206   4.764  17.428  12.522  0.0894  0.0217 -0.1765
 2313W        W18207  12.288   2.964   5.212  0.1331 -0.1027 -0.2611
 2314W        W18208  15.644  10.363   5.982 -0.1239  0.2404 -0.0215
 2315W        W18209  16.744   1.988   3.306  0.2888 -0.0323  0.3407
 2316W        W18210  10.599   9.443   2.216  0.1057  0.1866  0.0572
 2317W        W18211   7.181  17.582  15.301  0.2715 -0.0416  0.1020
 2318W        W18212  14.383   1.567   2.534 -0.1847  0.0270  0.0778
 2319W        W18213   8.332   5.913   5.429 -0.0972  0.0589  0.0802
 2320W        W18214   4.127   8.233   1.031 -0.0068 -0.2176 -0.1350
 2321W        W18215  17.470  13.378   1.625 -0.0468  0.0949  0.2836
 2322W        W18216   1.346  15.961   5.607 -0.3598 -0.0460  0.0447
 2323W        W18217   5.149  15.442  13.581 -0.2055  0.2152  0.3071
 2324W        W18218  10.262   3.092  12.091  0.0536  0.1995  0.1271
 2325W        W18219   5.934  14.150  15.272 -0.1196 -0.0619  0.1996
 2326W        W18220  11.255  16.060  11.815  0.0498 -0.0140 -0.4134
 2327W        W18221   6.215   6.822   0.307 -0.1970  0.1242 -0.0300
 2328W        W18222  13.767   4.027  15.002  0.0362  0.1226  0.1452
 2329W        W18223  13.956  15.034  12.965  0.1540 -0.0932 -0.2719
 2330W        W18224   0.977   6.339   6.081  0.1024  0.3877 -0.1205
 2331W        W18225   0.270   7.962   2.455  0.0577 -0.0249  0.3302
 2332W        W18226   6.676   7.163   5.290  0.1262  0.1271  0.0668
 2333W        W18227   3.839   4.915  16.323 -0.3639 -0.0075 -0.0083
 2334W        W18228   1.002   0.023  14.513  0.1445 -0.1238 -0.1650
 2335W        W18229   1.401   2.914  16.488  0.2463 -0.1197  0.1994
 2336W        W18230  15.996   0.516  16.471  0.1147 -0.5582 -0.1721
 2337W        W18231   6.479   8.939  15.790 -0.2342  0.1948  0.0498
 2338W        W18232  13.661   3.169  13.591 -0.1782  0.0047  0.2085
 2339W        W18233  11.641   9.370  13.085 -0.2284 -0.3124  0.5000
 2340W        W18234  13.299   4.172  17.016 -0.1663  0.0671  0.1737
 2341W        W18235  10.791  13.558  16.091  0.0299  0.3739  0.2232
 2342W        W18236  16.972   7.179   1.741 -0.1466 -0.1709  0.1516
 2343W        W18237  17.388   8.192  17.283  0.2758 -0.2697 -0.3260
 2344W        W18238   1.307  12.493   4.977 -0.2055 -0.1712  0.0065
 2345W        W18239  10.452  11.217   3.711  0.1991  0.0708 -0.2362
 2346W        W18240   3.799  11.790  14.203  0.0054  0.0347 -0.2291
 2347W        W18241   4.324   2.438  12.135  0.0292  0.0181 -0.3584
 2348W        W18242  16.344  14.258   3.415 -0.0768  0.2310  0.0664
 2349W        W18243   3.717  14.162   0.975 -0.1574  0.2995  0.0651
 2350W        W18244   5.533   6.626  15.620 -0.2150 -0.0816  0.1192
 2351W        W18245   4.532   3.744  12.861 -0.0376  0.0587  0.2470
 2352W        W18246   8.580   9.957  14.815  0.0163  0.1759 -0.0005
 2353W        W18247  15.395   1.713  12.344  0.3719 -0.0528 -0.0963
 2354W        W18248   2.418   3.597  14.704  0.1171 -0.1130 -0.3259
 2355W        W18249   3.698   3.711   1.240 -0.2191 -0.2262 -0.0648
 2356W        W18250   2.984   3.051   4.503 -0.0950  0.0148 -0.2822
 2357W        W18251   3.329  14.263   1.684 -0.0057  0.0121 -0.1905
 2358W        W18252  16.093   4.120   4.173  0.2441 -0.0496  0.1255
 2359W        W18253   9.941  17.623  13.581 -0.1169  0.0772  0.1258
 2360W        W18254   4.028   9.492   1.612 -0.0618 -0.0073  0.2713
 2361W        W18255   5.140  12.522  17.054  0.0182 -0.1495 -0.1780
 2362W        W18256  13.301  17.097  13.022 -0.2358 -0.1250 -0.1505
 2363W        W18257  16.757   1.263   5.020  0.0454  0.1170 -0.2020
 2364W        W18258   7.690   3.184   3.487 -0.1110  0.2903  0.0023
 2365W        W18259  10.176   6.499  11.729 -0.2630 -0.1177 -0.1812
 2366W        W18260   2.812   4.823  14.940  0.2627  0.0240 -0.1927
 2367W        W18261  10.820   3.124   5.551 -0.3082 -0.0258  0.0297
 2368W        W18262   6.397  15.677  16.478 -0.1971 -0.1873 -0.1357
 2369W        W18263   5.354  11.791  13.146  0.1015  0.0729  0.0813
 2370W        W18264  13.495   6.754   2.233 -0.1630 -0.1426 -0.0067
 2371W        W18265   2.938  12.997  13.315  0.0629  0.0026 -0.1383
 2372W        W18266  12.779  17.082   1.336  0.1025  0.1341  0.1069
 2373W        W18267   4.783   3.350   4.416 -0.0067  0.2173  0.0161
 2374W        W18268  14.476  14.286   2.785 -0.0642  0.0799  0.0498
 2375W        W18269  14.498   4.625  13.218  0.2034 -0.0147 -0.0615
 2376W        W18270   3.671  13.337   0.593 -0.2810 -0.1073  0.1646
 2377W        W18271  13.016   1.298   4.385  0.0890  0.1239  0.0257
 2378W        W18272   0.145  13.679  13.512  0.0626  0.0607  0.0340
 2379W        W18273  14.791  15.524  17.232  0.0652  0.1059 -0.0651
 2380W        W18274   9.328  15.111   0.878  0.0868  0.0389  0.0221
 2381W        W18275  11.789  17.285   2.496  0.2720  0.3038  0.2654
 2382W        W18276  10.619   0.663   1.061  0.1524 -0.1265 -0.0005
 2383W        W18277   3.822   5.915  13.520  0.4387  0.1583  0.1516
 2384W        W18278   9.011   0.061   5.350 -0.3073  0.2146  0.2221
 2385W        W18279   9.876  11.226   4.418 -0.1513 -0.1450 -0.2416
 2386W        W18280   8.201   0.002   5.137 -0.1427  0.4444  0.1655
 2387W        W18281   6.018  10.430  14.889  0.1797 -0.1447 -0.1361
 2388W        W18282   9.617   2.649   1.302 -0.0471 -0.0182 -0.2305
 2389W        W18283  15.812   0.528   5.296 -0.0505  0.0296 -0.2337
 2390W        W18284  15.960   9.369   4.386 -0.0414  0.1180  0.1206
 2391W        W18285  12.233   5.682   2.359  0.2579 -0.1585 -0.0499
 2392W        W18286   6.420   7.974  16.898 -0.1446 -0.1243  0.3529
 2393W        W18287  13.914   0.798  11.790 -0.3661 -0.2175  0.0493
 2394W        W18288  14.391  14.362  16.781 -0.1932  0.0532  0.0764
 2395W        W18289  12.746   8.427   2.832 -0.0652  0.0962  0.1037
 2396W        W18290   2.055  14.856  13.012 -0.0217 -0.1463 -0.0403
 2397W        W18291   1.590  11.331  15.100  0.0932 -0.1479 -0.0825
 2398W        W18292   0.351  16.638   0.224  0.1017  0.1502  0.0773
 2399W        W18293   4.869   9.555   5.796  0.2711  0.0004 -0.2021
 2400W        W18294   2.854   5.919   0.942 -0.1842  0.0952 -0.0896
 2401W        W18295  16.039   5.445  15.594  0.0487  0.1363  0.1033
 2402W        W18296  16.486   4.707   5.469 -0.2647 -0.0437  0.1479
 2403W        W18297   9.296  11.019   3.578  0.2628 -0.1150 -0.1020
 2404W        W18298   9.857   2.574  14.832  0.1663 -0.0347 -0.1903
 2405W        W18299   5.884  16.604   4.376 -0.0940  0.2480 -0.1416
 2406W        W18300   0.452  12.092   5.545 -0.0255 -0.3273  0.0011
 2407W        W18301   9.539  15.169   3.147 -0.1226  0.3771 -0.1123
 2408W        W18302  10.806   0.793   5.243  0.1724  0.3052 -0.1298
 2409W        W18303  13.038  10.814   0.620  0.0149  0.2638 -0.1369
 2410W        W18304   3.990   9.147  14.237 -0.5015 -0.2173  0.1457
 2411W        W18305   7.034  10.145   0.900  0.0112  0.1113  0.3104
 2412W        W18306   5.677  15.899   5.022 -0.0079  0.1035  0.2963
 2413W        W18307   8.213   7.355   5.776  0.1143 -0.0948  0.1531
 2414W        W18308   2.214   3.994   5.521  0.1691 -0.0221 -0.2230
 2415W        W18309   7.754  13.539   0.695 -0.0300 -0.0484 -0.3692
 2416W        W18310   1.289   6.549   5.085 -0.0636 -0.2343  0.0734
 2417W        W18311   7.561   7.194   2.704 -0.2014 -0.5828 -0.1549
 2418W        W18312   3.030   8.625  16.384 -0.2451  0.1618  0.0194
 2419W        W18313  14.533   3.542   3.890  0.0438 -0.1405  0.0878
 2420W        W18314  13.421  16.919   0.536  0.3595  0.0141 -0.2282
 2421W        W18315   1.803   7.279  16.367  0.0028 -0.2142  0.0109
 2422W        W18316  10.459   0.087   5.563  0.0350  0.1249 -0.0045
 2423W        W18317   4.644  16.229   3.125  0.2312  0.1437 -0.0773
 2424W        W18318  14.979  15.837  14.183 -0.1099 -0.2830 -0.0648
 2425W        W18319  10.315   6.467  16.925  0.0400  0.0989  0.2395
 2426W        W18320  11.688   6.759  14.085  0.0229 -0.0465  0.1913
 2427W        W18321   6.158   8.987  12.523  0.1877  0.0974 -0.2431
 2428W        W18322   2.873   9.601   1.085 -0.1534 -0.2099 -0.2254
 2429W        W18323   2.229   2.632  11.780  0.1708  0.3625 -0.0386
 2430W        W18324   4.750   5.338   1.078  0.0479  0.2095 -0.1000
 2431W        W18325   9.071   3.157  16.876  0.1796  0.0042  0.2659
 2432W        W18326   1.311   6.681   0.153  0.1120 -0.1331 -0.0697
 2433W        W18327   6.717  15.747  15.403  0.0568  0.1795 -0.1545
 2434W        W18328   3.283   5.338  12.752 -0.1415  0.1510  0.1252
 2435W        W18329   2.185   0.623  14.483 -0.1824 -0.2985 -0.4041
 2436W        W18330  12.967  16.330  13.983 -0.1459  0.0762  0.0148
 2437W        W18331   8.569   6.574   0.890  0.2453  0.0195 -0.0437
 2438W        W18332   8.185   0.451   4.952  0.0347 -0.1647 -0.2541
 2439W        W18333   6.287   3.337   2.945 -0.0702  0.3334  0.1834
 2440W        W18334   7.881   8.906  14.695  0.0456  0.1604  0.1374
 2441W        W18335   8.530  12.368   4.048  0.0247  0.0747  0.0912
 2442W        W18336   7.272  10.038   6.548  0.0181 -0.2263 -0.1861
 2443W        W18337   3.510   8.363  16.235 -0.0167 -0.0926 -0.0892
 2444W        W18338  12.076  11.048  16.538 -0.1332 -0.2062  0.2985
 2445W        W18339  13.461  12.334  16.842  0.0090  0.0992  0.1267
 2446W        W18340  11.661   3.052  14.119 -0.1455  0.3970  0.2034
 2447W        W18341   2.795  10.414  12.265 -0.0477  0.2633  0.1379
 2448W        W18342  12.487   0.832  12.698 -0.0396 -0.0519 -0.3231
 2449W        W18343   3.829   7.566   2.159  0.0436 -0.3183  0.2314
 2450W        W18344   6.582   4.786   1.625 -0.1157 -0.0338  0.2335
 2451W        W18345   2.442   9.461  12.258 -0.2084  0.3419 -0.1810
 2452W        W18346  10.827  15.077   0.098 -0.0295  0.0789  0.2023
 2453W        W18347   0.103   8.028  11.620  0.0119  0.3030  0.1873
 2454W        W18348  17.267  12.349  16.751 -0.0663 -0.3005  0.1835
 2455W        W18349   1.923  14.765   2.624 -0.1128  0.4400  0.2526
 2456W        W18350  14.230  11.947  16.862 -0.0457 -0.0340  0.0631
 2457W        W18351   3.069  17.245   6.541  0.0417  0.0016  0.1428
 2458W        W18352  10.844   1.722  12.101 -0.2262 -0.0863  0.0146
 2459W        W18353  12.375  14.826  14.628 -0.3323 -0.3248  0.2765
 2460W        W18354   9.696  10.924   4.966  0.2212  0.0107 -0.1408
 2461W        W18355   5.205   5.291   4.680  0.3467  0.1843  0.0590
 2462W        W18356   4.032   2.957   4.498 -0.0884 -0.1392 -0.1617
 2463W        W18357   4.227  16.948   5.075 -0.0132  0.1762 -0.1558
 2464W        W18358  16.820  12.918   0.652 -0.2365 -0.0125 -0.1043
 2465W        W18359   9.832  16.471   0.919  0.1143  0.0060  0.2191
 2466W        W18360   4.994   8.139  15.201 -0.1290  0.0093  0.1838
 2467W        W18361   3.337   0.794  12.500  0.1153  0.0436  0.0398
 2468W        W18362   6.516  13.116   3.193 -0.3429 -0.0427 -0.0434
 2469W        W18363   3.094  16.785   2.035  0.3839  0.1140  0.2664
 2470W        W18364  11.623   9.340   2.335 -0.0589 -0.4402 -0.1795
 2471W        W18365  12.729  13.414  11.675  0.3615  0.0179  0.0182
 2472W        W18366  14.550   6.604  13.385  0.3244  0.2767  0.0493
 2473W        W18367  13.683   8.605  13.802 -0.1560 -0.1993 -0.2006
 2474W        W18368  11.529   9.699   2.637 -0.2519  0.2574 -0.3908
 2475W        W18369  10.776  17.605   3.814  0.0394  0.0982 -0.1631
 2476W        W18370   0.204  13.007  13.992 -0.0613  0.2644 -0.1253
 2477W        W18371  11.568   5.777   6.042  0.0268 -0.4040 -0.1802
 2478W        W18372   0.492   7.996  12.906 -0.2782  0.0675 -0.1961
 2479W        W18373  14.531   3.156   4.653  0.1378 -0.0330 -0.2530
 2480W        W18374  15.628   2.232  13.979 -0.3154  0.1491  0.0246
 2481W        W18375   7.092   7.128   2.502 -0.2839  0.2006  0.0578
 2482W        W18376  17.440   3.889  16.380 -0.1709  0.1316  0.1763
 2483W        W18377   2.381  12.342  16.117  0.1244  0.2149 -0.0084
 2484W        W18378  17.615   0.366   2.508  0.1692  0.0737  0.2545
 2485W        W18379   8.635  10.344  11.920 -0.0335 -0.2184 -0.4138
 2486W        W18380  13.949   3.895  12.513  0.3794 -0.1344 -0.1681
 2487W        W18381  10.340  16.478  12.023 -0.2124  0.4220  0.0856
 2488W        W18382  10.402   6.035  13.354 -0.1900 -0.1259  0.1319
 2489W        W18383   8.248  14.157   4.278  0.1521  0.0097  0.2147
 2490W        W18384  13.858  17.098   0.220  0.0867  0.0356 -0.2808
 2491W        W18385   0.239  14.620   5.009 -0.2467  0.0351 -0.1744
 2492W        W18386  15.893   0.876   3.873 -0.1542  0.1843 -0.2788
 2493W        W18387  11.961   2.292   0.617  0.0607  0.0755 -0.0313
 2494W        W18388  11.664   9.365  11.917 -0.0946 -0.0905  0.1492
 2495W        W18389  15.704  12.438  14.738 -0.0946  0.0711  0.0828
 2496W        W18390  12.130  16.999  17.171  0.0927 -0.0575  0.2489
 2497W        W18391   8.406  12.478  12.755  0.0192 -0.0143 -0.2853
 2498W        W18392   2.407  12.668   1.545 -0.0067  0.0289 -0.1057
 2499W        W18393   2.347   1.189  12.842 -0.0157  0.1162 -0.0629
 2500W        W18394   0.800  17.429  16.996  0.1016 -0.2502  0.0063
 2501W        W18395   0.867  15.607   0.169 -0.1522  0.2954 -0.3541
 2502W        W18396  16.381   2.374   5.594 -0.3211 -0.1651 -0.0825
 2503W        W18397  17.423   5.098   5.178  0.1470 -0.0410 -0.1918
 2504W        W18398   0.563  16.250  14.686 -0.2906  0.0806 -0.0438
 2505W        W18399   4.774  10.688   1.143  0.4362 -0.2420  0.1087
 2506W        W18400   5.531   4.596  14.426  0.3820  0.0794  0.1681
 2507W        W18401  17.519  11.561  14.471 -0.1447  0.0673 -0.0409
 2508W        W18402   1.723   5.840   3.953  0.0298  0.2095  0.2744
 2509W        W18403  10.596  16.063   3.436 -0.0220  0.2085  0.1773
 2510W        W18404  17.223   5.116   4.159 -0.0696 -0.0786 -0.1159
 2511W        W18405  12.113   8.325  11.198 -0.0670  0.0750  0.1383
 2512W        W18406  14.914   1.759  14.968 -0.1143 -0.0737 -0.0973
 2513W        W18407   3.665   9.888   2.930  0.0269 -0.1178 -0.0848
 2514W        W18408   8.664  11.168  16.018  0.1108 -0.0938 -0.1980
 2515W        W18409  12.447  15.314  14.291  0.0738  0.0539  0.0952
 2516W        W18410  12.948   5.797   4.424  0.0247 -0.0972  0.3570
 2517W        W18411  10.909  11.595  12.800 -0.4501 -0.0626 -0.1391
 2518W        W18412   7.562   4.030   3.969  0.3160 -0.1234 -0.4187
 2519W        W18413   7.020   0.269   1.549 -0.3889 -0.2210  0.1473
 2520W        W18414   4.337   1.378   3.790  0.2572  0.1614 -0.0233
 2521W        W18415   2.151  15.906   1.162 -0.0697 -0.0952  0.0831
 2522W        W18416   9.385  14.322  13.769 -0.1105  0.0899  0.1945
 2523W        W18417   4.416   1.673   5.600  0.2182 -0.2082 -0.0923
 2524W        W18418   5.192   7.902  14.418 -0.1416  0.2052 -0.1469
 2525W        W18419  11.674   3.338   2.854 -0.1574  0.0207 -0.0625
 2526W        W18420  11.413   3.984   5.490 -0.1247 -0.0067  0.3506
 2527W        W18421   4.782  11.033  14.821  0.1681 -0.1098  0.4136
 2528W        W18422   1.921   0.245   5.601 -0.1061  0.0848  0.0915
 2529W        W18423   8.975   1.429   1.211 -0.0209  0.0161 -0.0240
 2530W        W18424   0.472   3.398  14.655  0.2089  0.0067 -0.2888
 2531W        W18425   6.988   8.872   1.801  0.1405  0.4258 -0.3282
 2532W        W18426   6.577  15.823  11.610 -0.0402 -0.2144  0.2159
 2533W        W18427  10.926   2.103   1.728  0.1002  0.0314  0.0782
 2534W        W18428  15.219  15.680  13.595 -0.1801 -0.1857 -0.1095
 2535W        W18429  14.681   9.322   2.913 -0.0784 -0.0308 -0.0301
 2536W        W18430   7.300   8.656  15.286 -0.3081  0.0060  0.1003
 2537W        W18431   9.452   0.523   3.965  0.2463 -0.0080 -0.1745
 2538W        W18432  17.089   1.906  15.375 -0.0860 -0.4150 -0.0802
 2539W        W18433   3.330   7.263   2.093  0.0295 -0.0018  0.1407
 2540W        W18434  12.802   4.235  16.840 -0.0228 -0.3064  0.0061
 2541W        W18435   2.917  12.850   3.108  0.1853  0.0772  0.1904
 2542W        W18436  12.958   6.771   5.618 -0.1263 -0.0581 -0.0710
 2543W        W18437   7.732   2.106  11.869  0.0063  0.0861 -0.1817
 2544W        W18438   3.353  10.628   2.774  0.0352 -0.1649 -0.0696
 2545W        W18439   0.074  16.218  14.625 -0.0567  0.0393  0.3244
 2546W        W18440   4.479   9.272   0.804 -0.0910  0.0373 -0.1322
 2547W        W18441   5.357  17.616   3.474 -0.1329  0.2057  0.0551
 2548W        W18442  14.782   7.355   0.214 -0.1506 -0.0844 -0.0994
 2549W        W18443   5.781   3.039  14.629 -0.0717 -0.0483 -0.2360
 2550W        W18444   9.107  17.257   1.304 -0.1410 -0.0485 -0.0010
 2551W        W18445  11.361  10.337  11.573  0.0994  0.0410 -0.2311
 2552W        W18446   7.666  14.776  12.530  0.1695  0.1562 -0.0509
 2553W        W18447  12.234   7.660   4.178 -0.1038  0.1330  0.2016
 2554W        W18448   8.034   2.762  16.362 -0.1292  0.0519  0.0123
 2555W        W18449   6.745  16.345   5.471  0.0897 -0.0976 -0.0897
 2556W        W18450  12.110   9.029  16.168 -0.4246  0.0367 -0.1171
 2557W        W18451   6.249   7.262   0.979  0.2474  0.1446  0.2866
 2558W        W18452  15.243   1.359   2.666  0.1114 -0.5139  0.1804
 2559W        W18453  13.645  11.536   3.842 -0.1462  0.2079  0.0280
 2560W        W18454  17.076  11.682  15.444  0.1157  0.0035  0.1148
 2561W        W18455   2.342   3.242   5.738  0.1006  0.2155  0.2024
 2562W        W18456   6.922   1.807  12.432  0.1259  0.0816 -0.0453
 2563W        W18457  17.359  17.211  12.062 -0.1310 -0.3364 -0.1390
 2564W        W18458   0.292  12.688   1.281 -0.0244  0.0433 -0.1840
 2565W        W18459  16.570  14.400   0.319  0.0902  0.0787 -0.2372
 2566W        W18460   3.259   1.476   4.451  0.2720  0.0405  0.0528
 2567W        W18461   7.263  14.236   1.741 -0.0505 -0.1375 -0.1497
 2568W        W18462  17.263  12.966   2.877  0.1128 -0.2510  0.0179
 2569W        W18463   9.211   4.717  12.037  0.1786  0.0256  0.2995
 2570W        W18464  12.006   7.560   0.780  0.1002  0.0637 -0.0991
 2571W        W18465   0.812   4.401   5.953  0.2785 -0.0219  0.2717
 2572W        W18466   3.354   2.268  16.698  0.0970 -0.3274  0.0610
 2573W        W18467  16.634   0.395  15.164  0.4444 -0.0701  0.1364
 2574W        W18468   9.328  10.924  12.404  0.3333 -0.2923 -0.0947
 2575W        W18469   3.565  14.688  13.038  0.0083 -0.2100 -0.0742
 2576W        W18470   9.000   0.022   6.713 -0.4062 -0.1439 -0.3113
 2577W        W18471  10.732  11.379  12.405 -0.0469  0.0181  0.1207
 2578W        W18472  16.713   6.639   2.487 -0.2524 -0.0551  0.2058
 2579W        W18473  11.624  15.918  16.567  0.2193  0.1745 -0.0522
 2580W        W18474  12.205   0.659  12.386 -0.0571 -0.0804  0.1420
 2581W        W18475  16.900   0.782  13.974 -0.0365  0.1743 -0.2402
 2582W        W18476   8.820   0.457   3.026  0.1295  0.2524  0.1199
 2583W        W18477   4.379  14.852  13.280  0.2053  0.2551 -0.1032
 2584W        W18478   7.519  17.376   6.157 -0.3013  0.1701  0.0592
 2585W        W18479   3.035  17.295   1.924 -0.1422  0.1655 -0.0237
 2586W        W18480  16.641   6.951   2.883  0.0578  0.0620 -0.0721
 2587W        W18481   3.289  13.572   3.907  0.3221  0.1230  0.1330
 2588W        W18482  11.580  16.585  14.042 -0.3366  0.0331 -0.3521
 2589W        W18483  16.462   3.430   2.138 -0.2063 -0.2126  0.3036
 2590W        W18484   8.231  10.531   0.342  0.0998 -0.3637 -0.1935
 2591W        W18485  14.021  13.896   5.190  0.1838  0.0313 -0.1052
 2592W        W18486  12.229   4.978   4.359  0.1590 -0.0490  0.0727
 2593W        W18487  12.459  11.249  14.971 -0.1442  0.0729  0.2216
 2594W        W18488   7.303  16.879   4.947  0.2001  0.1566  0.3269
 2595W        W18489   1.986  15.753  16.511 -0.1004 -0.0452 -0.0822
 2596W        W18490  12.713  12.622   3.395 -0.0023 -0.2844  0.1800
 2597W        W18491   7.255   2.539  15.850  0.2256  0.1019 -0.1752
 2598W        W18492  14.298  13.538   1.542  0.2999  0.0439  0.1212
 2599W        W18493   5.712   2.111   3.123  0.1461 -0.1280 -0.0831
 2600W        W18494   9.315   4.974  14.919  0.0477  0.0005 -0.1068
 2601W        W18495   4.399  17.573   0.681 -0.2110  0.0819  0.0554
 2602W        W18496   4.550   2.639   6.532  0.1532 -0.3273  0.1548
 2603W        W18497   7.458   7.012   1.102 -0.2515 -0.1664  0.1198
 2604W        W18498   8.496  17.095  12.192  0.0833 -0.1871  0.0826
 2605W        W18499   4.182   5.578  13.831 -0.2428  0.0184  0.3041
 2606W        W18500   7.157   8.685   3.804 -0.1760 -0.0221 -0.0046
 2607W        W18501   7.791   6.552   0.753  0.2225  0.0828  0.2818
 2608W        W18502  14.879  16.694  15.796  0.2168 -0.0494 -0.0496
 2609W        W18503   7.813   5.300  12.107  0.0381  0.1435  0.0822
 2610W        W18504   9.445   1.139   5.700 -0.1523 -0.2453 -0.0966
 2611W        W18505   2.523   4.412   1.883  0.2916  0.0004  0.2191
 2612W        W18506   8.992  15.417  11.965  0.0049  0.0327  0.2113
 2613W        W18507   9.047   0.685  14.169 -0.0712  0.1601 -0.0467
 2614W        W18508  16.409  11.572   6.216  0.0093  0.3070 -0.0357
 2615W        W18509  11.287  12.270  14.997 -0.1305 -0.1523 -0.2154
 2616W        W18510   1.141   2.456  15.049 -0.2441 -0.1377  0.1315
 2617W        W18511   9.774   5.422   4.965  0.1180  0.0725 -0.0806
 2618W        W18512   9.172   0.409   4.387 -0.0281 -0.2786 -0.2261
 2619W        W18513  11.009  11.033   0.483 -0.1621 -0.0556  0.0296
 2620W        W18514   0.737   4.204  16.359 -0.0155  0.3718 -0.2903
 2621W        W18515   0.760  17.232   5.788  0.2264  0.0841 -0.1580
 2622W        W18516  13.055   0.995   2.424  0.0732  0.0653  0.3153
 2623W        W18517   4.023   8.894  15.980 -0.2333  0.1721 -0.0192
 2624W        W18518   3.967  12.249  12.643 -0.1525 -0.1308 -0.1054
 2625W        W18519  10.980  12.382  10.632 -0.0684  0.0139 -0.0500
 2626W        W18520   5.503   1.167   2.297 -0.2159 -0.1781  0.0665
 2627W        W18521   2.892   5.815  15.713  0.2665  0.2309  0.0183
 2628W        W18522  10.180  10.625   3.082  0.3160  0.2265 -0.2255
 2629W        W18523  13.228   3.416  13.677  0.1722  0.1109  0.0890
 2630W        W18524  17.134   4.728   4.902 -0.1982  0.2417 -0.3281
 2631W        W18525  13.362   6.452   3.836 -0.3296  0.0905  0.1666
 2632W        W18526  12.947  15.006  14.564  0.1099  0.3655  0.0384
 2633W        W18527  16.422   0.127   1.840 -0.0594  0.1970  0.0456
 2634W        W18528  11.009   0.202   2.844 -0.0680 -0.1972 -0.0740
 2635W        W18529   0.774  10.581  13.554  0.2955  0.1975  0.0774
 2636W        W18530   8.813  10.292  11.401 -0.0835  0.1144  0.0995
 2637W        W18531   4.024  13.731   1.114  0.0948  0.3255 -0.1676
 2638W        W18532   9.781   4.683  13.555 -0.0373 -0.2128  0.1262
 2639W        W18533  11.837  13.712  12.095 -0.1768 -0.0289  0.1866
 2640W        W18534  11.609  17.258   3.817  0.1111 -0.1095 -0.2150
 2641W        W18535   5.103   8.153   6.031  0.0103  0.0787  0.1825
 2642W        W18536   9.471   5.664   1.955 -0.3655  0.0481 -0.0647
 2643W        W18537   6.283  11.704  15.061  0.1990 -0.1725  0.1025
 2644W        W18538   4.127   7.224   3.339 -0.0712  0.1461  0.1041
 2645W        W18539   6.594   1.636  14.480  0.2930  0.1036 -0.1955
 2646W        W18540   7.908  13.856  16.592 -0.0235  0.0608  0.2067
 2647W        W18541  12.737  17.312  12.870  0.0650 -0.0771 -0.0753
 2648W        W18542   7.054  13.726  12.659  0.3581  0.1511  0.0538
 2649W        W18543   0.082   5.647  16.032  0.0604 -0.0432  0.1925
 2650W        W18544   1.148  17.595   2.405 -0.2079 -0.1289 -0.0451
 2651W        W18545  15.931   7.982  11.628 -0.2420  0.0903 -0.0502
 2652W        W18546  13.467   8.674   2.024  0.2760  0.1870  0.0393
 2653W        W18547  13.236   2.238   3.100  0.2567 -0.0685 -0.0645
 2654W        W18548  12.647   3.660   1.242  0.0831  0.0993  0.0675
 2655W        W18549  14.768  16.444  13.136 -0.2269 -0.2018  0.0822
 2656W        W18550   9.917   7.109  12.663  0.2537  0.0571  0.2090
 2657W        W18551   1.348  10.135  16.792  0.1341  0.3098  0.1820
 2658W        W18552  13.821  17.481  14.257 -0.1971 -0.0667  0.0964
 2659W        W18553   4.040  11.332   1.781 -0.3688  0.2501  0.0088
 2660W        W18554   6.459  16.899  14.102 -0.1931 -0.2884 -0.2337
 2661W        W18555   1.479  11.569   3.748 -0.2120 -0.1531  0.1986
 2662W        W18556  17.532  11.027  16.944  0.1390 -0.1860  0.0401
 2663W        W18557   7.999   5.706  11.782 -0.1057 -0.0377  0.1729
 2664W        W18558   4.422   8.818  12.372  0.0092 -0.3499 -0.0220
 2665W        W18559   8.993   8.708  15.333  0.2230  0.2229 -0.3198
 2666W        W18560  10.087   7.511  16.453  0.1019 -0.2849  0.1992
 2667W        W18561  10.602   2.587   4.401 -0.1336 -0.1697  0.1849
 2668W        W18562   4.668  17.175  13.967  0.1438 -0.2616 -0.0461
 2669W        W18563   3.233  10.643   3.310  0.0820 -0.0105 -0.1564
 2670W        W18564   6.418   3.134  17.081 -0.3475  0.1421  0.0006
 2671W        W18565   6.844  16.739  17.237 -0.1823 -0.1163 -0.0460
 2672W        W18566   7.478  16.635   4.234 -0.2379  0.1204  0.1174
 2673W        W18567   6.980   7.459  14.249  0.1564 -0.1212 -0.1644
 2674W        W18568  15.712   3.575  12.292  0.2668  0.0458  0.2896
 2675W        W18569   2.786   7.371  16.517 -0.0354 -0.3409  0.0692
 2676W        W18570  14.614  10.254   1.675 -0.0570  0.2328  0.0889
 2677W        W18571   1.593  11.042  12.457 -0.0010  0.2958 -0.1725
 2678W        W18572  12.095   9.127  12.806  0.0867  0.1012  0.0448
 2679W        W18573   4.019   5.800  14.306  0.2866 -0.1718  0.0474
 2680W        W18574   3.493   8.725  16.592  0.0006 -0.1584 -0.0941
 2681W        W18575   7.961   1.996   1.669 -0.0449 -0.1663  0.0395
 2682W        W18576  14.644  12.595   4.551  0.1200 -0.1677 -0.3025
 2683W        W18577  11.029  10.639  12.670 -0.2494  0.3022  0.1413
 2684W        W18578   6.077  11.005   2.577  0.0678 -0.2404  0.0768
 2685W        W18579  11.352   5.660  12.249  0.0172 -0.2034 -0.1884
 2686W        W18580   7.202   3.096  15.903  0.2701 -0.2734 -0.2993
 2687W        W18581   8.534  11.797   1.278 -0.0083  0.1804  0.0793
 2688W        W18582  13.442   2.053  14.330  0.1064 -0.1709  0.3914
 2689W        W18583   7.003  13.176   3.285 -0.0888  0.0119  0.1401
 2690W        W18584   1.408  10.516   5.067 -0.0343  0.0096  0.1545
 2691W        W18585   0.125   7.432  15.362 -0.0869  0.1346  0.0659
 2692W        W18586   8.970   9.835  12.801 -0.2463 -0.1304  0.0487
 2693W        W18587   4.518   5.324  16.748 -0.2061  0.0063  0.0138
 2694W        W18588   3.108   3.761   5.785  0.0096  0.0599 -0.0397
 2695W        W18589   3.402  11.680   0.212  0.1027 -0.1618  0.2175
 2696W        W18590  16.208   8.159  16.213  0.0512  0.2377 -0.0347
 2697W        W18591   0.339  13.459   0.233 -0.1227 -0.0521 -0.0289
 2698W        W18592  14.354  13.965  15.895 -0.0881  0.0600 -0.3423
 2699W        W18593   4.791  16.961  11.683  0.0395 -0.0839 -0.1092
 2700W        W18594  11.338   1.585  16.194  0.0069  0.1151  0.2184
 2701W        W18595   8.830  10.365   4.758  0.2158  0.0800  0.3976
 2702W        W18596  13.500   2.274   6.331 -0.2324 -0.1826 -0.3595
 2703W        W18597   6.505   1.929   5.088 -0.1459  0.1005 -0.2411
 2704W        W18598  10.715  14.203  17.241 -0.1296  0.0513 -0.0457
 2705W        W18599  11.389  13.351   3.867 -0.1570 -0.0541  0.0247
 2706W        W18600   3.124   3.099  16.904 -0.1476  0.2627 -0.2257
 2707W        W18601   4.404   3.267   1.004 -0.0633 -0.0097  0.0831
 2708W        W18602   6.191   4.998  13.737  0.2259  0.0244  0.0443
 2709W        W18603  15.746   7.827   4.083 -0.2216  0.0822 -0.0912
 2710W        W18604   6.201   3.558   5.354 -0.0368 -0.0239  0.1239
 2711W        W18605   6.800  13.966   0.255 -0.0445 -0.2419 -0.0220
 2712W        W18606  13.015  10.324   0.402  0.0865  0.2555 -0.1470
 2713W        W18607  16.163   2.087   0.798  0.1691 -0.2460 -0.0301
 2714W        W18608   3.234   0.772   0.005 -0.0511  0.0120 -0.0301
 2715W        W18609   8.633   9.743   1.870 -0.0203  0.3165  0.1515
 2716W        W18610   0.245   0.522  16.174  0.2613  0.1337  0.0757
 2717W        W18611  15.722   8.631   1.374  0.1064 -0.1680  0.0177
 2718W        W18612   2.155   8.820   4.162  0.0081 -0.0730  0.0544
 2719W        W18613   7.937   7.523  15.925 -0.1785 -0.1104  0.1540
 2720W        W18614  16.113   2.444  17.266 -0.0397  0.0570  0.1821
 2721W        W18615   9.816   4.284   1.264  0.1762  0.1206  0.0146
 2722W        W18616  13.309  14.438   1.687 -0.1845  0.1982  0.0848
 2723W        W18617  14.788   0.295   1.218  0.3097 -0.0525  0.1313
 2724W        W18618  16.060  13.402   4.738 -0.2397 -0.0251  0.2658
 2725W        W18619  15.094   1.561  11.750  0.0701 -0.0817 -0.0776
 2726W        W18620   1.398   2.735  11.930  0.0085 -0.0550  0.1582
 2727W        W18621   6.988   4.990   1.417 -0.2229  0.1960 -0.3153
 2728W        W18622   9.723  14.649  17.264 -0.0372 -0.1658 -0.2165
 2729W        W18623   4.289   4.714   5.234 -0.0590 -0.1791  0.2841
 2730W        W18624  10.391  10.082   3.048  0.1391 -0.0773 -0.0489
 2731W        W18625   9.979   2.217  12.300 -0.1335  0.2429  0.2987
 2732W        W18626   5.690  10.547   2.529 -0.4361  0.0974 -0.0327
 2733W        W18627  16.536  10.658   3.460 -0.1276  0.2720 -0.0855
 2734W        W18628   4.029   6.785   1.319 -0.0780 -0.0115  0.0797
 2735W        W18629  11.647  14.437   0.328 -0.1328 -0.1577 -0.0430
 2736W        W18630   3.013  14.937  12.888  0.1602 -0.1955  0.1329
 2737W        W18631   3.749  16.500   0.964  0.0818  0.0443 -0.0494
 2738W        W18632  15.849  14.358  15.978 -0.2505  0.0153  0.0055
 2739W        W18633  17.499   7.774   4.721 -0.0214 -0.0035 -0.0433
 2740W        W18634  17.359  12.791   4.468  0.1268  0.1712  0.1508
 2741W        W18635  14.317   3.965   2.761 -0.1129  0.2164 -0.1632
 2742W        W18636  13.566   9.969  13.985 -0.1624 -0.2667 -0.1873
 2743W        W18637   6.298   9.245  17.295 -0.1312 -0.0717  0.0548
 2744W        W18638   0.023  15.335  12.517  0.0171  0.0459 -0.0510
 2745W        W18639  14.347  11.124  11.702  0.1013 -0.1527 -0.1360
 2746W        W18640  14.088  11.331   2.530  0.1613  0.2492  0.0089
 2747W        W18641  10.041   7.636  12.752 -0.0246  0.1343  0.0358
 2748W        W18642   1.960  14.513  16.732 -0.1856  0.1866 -0.1510
 2749W        W18643  11.659  11.905  14.939 -0.1248 -0.0557 -0.2163
 2750W        W18644   2.442   0.135  14.390  0.2954  0.0020 -0.2242
 2751W        W18645  10.772   0.334  15.304  0.0937  0.0660 -0.0821
 2752W        W18646   0.685  17.249   2.859  0.0261  0.0224  0.0150
 2753W        W18647   0.134   1.962   4.686  0.0825 -0.0963  0.1434
 2754W        W18648   8.760   5.665   0.605  0.0030 -0.2481  0.0437
 2755W        W18649  17.524  13.281   4.188  0.2533  0.1510  0.0520
 2756W        W18650   4.144  16.055  14.335  0.1171  0.1639 -0.1167
 2757W        W18651  16.181  15.686  15.942 -0.0354 -0.0713  0.0868
 2758W        W18652   3.394   9.521   4.585  0.1226 -0.1491 -0.1635
 2759W        W18653  17.137   1.148   0.594  0.1617  0.5333 -0.2874
 2760W        W18654   3.263   2.045  14.476  0.4405 -0.0437  0.0654
 2761W        W18655   4.989   2.066   2.422 -0.2557  0.0233 -0.0948
 2762W        W18656   3.630  11.411   1.498 -0.1056 -0.2159 -0.0000
 2763W        W18657   6.731   2.826   3.265  0.1904 -0.1421  0.0141
 2764W        W18658   5.114  16.009   2.519  0.3534  0.2564  0.0263
 2765W        W18659  14.904   8.651   2.102  0.0285 -0.2017  0.2981
 2766W        W18660   6.137   9.882  13.577 -0.1945 -0.1818  0.0474
 2767W        W18661   7.964   4.203  13.417 -0.0980  0.0228 -0.1265
 2768W        W18662   9.525   3.643   4.282  0.0959 -0.0160 -0.0786
 2769W        W18663   4.423   2.008  15.139  0.0378  0.1280 -0.1194
 2770W        W18664   3.266   2.068   1.994 -0.2451 -0.1397  0.2326
 2771W        W18665   4.438   4.733   3.489  0.2789 -0.0084  0.0015
 2772W        W18666   1.316   2.169   3.585  0.0233  0.4185  0.1143
 2773W        W18667   3.841   5.327   1.016 -0.0120 -0.1129  0.0235
 2774W        W18668  17.108  12.299  14.102 -0.0533 -0.0156 -0.0686
 2775W        W18669   4.666   6.995  12.010  0.3368  0.2440  0.0860
 2776W        W18670  17.541   6.296  14.488  0.1616 -0.0240  0.0102
 2777W        W18671   1.623   4.086   3.923  0.0441 -0.3741  0.0542
 2778W        W18672  14.884   0.285  14.946 -0.0907 -0.3284  0.3282
 2779W        W18673   8.218   5.257   2.920  0.0947 -0.1597 -0.0847
 2780W        W18674  14.098   1.992  15.098  0.0164  0.0131  0.1607
 2781W        W18675   7.958  11.773  15.957 -0.2716  0.3073 -0.0949
 2782W        W18676   4.817  17.329  16.672  0.2994  0.1129 -0.0505
 2783W        W18677   0.766  10.008   4.038 -0.1523  0.1080  0.0836
 2784W        W18678   6.286  10.919   0.112 -0.4457  0.4075  0.1702
 2785W        W18679   0.676  10.785   2.318 -0.1572 -0.1951 -0.1154
 2786W        W18680  16.515  10.019  12.699  0.0403  0.0257  0.1417
 2787W        W18681   9.563  16.302   0.454  0.3124  0.0719  0.2081
 2788W        W18682   1.523  12.405  14.383 -0.2301 -0.0260 -0.0312
 2789W        W18683   0.519   0.149  15.293  0.0326 -0.1141 -0.0773
 2790W        W18684   6.801  14.340  16.732 -0.3328 -0.0529  0.2470
 2791W        W18685   1.915   0.190  13.520  0.0959  0.1697  0.1147
 2792W        W18686  17.026  10.650   5.576  0.1114 -0.0719 -0.1741
 2793W        W18687  13.678  13.112  14.772 -0.1026  0.3242  0.1122
 2794W        W18688   4.626   6.583  16.270  0.0864 -0.0088 -0.1768
 2795W        W18689   0.659  11.124  15.997 -0.0518 -0.0123 -0.1107
 2796W        W18690  11.680  14.731  17.219 -0.4702  0.1878  0.2386
 2797W        W18691   0.977   0.181  17.198 -0.0849  0.0063  0.1624
 2798W        W18692   8.494   3.607  15.625  0.2734  0.2223 -0.1994
 2799W        W18693   4.950   3.757   3.606  0.1097 -0.3608 -0.0186
 2800W        W18694   5.219   0.757   6.030  0.2873  0.1792 -0.1264
 2801W        W18695  13.541   9.293  17.206  0.0362  0.0514 -0.2211
 2802W        W18696  16.260   4.372   2.037 -0.1789  0.0694 -0.0880
 2803W        W18697   2.111   7.229  13.551  0.1339 -0.0216 -0.1668
 2804W        W18698  14.616  13.419   5.182 -0.5381  0.1247  0.1417
 2805W        W18699  12.209   8.505  15.171 -0.0512 -0.0586 -0.3180
 2806W        W18700   0.293   6.591   6.332 -0.2322  0.1602  0.0758
 2807W        W18701  11.138  10.443  13.355 -0.0320  0.0009  0.1683
 2808W        W18702   6.170   2.350  13.506 -0.0719 -0.0579  0.0917
 2809W        W18703   9.417  13.218   1.886  0.3551  0.2910  0.1084
 2810W        W18704  13.421  16.264  13.319  0.0633 -0.0716  0.1254
 2811W        W18705  17.445   5.366  15.228  0.1933  0.3018 -0.0158
 2812W        W18706   9.144   8.216  12.850 -0.3676 -0.1001  0.3028
 2813W        W18707   9.913  14.249  11.618 -0.0492  0.0203  0.2301
 2814W        W18708  13.555  14.577  17.140  0.1101 -0.0667  0.0363
 2815W        W18709   0.278   8.352   2.176  0.0666  0.0287 -0.3391
 2816W        W18710   9.171   2.061   3.495 -0.1189 -0.2280  0.1988
 2817W        W18711  16.201   0.230  14.927 -0.2289  0.0831 -0.1819
 2818W        W18712   8.607  12.537  14.768  0.0542  0.1892 -0.1003
 2819W        W18713   4.156  13.241   4.066 -0.0629  0.0340  0.0277
 2820W        W18714  16.640  12.133   3.745  0.0939 -0.0180 -0.0941
 2821W        W18715   1.102   7.958  16.548  0.2553 -0.0487  0.1642
 2822W        W18716   4.513   4.451  16.293  0.3559  0.1400 -0.2321
 2823W        W18717   9.403   7.944   1.915  0.3985  0.0553  0.0881
 2824W        W18718   7.092  11.370  13.428  0.2042 -0.0822 -0.1676
 2825W        W18719   4.688   5.106   4.360 -0.3707 -0.2956  0.2149
 2826W        W18720   9.454  15.675   3.561 -0.3986 -0.0230 -0.1325
 2827W        W18721  14.276  14.861  15.408 -0.0411 -0.0018 -0.0781
 2828W        W18722   2.556   4.365  14.933 -0.0846 -0.1535 -0.2205
 2829W        W18723   1.586  10.282   2.081 -0.0056 -0.2234  0.0654
 2830W        W18724   2.746   3.803   1.379  0.1259  0.0178  0.3450
 2831W        W18725   3.937  16.666   2.432  0.1439 -0.0232 -0.0089
 2832W        W18726  13.153  11.433   0.290  0.1741  0.3383 -0.1877
 2833W        W18727   1.249  14.254  12.573 -0.0288 -0.1107 -0.1344
 2834W        W18728   2.774  13.739   2.974  0.1959 -0.1549  0.0271
 2835W        W18729  16.095  11.765  16.312  0.0776 -0.1968 -0.1382
 2836W        W18730  11.006  11.662   2.581 -0.2441  0.1939 -0.1312
 2837W        W18731  13.111   7.588  13.393 -0.0397 -0.0094 -0.1350
 2838W        W18732  12.930   8.920  15.494 -0.2415 -0.0029 -0.1294
 2839W        W18733   4.234  17.230  16.497  0.3696  0.2311  0.0852
 2840W        W18734  11.861   8.925   0.537  0.0941 -0.0835 -0.1017
 2841W        W18735   3.079   4.654  14.066 -0.2938  0.1642 -0.0676
 2842W        W18736  16.630   5.402  15.717 -0.0332  0.2058 -0.2321
 2843W        W18737   3.552   3.280  16.648 -0.2227 -0.1108  0.1273
 2844W        W18738  12.616  14.853   0.359 -0.0031 -0.3866 -0.2964
 2845W        W18739   1.645   7.336  13.403 -0.1239  0.0567  0.1450
 2846W        W18740   7.271   8.177  12.564  0.2832 -0.1272  0.0817
 2847W        W18741  13.527   4.545   3.571  0.0149 -0.3868 -0.0766
 2848W        W18742   7.140  13.628   1.532 -0.0005 -0.0427  0.2117
 2849W        W18743  10.044   3.099   4.968 -0.3931 -0.2305  0.0092
 2850W        W18744  13.449   7.973   5.650  0.0034 -0.2732 -0.0627
 2851W        W18745  10.890  12.817   5.210  0.1358 -0.2204  0.0017
 2852W        W18746   4.563   5.228  12.585 -0.2263 -0.0036 -0.0412
 2853W        W18747  14.435  13.609  15.569  0.3294  0.0048 -0.2782
 2854W        W18748   9.031  14.626  17.251 -0.0103 -0.1963 -0.0743
 2855W        W18749   5.077   7.051   4.643  0.0913  0.1806 -0.0722
 2856W        W18750  11.822   4.300  16.569 -0.1552  0.2164 -0.0397
 2857W        W18751  17.324   9.145   3.039  0.2262  0.0781  0.1574
 2858W        W18752  12.364   0.110  17.001 -0.1836 -0.1707  0.0207
 2859W        W18753   9.263  14.404  14.353  0.1839 -0.0782  0.4105
 2860W        W18754  13.411   3.298  16.740 -0.5464  0.1613  0.1797
 2861W        W18755  11.636   8.611  11.993 -0.2437  0.1011 -0.0845
 2862W        W18756  16.983   7.395  15.431  0.1881  0.0753  0.0585
 2863W        W18757   1.299   4.121  16.966  0.1303 -0.1037 -0.0259
 2864W        W18758   7.691  12.063   5.409 -0.0069  0.3331 -0.0091
 2865W        W18759   7.433   9.649   2.902  0.1552 -0.1911  0.0370
 2866W        W18760   4.435   1.271   0.879  0.1513  0.1281 -0.1964
 2867W        W18761  13.755  16.825  12.913 -0.0594 -0.0804 -0.0915
 2868W        W18762   9.801   7.075  11.395 -0.2948 -0.3344 -0.0418
 2869W        W18763   3.419  16.279   0.472 -0.1755  0.4763  0.0822
 2870W        W18764   8.110  10.216   3.473 -0.3268 -0.1611  0.2135
 2871W        W18765   0.185  14.663  17.044 -0.2035  0.1905 -0.0479
 2872W        W18766   2.098   0.120   0.498 -0.1229 -0.0869  0.0752
 2873W        W18767  12.776  12.983  15.502  0.1667 -0.1099 -0.0526
 2874W        W18768   2.833   0.322   3.382  0.3165 -0.1727  0.0683
 2875W        W18769  14.426   1.070   4.052 -0.2471 -0.3255 -0.2610
 2876W        W18770   4.571   9.823  15.098 -0.0420  0.0565 -0.2512
 2877W        W18771   5.384   4.433   1.423  0.0145 -0.1658  0.0178
 2878W        W18772   9.592   3.101   3.734  0.1242  0.0540  0.2605
 2879W        W18773  16.431  16.036  14.788  0.2541 -0.0005 -0.2096
 2880W        W18774   2.109   5.730  15.088  0.0798 -0.0473  0.1780
 2881W        W18775   9.947   0.809   4.876 -0.0311 -0.1625  0.1607
 2882W        W18776  14.781  11.665  11.047 -0.0310 -0.1099  0.2052
 2883W        W18777   6.311  14.420   2.664  0.1058 -0.0589  0.0184
 2884W        W18778   0.974  13.348  12.356  0.2041 -0.6281  0.1651
 2885W        W18779   5.823   5.489   0.139 -0.1358  0.0781 -0.4479
 2886W        W18780  13.475   7.075  12.695  0.1385  0.0379  0.0636
 2887W        W18781  15.331  13.296   0.680  0.0666 -0.2933 -0.0465
 2888W        W18782   9.325   6.355  15.618 -0.1409  0.2139  0.0661
 2889W        W18783   4.835  10.358   3.795  0.0531  0.1156 -0.1568
 2890W        W18784  16.303   4.750   3.043  0.0668  0.1134  0.3809
 2891W        W18785  14.287   1.442  16.671 -0.1429  0.1502  0.4218
 2892W        W18786   5.637  17.632   5.757  0.0230 -0.0701  0.2841
 2893W        W18787  13.559  17.272   2.136 -0.2810  0.2092  0.4187
 2894W        W18788  11.018  15.889   0.899  0.3141  0.3585 -0.3032
 2895W        W18789  10.413  15.087  13.653  0.0495 -0.1427  0.3776
 2896W        W18790   0.962   0.068   5.779 -0.1834  0.0025 -0.2182
 2897W        W18791   3.779  14.767  16.838  0.1034  0.1213  0.1479
 2898W        W18792   2.327  14.955   2.382  0.0029 -0.3243 -0.2317
 2899W        W18793   7.517  16.842  16.642  0.1718  0.0883  0.2037
 2900W        W18794  11.290  15.876   1.842 -0.5630  0.5471 -0.0038
 2901W        W18795   5.126   7.349   5.923  0.0455  0.1688 -0.0501
 2902W        W18796   9.556  11.434  15.498 -0.1784  0.2226  0.1972
 2903W        W18797  16.610   8.129  16.573  0.1083 -0.0904 -0.1004
 2904W        W18798  16.156   7.214  13.867 -0.0034 -0.0212  0.5348
 2905W        W18799  12.702   1.492   0.962  0.0654  0.0764  0.1994
 2906W        W18800   9.022   3.919   4.362 -0.0354 -0.1758  0.0829
 2907W        W18801  13.119   4.790   2.728 -0.2244 -0.1583 -0.1019
 2908W        W18802   7.919   0.840   5.764  0.0544  0.0074  0.0059
 2909W        W18803  10.057  11.625   2.428  0.2944 -0.1119 -0.0644
 2910W        W18804   6.894   7.635   2.611 -0.3811  0.0339 -0.3374
 2911W        W18805  16.942  11.584  12.874 -0.1042  0.0513  0.0289
 2912W        W18806   1.051  10.400   0.771  0.0571  0.0339  0.1201
 2913W        W18807   0.083   2.259   1.948 -0.2453  0.4549 -0.1562
 2914W        W18808   3.586  11.655  13.449 -0.5113 -0.0208  0.0699
 2915W        W18809   2.689  15.609   3.424  0.3870  0.0828 -0.0064
 2916W        W18810  14.768  16.996  15.136 -0.0055 -0.0574  0.0321
 2917W        W18811   0.568   8.748   1.986  0.2796  0.1050 -0.1363
 2918W        W18812  11.316   7.877   3.469  0.0121 -0.0279  0.1127
 2919W        W18813   8.704  14.245   5.132 -0.1082 -0.1587 -0.0053
 2920W        W18814  12.225  14.593   5.291 -0.0492  0.1065  0.2758
 2921W        W18815  13.012  15.334  12.169 -0.1313  0.5522  0.0679
 2922W        W18816   3.992   1.484   5.925 -0.2849 -0.2717 -0.2314
 2923W        W18817   8.206   3.956   6.368 -0.3438 -0.1296  0.3185
 2924W        W18818  17.359   7.334  15.099  0.3121 -0.1113  0.0098
 2925W        W18819   6.567   4.234  17.299 -0.0603 -0.1274  0.4056
 2926W        W18820  12.574   0.883   1.593  0.3055  0.4231 -0.0821
 2927W        W18821   8.283  12.024   0.410 -0.0067  0.2511 -0.1029
 2928W        W18822   6.685   6.813  15.158 -0.0789 -0.0063 -0.0787
 2929W        W18823  17.083  17.033  13.420  0.4090 -0.0901  0.1954
 2930W        W18824  15.716   4.787   2.955  0.2522  0.3225 -0.0534
 2931W        W18825   9.183   2.805  13.664 -0.2227  0.1125 -0.1766
 2932W        W18826   0.957   8.537   1.172 -0.1305  0.2723  0.1648
 2933W        W18827   6.632   4.744   0.785 -0.3064 -0.1156  0.0289
 2934W        W18828   6.425  11.118   2.214  0.1599  0.1763 -0.1452
 2935W        W18829   8.484  17.132   6.295  0.2706  0.0656  0.0457
 2936W        W18830  12.696  13.244   1.539  0.1868  0.1273 -0.1444
 2937W        W18831   8.696   4.178  12.825 -0.0964  0.0568  0.1195
 2938W        W18832  17.176  13.300  15.911  0.0246  0.2993  0.0205
 2939W        W18833   7.428   8.762  12.159 -0.0040 -0.0522  0.0550
 2940W        W18834  15.486   1.042   4.066  0.0162  0.1099 -0.0960
 2941W        W18835   1.672  16.483   3.369 -0.1808 -0.0318 -0.2007
 2942W        W18836  12.485  12.605  16.923  0.0285 -0.1109 -0.2828
 2943W        W18837   5.094   8.184  16.997 -0.0103  0.3469  0.1207
 2944W        W18838   0.376  14.744   0.642 -0.0683  0.0382  0.4235
 2945W        W18839  11.979  14.736   3.279  0.0573 -0.1683  0.0199
 2946W        W18840  15.925  11.215   1.639  0.0913 -0.0200  0.0624
 2947W        W18841  15.041   2.313   3.311 -0.0092 -0.1056  0.0649
 2948W        W18842   9.250   5.854  15.132 -0.4032  0.0154  0.1878
 2949W        W18843   2.317   9.965  13.639 -0.1222 -0.0063 -0.0942
 2950W        W18844  10.646   8.277  13.049 -0.2292 -0.2661  0.1375
 2951W        W18845   8.639   3.050   1.347 -0.0451  0.0835 -0.0198
 2952W        W18846   8.982   8.510   4.978  0.0306  0.0365  0.0821
 2953W        W18847   9.721  13.520   0.801  0.0666  0.3065  0.0660
 2954W        W18848   7.743   9.778  11.879 -0.3282 -0.0913 -0.0225
 2955W        W18849   8.634  12.089   4.985 -0.3208  0.1538 -0.1723
 2956W        W18850   3.846   7.564  16.941  0.1314  0.0182 -0.2955
 2957W        W18851  10.827  13.391  15.337  0.2109  0.1371 -0.1834
 2958W        W18852   2.814   4.860  16.672 -0.0644 -0.0574  0.0887
 2959W        W18853   9.719   0.485  14.375 -0.1565  0.1349  0.1859
 2960W        W18854  11.916   0.128   5.801 -0.1466 -0.0210 -0.4224
 2961W        W18855   8.564   6.172   3.468  0.2674 -0.1373  0.2156
 2962W        W18856  12.767   6.090  13.976  0.1321  0.2172 -0.1475
 2963W        W18857   3.899  10.241  16.763  0.0142  0.1777 -0.1887
 2964W        W18858   5.685  16.804  16.194  0.1751  0.0606 -0.3426
 2965W        W18859   8.414   9.716  13.316  0.1362 -0.3478  0.2649
 2966W        W18860  11.873   4.402   0.156 -0.1330  0.2805 -0.0600
 2967W        W18861  14.005  14.347  17.080 -0.1412  0.2592 -0.2050
 2968W        W18862   0.927  15.542  16.251 -0.0573  0.0113 -0.2976
 2969W        W18863   1.146   4.440   6.669 -0.1825  0.0051  0.2050
 2970W        W18864  17.390   6.290   2.026 -0.0350  0.0379  0.0681
 2971W        W18865   2.390   6.194  16.429 -0.2509 -0.0339 -0.2717
 2972W        W18866   0.609  11.459  12.595  0.0655  0.2289 -0.2626
 2973W        W18867  13.548   1.562   3.661  0.1915 -0.0378 -0.2166
 2974W        W18868  11.904   3.857   1.977 -0.0620 -0.0135  0.0369
 2975W        W18869   3.911   1.039   6.292 -0.1800  0.0845 -0.1668
 2976W        W18870  13.213   3.041   3.487 -0.3260 -0.0895  0.0396
 2977W        W18871   5.116   0.793  15.086  0.0942  0.2034 -0.1009
 2978W        W18872   1.507  14.457   5.118 -0.0314 -0.0727 -0.0038
 2979W        W18873   2.255   0.353   1.272  0.3082  0.2803  0.1787
 2980W        W18874   5.247  15.177   2.222 -0.2654 -0.2332 -0.0006
 2981W        W18875   1.040   7.932   2.098  0.0052 -0.2543 -0.1255
 2982W        W18876   8.357  10.414  13.910 -0.1661  0.2819 -0.0214
 2983W        W18877  12.426   2.774   1.223  0.2262 -0.0965 -0.2075
 2984W        W18878   2.290   0.265  14.870 -0.0559  0.0982  0.3784
 2985W        W18879   5.355  13.535   3.237  0.1482 -0.3685 -0.2458
 2986W        W18880  12.317   5.308  16.798 -0.1893  0.1827 -0.1561
 2987W        W18881   3.751  15.090   2.770  0.0032 -0.0907 -0.1030
 2988W        W18882  16.012   4.201  12.840  0.0626  0.1804 -0.0462
 2989W        W18883  12.082   4.334   3.148  0.1646 -0.1676  0.0273
 2990W        W18884   8.559  12.480  15.442  0.0226 -0.0465  0.1187
 2991W        W18885  10.755  14.123  12.785  0.2494  0.2615  0.1042
 2992W        W18886  11.141   2.283  15.666 -0.2369  0.2230 -0.3253
 2993W        W18887  15.021   0.509  15.402  0.1727 -0.2754  0.1852
 2994W        W18888  11.495   1.104  14.908  0.2135  0.0607 -0.0650
 2995W        W18889   5.328  15.558   4.684  0.2492  0.0175 -0.1354
 2996W        W18890   8.495   0.198  17.032  0.0091  0.3022  0.2427
 2997W        W18891   1.062   9.690  14.241 -0.1348 -0.1342  0.1639
 2998W        W18892   8.622   0.982   3.958  0.0865 -0.0511 -0.2813
 2999W        W18893   7.867  14.422   0.894  0.0855 -0.2220  0.0795
 3000W        W18894   0.278   0.540  15.044  0.3608  0.0102 -0.0657
 3001W        W18895   9.338  12.657  17.162 -0.1759  0.2674  0.0326
 3002W        W18896  11.724   7.274   3.549  0.1294  0.0023 -0.4570
 3003W        W18897   0.179   1.104  14.434 -0.0525 -0.4032 -0.0241
 3004W        W18898   2.260  13.271   0.090 -0.3501 -0.1174 -0.0587
 3005W        W18899   1.921   9.555   5.688 -0.3969  0.0816 -0.3834
 3006W        W18900   5.949  16.642   5.743  0.0349 -0.1908  0.0637
 3007W        W18901   4.178  16.694   5.626 -0.0359  0.0275  0.2710
 3008W        W18902  12.677  13.851  14.862 -0.0016  0.0477  0.1002
 3009W        W18903   3.764   1.499  13.836 -0.0924  0.1574  0.2133
 3010W        W18904  13.351  10.495   0.912 -0.1510 -0.0550 -0.2350
 3011W        W18905   2.003   2.710  13.627 -0.0063  0.1076  0.3073
 3012W        W18906  16.879  15.894  14.901  0.0476  0.1002  0.2627
 3013W        W18907   4.918   3.017  13.553 -0.0253 -0.2605  0.0227
 3014W        W18908  15.082   0.273   5.683 -0.3172 -0.0168 -0.2016
 3015W        W18909   6.280   2.505   6.516 -0.4346 -0.1413 -0.2018
 3016W        W18910  11.366   4.185   1.314 -0.0909  0.2111  0.0967
 3017W        W18911  15.034  17.349   0.037  0.0121  0.0521 -0.0606
 3018W        W18912  12.554   5.203   0.465  0.0592 -0.1412 -0.2359
 3019W        W18913  11.582  14.272   5.757  0.1743 -0.0600 -0.2354
 3020W        W18914   6.168   1.194  16.358 -0.0181 -0.0713  0.4258
 3021W        W18915   8.747   7.260   4.299 -0.1520 -0.0464 -0.2264
 3022W        W18916  10.792   1.307   5.278  0.1001  0.2900 -0.0142
 3023W        W18917   7.169   7.771  16.406 -0.0077  0.0671  0.0738
 3024W        W18918   6.062   0.505   4.889  0.1789 -0.0196  0.2144
 3025W        W18919  11.622   3.975   4.508  0.0740 -0.1093 -0.0355
 3026W        W18920  10.689   0.119   0.800  0.3675 -0.1855 -0.1576
 3027W        W18921  12.877   5.030  16.844  0.3326 -0.2629  0.4140
 3028W        W18922  11.482  17.356  11.495 -0.3977 -0.1822  0.4289
 3029W        W18923  11.413   9.554   4.362 -0.0647  0.1045  0.1201
 3030W        W18924   4.301   8.489   4.751  0.0682 -0.0485  0.2956
 3031W        W18925  11.353   7.310   1.204  0.0406 -0.3326 -0.2308
 3032W        W18926  10.392   6.578   1.537 -0.0563  0.1006  0.0009
 3033W        W18927  11.916   1.875   0.366 -0.2972 -0.2234  0.1787
 3034W        W18928  12.306   7.744   5.618 -0.1246  0.0184 -0.0336
 3035W        W18929   7.005  13.354   4.720  0.0922  0.1852 -0.0965
 3036W        W18930   0.885  10.291   1.389 -0.3213 -0.0241 -0.0668
 3037W        W18931  11.431  10.630  17.067  0.3895 -0.2075 -0.1601
 3038W        W18932   6.708   1.887   4.152  0.5245 -0.0306  0.2463
 3039W        W18933   6.010  17.622   2.903  0.2432 -0.3149  0.1760
 3040W        W18934   9.702  12.124   3.005 -0.0202 -0.1943  0.2501
 3041W        W18935   4.239   4.605   4.276 -0.0679  0.0568 -0.0088
 3042W        W18936  10.077  14.684  15.151 -0.0387  0.0514  0.0482
 3043W        W18937  16.897  10.874  14.761 -0.1840  0.1214 -0.3439
 3044W        W18938   4.603   0.394  16.320  0.2793  0.2100  0.2254
 3045W        W18939   5.910  15.598   0.667  0.0917  0.1783 -0.2984
 3046W        W18940  13.797   4.934  12.498  0.1669 -0.0145 -0.0953
 3047W        W18941  12.995  10.232   4.830 -0.2209 -0.5614 -0.2346
 3048W        W18942  15.625   7.619   6.097 -0.1406 -0.1965 -0.0519
 3049W        W18943   5.965   5.315  12.298 -0.1069  0.0336 -0.0699
 3050W        W18944   1.802  10.810   4.759 -0.2461 -0.0250  0.1066
 3051W        W18945   5.026  14.484  12.763  0.2060 -0.0512  0.2648
 3052W        W18946   2.389  15.977  14.305  0.2116 -0.1492 -0.2365
 3053W        W18947   4.406  15.384   1.331 -0.4287 -0.0039 -0.0930
 3054W        W18948   8.206   6.555  14.959 -0.0258 -0.0891 -0.2467
 3055W        W18949   6.876   2.712   1.867  0.0348 -0.2740  0.3926
 3056W        W18950  16.660   2.138  12.785  0.1891  0.1337  0.0352
 3057W        W18951  10.360   6.619  15.001  0.0984  0.1654 -0.0034
 3058W        W18952  16.858  14.182   5.157  0.3491  0.1216  0.0990
 3059W        W18953   8.736  16.350   5.126  0.0539  0.1018  0.1689
 3060W        W18954   6.362  16.990  13.430  0.0779  0.4256  0.3324
 3061W        W18955  16.507   5.092  14.195 -0.0734  0.2094  0.1207
 3062W        W18956   6.874   7.328  16.297  0.0592  0.0143  0.1430
 3063W        W18957   4.050  12.694  16.697  0.0464 -0.5054 -0.0122
 3064W        W18958   7.803  11.353   0.579 -0.2617  0.2472  0.0997
 3065W        W18959   5.495   6.937  16.660 -0.1616 -0.0701 -0.1654
 3066W        W18960  12.245  17.098  16.650  0.1041 -0.1721 -0.2228
 3067W        W18961   5.153   0.977   3.184  0.2055  0.0156  0.1967
 3068W        W18962   1.060   6.286   2.062  0.1246  0.0157 -0.1620
 3069W        W18963  13.961  16.558   4.925 -0.1672 -0.0060  0.2573
 3070W        W18964  10.952  12.535   2.405 -0.1317 -0.0223  0.1970
 3071W        W18965   6.180   2.197   4.358  0.0858  0.0956  0.4093
 3072W        W18966   6.432   1.642  17.142  0.1532  0.3357 -0.0973
 3073W        W18967   6.199  17.259  14.264  0.0211 -0.1466  0.0754
 3074W        W18968  12.036   7.302  17.179 -0.2054  0.1792 -0.2771
 3075W        W18969   2.281   3.642   4.741 -0.0980  0.3269  0.0326
 3076W        W18970   8.136   9.322   0.685  0.3237  0.1546  0.0584
 3077W        W18971  17.377   1.750  12.776  0.0671 -0.0513  0.0786
 3078W        W18972  16.382  12.013  13.376 -0.0060  0.1477 -0.0104
 3079W        W18973  12.357   6.016  14.224 -0.1173 -0.0728 -0.0292
 3080W        W18974   2.100  15.914   5.042 -0.1840  0.2851 -0.0379
 3081W        W18975  11.284   0.465  12.514  0.0686  0.0507  0.1530
 3082W        W18976   6.405   0.013   0.262 -0.2496 -0.0370 -0.2767
 3083W        W18977   7.347   5.002  16.227  0.1259  0.1529 -0.2172
 3084W        W18978   8.247  16.198  15.850  0.1076 -0.0815 -0.0043
 3085W        W18979   0.419  11.666  17.015 -0.1382  0.0698 -0.1600
 3086W        W18980  13.020   3.570   2.083  0.0905  0.0069 -0.1242
 3087W        W18981   1.378  14.106   4.687  0.0649 -0.1817 -0.1155
 3088W        W18982   5.182  17.414   2.607  0.1403  0.1957 -0.1867
 3089W        W18983   5.752   7.698  15.731  0.1266 -0.1232 -0.0829
 3090W        W18984   6.211   4.595   4.054  0.1051 -0.0135 -0.0975
 3091W        W18985   1.314  10.312   5.597  0.2634  0.0376  0.1194
 3092W        W18986   9.243   7.805   0.359 -0.1580 -0.0675  0.0539
 3093W        W18987  10.180   5.487  13.440  0.0645 -0.1159  0.1818
 3094W        W18988  10.446  12.589  15.654  0.2263  0.2203 -0.0930
 3095W        W18989  11.804   3.503   1.266  0.2799 -0.2755  0.2685
 3096W        W18990  15.997  11.324  17.230  0.0505  0.0350  0.0451
 3097W        W18991   7.165  16.926   2.098  0.1510 -0.2196 -0.3240
 3098W        W18992   6.615  13.298  16.631  0.3221  0.1459  0.1519
 3099W        W18993  17.595   2.763  12.223  0.1852 -0.1452  0.1982
 3100W        W18994   2.326  15.128   3.360  0.1722 -0.2351 -0.1419
 3101W        W18995   8.134   5.004  14.035 -0.0239 -0.0276  0.2123
 3102W        W18996   4.482  11.526  17.064 -0.0784  0.5062 -0.0317
 3103W        W18997   5.627   9.104  14.719  0.1417 -0.1878 -0.0941
 3104W        W18998   4.117  17.324   0.198  0.0296  0.0327  0.0778
 3105W        W18999  12.148   6.891   4.884 -0.2632  0.0575  0.1122
 3106W        W19000  12.476   1.945  16.876 -0.1677  0.1725  0.0866
 3107W        W19001   8.476   4.848   4.911 -0.1523 -0.3984 -0.2243
 3108W        W19002  16.162  17.462  15.236  0.0441 -0.0886 -0.0594
 3109W        W19003  15.754   6.421   1.666 -0.1427  0.1565  0.0199
 3110W        W19004  14.436  10.026  12.258  0.3664 -0.0023  0.1898
 3111W        W19005  12.695   7.583  15.680 -0.0254 -0.0544 -0.3147
 3112W        W19006   6.798  12.884   2.746  0.1146 -0.0455  0.1700
 3113W        W19007   9.240   7.784  15.110  0.1595 -0.4599  0.1127
 3114W        W19008  17.159  15.734  15.363  0.1027  0.1121 -0.1255
 3115W        W19009   1.196   8.795  16.449  0.0829 -0.0039 -0.0896
 3116W        W19010  17.325  16.178  16.910 -0.1536 -0.2362 -0.0889
 3117W        W19011   8.757   1.204  15.448  0.3344  0.0296 -0.1137
 3118W        W19012  13.890   1.450  17.014 -0.0636  0.0651 -0.0194
 3119W        W19013   5.468  11.720  15.226 -0.0756  0.0136  0.0960
 3120W        W19014  16.656  10.643  16.860 -0.0565  0.1568 -0.1374
 3121W        W19015   1.908   0.380   0.930 -0.1806  0.0194  0.1223
 3122W        W19016  12.907   3.913   5.666 -0.4367 -0.1672  0.0338
 3123W        W19017  13.722   1.108  13.288  0.1384 -0.0936 -0.3010
 3124W        W19018   7.333  10.570   4.596  0.0456  0.0879 -0.1580
 3125W        W19019   4.801  16.026   4.585 -0.6310 -0.0908  0.1674
 3126W        W19020  14.315  15.189   1.897 -0.3702 -0.2501  0.1402
 3127W        W19021  11.041   0.017   4.987  0.0576  0.0883  0.2579
 3128W        W19022   9.545  10.165  13.598 -0.1738  0.1798  0.0554
 3129W        W19023   1.671   6.081  12.756  0.1817  0.3431 -0.0343
 3130W        W19024   2.335   2.413  17.026  0.1433  0.3098 -0.1309
 3131W        W19025  16.940   3.181   0.903 -0.0162  0.0620  0.1135
 3132W        W19026   3.087  17.594   3.159  0.1408  0.1405  0.4533
 3133W        W19027   3.761  11.425   3.335 -0.1782 -0.1207 -0.0151
 3134W        W19028   9.782   9.944  14.898  0.3186  0.0318 -0.1130
 3135W        W19029  12.039   5.345   4.691  0.2493 -0.1626 -0.4078
 3136W        W19030  13.507   2.864   4.760 -0.0387 -0.0849 -0.2520
 3137W        W19031   9.425   9.951  12.695 -0.0633 -0.1451  0.0972
 3138W        W19032   4.597  14.773   3.050 -0.1536 -0.0529  0.0217
 3139W        W19033  15.414  14.122   5.405  0.1825 -0.5744  0.2229
 3140W        W19034  11.670   4.783   2.430 -0.3809  0.0527  0.1612
 3141W        W19035   6.613   7.761  15.190 -0.1736 -0.2715  0.2467
 3142W        W19036   9.553   7.807   5.567 -0.4674  0.2006  0.1156
 3143W        W19037  10.958  10.424   3.939  0.3039  0.3211  0.0976
 3144W        W19038  14.634  11.743  12.469 -0.2112 -0.0264 -0.0789
 3145W        W19039   4.375   1.948   3.724  0.0826 -0.0311  0.0914
 3146W        W19040  15.654   3.979  16.508  0.1650 -0.0635 -0.0386
 3147W        W19041  15.037   0.294  14.104 -0.1794 -0.1188 -0.0348
 3148W        W19042  13.439   1.156   6.308 -0.0540  0.1073 -0.1126
 3149W        W19043  13.844   8.455  16.802 -0.0633 -0.0503  0.0282
 3150W        W19044   2.115  12.972   4.707 -0.3534  0.1967  0.1503
 3151W        W19045  11.005   3.302   1.928  0.1057  0.0023  0.0002
 3152W        W19046   2.350   3.276  17.050  0.0843 -0.1182 -0.1375
 3153W        W19047  10.566  13.057  17.104  0.1211  0.3989 -0.0289
 3154W        W19048  13.587   2.022  13.811  0.1084  0.0361 -0.0035
 3155W        W19049   9.310   9.004  11.654 -0.1621  0.1457 -0.0925
 3156W        W19050  10.138  11.970   3.243  0.1901  0.0956  0.0908
 3157W        W19051   5.424   2.346  16.044  0.3845  0.1640  0.1623
 3158W        W19052  11.657   5.341   2.632  0.1204 -0.0026  0.0246
 3159W        W19053  10.406   6.209   3.659  0.0105  0.1498 -0.0975
 3160W        W19054   2.480  12.548   3.558 -0.0451  0.1422 -0.0417
 3161W        W19055   9.522   3.868   5.209 -0.0324  0.1497 -0.0385
 3162W        W19056  11.071   8.027  13.157  0.3727 -0.3551 -0.0971
 3163W        W19057  15.489  10.387   3.350 -0.0869 -0.1157 -0.0271
 3164W        W19058   6.212   0.163  15.099  0.0056 -0.0095  0.0345
 3165W        W19059   9.185   6.968  13.511  0.1775  0.2411 -0.1634
 3166W        W19060   2.076  14.329  12.948  0.1897  0.0010 -0.4303
 3167W        W19061   8.971   4.491  15.210 -0.0890  0.3015 -0.1131
 3168W        W19062  15.854   9.904  14.605  0.1805  0.0571  0.0681
 3169W        W19063   9.609   9.624   1.719  0.1472  0.0586  0.0346
 3170W        W19064   7.962   4.921  14.897  0.3973 -0.2507  0.0111
 3171W        W19065  15.455   1.466   1.864  0.0487 -0.1357  0.1431
 3172W        W19066   9.115   8.578  15.803 -0.0320 -0.0705 -0.1726
 3173W        W19067   8.972   4.696   1.471  0.0935 -0.0480  0.0732
 3174W        W19068  10.895   2.284  13.380 -0.1320 -0.0333  0.2044
 3175W        W19069  11.459   6.685  16.727  0.0800  0.0847  0.1040
 3176W        W19070   8.258  10.707   3.345  0.0137  0.4233  0.4521
 3177W        W19071   8.755  12.948  13.137  0.0243  0.2148 -0.3227
 3178W        W19072  15.485  12.976   2.702  0.1183  0.1153  0.2434
 3179W        W19073   6.226  14.974   6.050  0.2152 -0.0570 -0.3312
 3180W        W19074   3.120  12.075  16.492 -0.3409  0.0363 -0.2606
 3181W        W19075  16.893   9.413  12.441  0.1813 -0.2806 -0.1555
 3182W        W19076  11.165  16.011  14.552  0.0862 -0.0005 -0.1468
 3183W        W19077  16.664   6.337   3.046 -0.1793  0.0755  0.0218
 3184W        W19078  10.511  16.456   6.712 -0.2541 -0.2275  0.1419
 3185W        W19079   2.837  14.772  16.996 -0.1005 -0.1732 -0.2252
 3186W        W19080   2.466   9.639   1.457 -0.0129 -0.0465  0.1634
 3187W        W19081   2.188   6.046  14.089 -0.0433 -0.1156 -0.0564
 3188W        W19082   2.643  14.029   2.267 -0.0622 -0.1368  0.1424
 3189W        W19083   7.879   9.078  12.171 -0.2097  0.0397 -0.0732
 3190W        W19084  10.168  10.907   3.510  0.1820  0.0281  0.0950
 3191W        W19085  13.663   3.207   5.139  0.1505 -0.2599  0.2730
 3192W        W19086   6.722   0.588   3.592  0.1373  0.0657 -0.1759
 3193W        W19087  11.464  12.635  14.465 -0.2762  0.4464 -0.3482
 3194W        W19088   4.659  14.064  15.943 -0.0163 -0.2474  0.0856
 3195W        W19089   6.619   8.130  12.250 -0.2239  0.0511  0.0323
 3196W        W19090  10.489   1.247  14.850  0.1378  0.2069  0.0541
 3197W        W19091   4.892  15.712   2.912  0.2522  0.2195  0.0879
 3198W        W19092   4.005   1.844  15.606 -0.0059 -0.1947 -0.2454
 3199W        W19093   9.351  16.778  16.041  0.0822  0.3717 -0.1850
 3200W        W19094   9.648  14.597  16.158  0.0159  0.2530 -0.0371
 3201W        W19095   4.973  12.770   2.230  0.0187 -0.0356  0.2629
 3202W        W19096  13.848   9.559   2.545  0.1544  0.0798  0.0767
 3203W        W19097   7.081   2.333   2.084 -0.4692  0.0178  0.0815
 3204W        W19098   3.039  12.956   0.487 -0.0345 -0.0212  0.1272
 3205W        W19099  16.243  13.022   2.702  0.3808 -0.1580 -0.1853
 3206W        W19100   5.895  14.408  15.723  0.1221  0.1734  0.2813
 3207W        W19101   0.670   5.708  13.509 -0.0550  0.1663 -0.0475
 3208W        W19102  17.148   1.588   0.204 -0.1414 -0.0993  0.0322
 3209W        W19103  10.952   4.269  12.174 -0.0566 -0.0765 -0.0245
 3210W        W19104   9.135  17.560  15.388 -0.1342  0.0518  0.0284
 3211W        W19105  11.927   2.506   2.465 -0.0663  0.0963  0.2536
 3212W        W19106  15.064   3.339  15.542 -0.0614 -0.2969  0.1233
 3213W        W19107   1.321   9.813  16.347 -0.1453 -0.2642 -0.2570
 3214W        W19108   2.719   7.928  16.455  0.2525 -0.1570  0.2591
 3215W        W19109  10.224  13.511  12.862 -0.1652  0.2296 -0.0742
 3216W        W19110   1.944  11.419  12.132 -0.1758  0.0925 -0.2942
 3217W        W19111   0.895   5.302  13.497  0.3540  0.0746 -0.0084
 3218W        W19112  14.075   2.903   5.253 -0.1466  0.0673 -0.4152
 3219W        W19113  11.440   1.676   1.172  0.3216  0.1705 -0.1112
 3220W        W19114   2.769  15.616  15.370 -0.0397 -0.1984  0.4508
 3221W        W19115  17.046   0.654  14.387 -0.2122 -0.1154 -0.3758
 3222W        W19116   7.605  13.151   2.660 -0.4521 -0.1721  0.3030
 3223W        W19117  12.646  12.149  16.032 -0.4138  0.1859 -0.0328
 3224W        W19118   8.118  16.182   3.881  0.4376 -0.0650  0.2351
 3225W        W19119  12.626  14.530   4.975 -0.2175 -0.0591 -0.0671
 3226W        W19120   6.005  16.032  15.864  0.0155 -0.2016  0.0809
 3227W        W19121  14.811  13.756  16.028 -0.1950  0.1059  0.0402
 3228W        W19122   8.077   8.064   0.064  0.0562  0.1340 -0.0599
 3229W        W19123  12.158  16.115   5.666  0.1007 -0.0581 -0.1828
 3230W        W19124   2.787  11.509   1.573  0.1571 -0.3724 -0.0814
 3231W        W19125   5.899  15.380   6.047 -0.0558  0.1528  0.4520
 3232W        W19126   3.412  16.144   1.662  0.1405 -0.2485  0.3491
 3233W        W19127  13.857  16.548  14.005  0.0521 -0.0384  0.0451
 3234W        W19128   7.097   1.853  13.672 -0.1285  0.1233 -0.4125
 3235W        W19129   3.422   0.564   2.725 -0.2094  0.0611  0.0184
 3236W        W19130   0.118  13.668   4.648  0.1669  0.1032  0.2478
 3237W        W19131   1.170   2.996  15.205  0.0613 -0.1739 -0.3130
 3238W        W19132   4.149   0.367   0.184  0.0984 -0.1714 -0.0230
 3239W        W19133  15.149   9.485   5.722  0.2818  0.2253  0.0314
 3240W        W19134  16.249  11.191  15.755 -0.0500  0.1102 -0.0302
 3241W        W19135  13.924  16.331   5.476  0.0929  0.0216 -0.0721
 3242W        W19136   1.787   4.203  13.302 -0.0449  0.2993 -0.3079
 3243W        W19137   3.098  17.601   3.747  0.1634 -0.1053  0.1309
 3244W        W19138   8.359   1.914   0.907  0.3238 -0.2055  0.0200
 3245W        W19139   9.353  12.973   5.325  0.0917  0.2097 -0.0427
 3246W        W19140   1.268   3.098  13.631  0.1205 -0.0828  0.0216
 3247W        W19141   5.377   8.091  15.862  0.2930  0.1364 -0.0754
 3248W        W19142  10.684   9.511   4.301  0.0578  0.3144  0.2356
 3249W        W19143   5.911   8.689  14.559  0.0631 -0.0277 -0.1809
 3250W        W19144   5.663   9.619   4.280 -0.0774  0.0509  0.2529
 3251W        W19145   6.118  11.410   1.953 -0.0784 -0.1225  0.1127
 3252W        W19146   9.019  12.988  14.074 -0.3100 -0.0975 -0.0545
 3253W        W19147  11.305   3.418   1.560 -0.0992  0.2143  0.3238
 3254W        W19148   6.630   9.687  13.343  0.2045  0.0778 -0.0237
 3255W        W19149   7.556   0.480  14.654  0.1603  0.1445 -0.1871
 3256W        W19150  16.516  14.933   0.401  0.2777  0.0955 -0.0150
 3257W        W19151   3.177  11.612   6.180 -0.1685 -0.2492 -0.0587
 3258W        W19152  14.595  13.405   1.093 -0.1644 -0.1225 -0.0864
 3259W        W19153  15.265   9.448   2.509  0.0027  0.0091 -0.1319
 3260W        W19154   0.368  15.899   3.805 -0.2285  0.2982  0.0416
 3261W        W19155   3.790  14.870   0.024  0.0469 -0.1741  0.2993
 3262W        W19156   0.476   0.174  15.783 -0.4037  0.4817  0.2483
 3263W        W19157   0.416  14.675   2.821 -0.3756  0.1233  0.0139
 3264W        W19158  11.519   3.553   0.287 -0.1560 -0.1254 -0.4936
 3265W        W19159   8.086   7.920  16.793  0.3421  0.1042 -0.2332
 3266W        W19160   0.500   0.998   0.038  0.0089  0.3538 -0.3464
 3267W        W19161   4.834  11.877   2.065 -0.0307 -0.0530  0.0716
 3268W        W19162   9.381  15.418   0.303 -0.3244 -0.1701 -0.1449
 3269W        W19163   2.511  10.848  15.039 -0.0663  0.3083 -0.1943
 3270W        W19164  15.508   8.070   2.195  0.2951 -0.1013 -0.3312
 3271W        W19165   4.698   0.794  14.354  0.1615  0.0159 -0.3647
 3272W        W19166   2.762   1.285   4.998 -0.0804 -0.1034  0.2411
 3273W        W19167  12.747   3.767  14.344  0.2070 -0.0150  0.1447
 3274W        W19168   8.277  12.131  15.645 -0.1808 -0.3554  0.0611
 3275W        W19169   1.685   6.600   4.726 -0.1635  0.0982 -0.0382
 3276W        W19170  10.304   8.010  12.618  0.1098  0.0865  0.0782
 3277W        W19171   6.321   0.130   5.639 -0.0519  0.1710 -0.0008
 3278W        W19172  10.616   5.581  13.195  0.1558  0.0889 -0.2889
 3279W        W19173   0.599   8.543  13.847 -0.0182 -0.0733  0.2449
 3280W        W19174  14.744   0.788   4.383  0.1065 -0.0427  0.1993
 3281W        W19175   5.093   1.007  16.466 -0.0182  0.2369 -0.1605
 3282W        W19176   3.302   0.004   2.730  0.3313  0.2297 -0.1099
 3283W        W19177  10.588   6.357  10.759 -0.0927 -0.0006  0.0252
 3284W        W19178   7.162  12.355  12.234  0.0038 -0.0046 -0.1808
 3285W        W19179  14.191   6.335   3.924  0.1742  0.0181 -0.0878
 3286W        W19180   4.392   5.703   1.091  0.1698  0.2308 -0.1245
 3287W        W19181  13.445   8.882  16.736  0.3089  0.1517 -0.0624
 3288W        W19182   4.575   1.375  16.173 -0.1181  0.0726 -0.1737
 3289W        W19183   0.451   0.420  12.917  0.0209 -0.2864 -0.0482
 3290W        W19184   8.495  16.907  13.351  0.0814  0.2982 -0.3272
 3291W        W19185  12.303   4.772   0.534  0.3952 -0.0370  0.3214
 3292W        W19186  11.031   2.850   2.136  0.0988 -0.0347  0.0212
 3293W        W19187  16.606   3.850  15.405  0.0329  0.0176  0.4891
 3294W        W19188   3.852   2.823   3.578 -0.1999  0.3776  0.1363
 3295W        W19189  10.216   4.851   3.688  0.0826  0.0187 -0.0733
 3296W        W19190   0.210   1.544  15.717  0.3733  0.0104 -0.1156
 3297W        W19191  12.465  11.721  14.802  0.0230  0.0044  0.0588
 3298W        W19192   6.911   8.155  11.712  0.3131 -0.1771  0.0522
 3299W        W19193   6.912  13.823   5.787  0.0717  0.2646 -0.0920
 3300W        W19194   7.639   3.490   2.721 -0.1280  0.0600  0.0483
 3301W        W19195   4.674  13.699  15.164 -0.1893  0.0899  0.3111
 3302W        W19196   0.489   2.496   5.447  0.2054  0.0266  0.0734
 3303W        W19197  11.203  17.250   5.742 -0.0475  0.1711 -0.0783
 3304W        W19198   9.061   0.502   0.452  0.0717  0.0133  0.1552
 3305W        W19199   0.857   0.420  12.439 -0.1669 -0.0510 -0.1260
 3306W        W19200   3.229  11.609   3.406  0.1978  0.2469 -0.1398
 3307W        W19201   1.425  17.218  12.091  0.1482  0.4437  0.2898
 3308W        W19202   1.329   8.928   0.307  0.0678  0.1506 -0.0796
 3309W        W19203   1.581   8.372  14.230 -0.2595 -0.0176 -0.0938
 3310W        W19204   7.078   6.197  13.535  0.0321 -0.0440 -0.1638
 3311W        W19205   1.076  13.479  13.785 -0.0102  0.1084 -0.0967
 3312W        W19206   3.754  15.064  15.863  0.0453 -0.1024  0.0525
 3313W        W19207  14.560  11.152   5.387 -0.1244 -0.2548  0.1314
 3314W        W19208  10.769   3.815  17.291 -0.0378  0.2241 -0.3392
 3315W        W19209   1.100  10.677   4.678 -0.1175  0.0554  0.0271
 3316W        W19210  10.658  16.687  13.140 -0.1582  0.0619 -0.3317
 3317W        W19211  13.840  12.557  10.984  0.2550 -0.0714 -0.0864
 3318W        W19212   3.351   3.830  12.781 -0.2309 -0.0399  0.0927
 3319W        W19213  15.256   1.049   2.254  0.0156 -0.1342  0.2360
 3320W        W19214  16.495   7.310  15.787  0.0239 -0.1850 -0.2660
 3321W        W19215  16.782   9.709  13.014 -0.1100  0.0863 -0.1152
 3322W        W19216   2.358   9.130   5.650 -0.4415 -0.2506  0.2304
 3323W        W19217   4.870   2.048   0.886 -0.2967 -0.0925 -0.3702
 3324W        W19218   5.526   4.410  13.917  0.0289 -0.1179  0.0431
 3325W        W19219   9.126  11.684  16.874 -0.1421 -0.0412 -0.1442
 3326W        W19220   6.358   2.359  15.026  0.2277  0.0489 -0.1794
 3327W        W19221  10.991   2.368   2.170 -0.1209 -0.0906  0.2122
 3328W        W19222  17.249  12.502  14.535 -0.2484 -0.0281 -0.1841
 3329W        W19223   7.875   0.046   2.730 -0.1492 -0.0956 -0.0984
 3330W        W19224  12.194   0.443   2.766 -0.0316 -0.1329  0.1781
 3331W        W19225   4.019  10.528   0.077  0.1599 -0.0176  0.1091
 3332W        W19226   8.106  13.108   4.605 -0.1388 -0.2026 -0.0850
 3333W        W19227  10.824   3.572   6.243  0.0623 -0.0514 -0.0384
 3334W        W19228   7.220  17.316  16.444  0.2082 -0.1318  0.1313
 3335W        W19229   9.658  15.259  13.366 -0.0010  0.1468 -0.0356
 3336W        W19230   5.951   6.189  15.517  0.0527 -0.4337  0.1767
 3337W        W19231   1.927   6.993   4.908 -0.3428 -0.1977 -0.0010
 3338W        W19232  11.010  11.635   0.441  0.0441  0.0266  0.1498
 3339W        W19233   2.787   3.886   4.321 -0.1187  0.1188 -0.0962
 3340W        W19234   9.270   4.940   4.310 -0.0903  0.4314  0.0317
 3341W        W19235  12.380   9.353   2.283  0.1402  0.1248 -0.0930
 3342W        W19236   4.578  14.285  16.715  0.0270 -0.0784  0.1615
 3343W        W19237   8.889  17.592   3.233 -0.2810 -0.1089 -0.0596
 3344W        W19238  11.386   3.229  12.739  0.2425  0.1627 -0.2436
 3345W        W19239  17.240  13.796  16.073  0.0860  0.1406  0.0072
 3346W        W19240  11.243   5.819  17.290  0.0565 -0.1735 -0.1013
 3347W        W19241   6.787   2.139  14.489  0.0694 -0.1261 -0.1245
 3348W        W19242  16.164   7.740   0.408 -0.1883  0.1842 -0.0034
 3349W        W19243  10.660  16.215   3.949  0.2459 -0.1038 -0.3390
 3350W        W19244  13.383  10.289   2.132  0.2248  0.0669  0.1097
 3351W        W19245   0.801   2.280   5.785 -0.1811 -0.1215 -0.0638
 3352W        W19246   6.253  14.349   5.383  0.1774  0.0372  0.0355
 3353W        W19247   4.108  17.175  13.875  0.1505 -0.0360  0.0488
 3354W        W19248  16.131  16.033   1.779  0.0902  0.0448  0.0374
 3355W        W19249   1.649   5.112   4.469 -0.0311 -0.0992 -0.0701
 3356W        W19250   6.844   3.107  15.599 -0.3848  0.1694  0.2141
 3357W        W19251   3.352  10.087   3.244 -0.2201  0.1388  0.0907
 3358W        W19252   0.463   6.985  12.752 -0.0752  0.0761 -0.1330
 3359W        W19253   7.967   3.829   2.972 -0.1512 -0.1718 -0.3063
 3360W        W19254   8.027  15.114   6.260  0.0268  0.1638 -0.0347
 3361W        W19255   1.109  14.006  12.997 -0.1664  0.0067 -0.1037
 3362W        W19256  13.876  11.583  15.644 -0.1223 -0.1427  0.0080
 3363W        W19257   4.408   4.848   2.342 -0.1029 -0.1611 -0.4220
 3364W        W19258   0.438   1.241  15.399 -0.1060  0.2598 -0.0998
 3365W        W19259   4.079   6.561   3.099 -0.1030 -0.2205 -0.1379
 3366W        W19260  12.974  16.611  15.281 -0.0523  0.5489  0.2525
 3367W        W19261   0.046   2.417  11.924 -0.1858  0.2450 -0.3106
 3368W        W19262  14.775  14.540   2.425 -0.1946  0.3285  0.0688
 3369W        W19263   9.176   0.694   5.774 -0.0306  0.1985 -0.1047
 3370W        W19264  15.788   9.865   0.010  0.2962  0.2608  0.1635
 3371W        W19265  16.064  14.475  12.907 -0.1109  0.0812 -0.1514
 3372W        W19266  12.361  11.926   5.452 -0.0715  0.0609  0.1695
 3373W        W19267   0.366  16.415   5.568 -0.2540 -0.0250  0.0463
 3374W        W19268  11.152  12.897   0.659  0.0179  0.1196  0.0958
 3375W        W19269  14.136  17.429   5.386  0.1397  0.1481  0.0860
 3376W        W19270  13.262   3.080   1.659  0.0432 -0.1154  0.1650
 3377W        W19271  11.590  11.706  15.514 -0.1441  0.0365  0.1318
 3378W        W19272  13.367  11.671  16.438  0.1314 -0.1246 -0.0833
 3379W        W19273  16.350  10.574  13.670  0.2934  0.3025 -0.1446
 3380W        W19274  13.682   1.132  12.545  0.7523 -0.0455  0.2221
 3381W        W19275  12.548  12.279  12.907 -0.3785  0.0651 -0.3800
 3382W        W19276  17.132   4.239   4.290  0.1063  0.1798  0.1387
 3383W        W19277   3.618  12.536   5.664  0.1807 -0.2944 -0.3741
 3384W        W19278   5.930  15.705  13.241  0.1637 -0.1620 -0.0484
 3385W        W19279  15.998  10.357  15.872  0.1474  0.0212 -0.1476
 3386W        W19280  12.506  12.237   4.618 -0.2443 -0.2754  0.2397
 3387W        W19281   1.921   9.479  12.056 -0.1318 -0.1498 -0.1991
 3388W        W19282   3.448  16.309  15.300 -0.2143 -0.1782 -0.0743
 3389W        W19283  12.792   9.855  10.766  0.0990 -0.3825  0.0628
 3390W        W19284  16.485  16.923  15.061 -0.0932 -0.0161  0.2206
 3391W        W19285  17.438   8.336   2.002 -0.0018  0.3615  0.1116
 3392W        W19286   9.628  16.011   1.189  0.1612  0.1501 -0.2121
 3393W        W19287   6.317  10.126  15.726  0.4104  0.0795  0.0249
 3394W        W19288   1.505  17.579  14.391  0.1596 -0.0775 -0.0641
 3395W        W19289   5.595   6.682  12.711  0.2083 -0.1908 -0.0603
 3396W        W19290  16.345  12.590   5.175  0.1257  0.0448 -0.0190
 3397W        W19291  10.954  16.843   4.989 -0.0718 -0.0536  0.1992
 3398W        W19292  16.480  16.732  13.946  0.0263  0.1044  0.2582
 3399W        W19293   8.693   2.750  13.803 -0.1321  0.3953 -0.0357
 3400W        W19294  10.277  15.010   2.607  0.1274  0.0569 -0.0264
 3401W        W19295   7.351   5.160  12.748 -0.0378  0.0192 -0.0770
 3402W        W19296   8.177   2.982  15.703  0.0374 -0.1717 -0.0161
 3403W        W19297   9.593  13.831   4.432 -0.0796 -0.5246 -0.4310
 3404W        W19298   3.443  16.562   2.284 -0.1190 -0.0926  0.0819
 3405W        W19299  12.804  14.519   3.436  0.2793  0.1000 -0.4824
 3406W        W19300  10.620   9.330  13.953  0.1825  0.0967  0.0874
 3407W        W19301  10.735   9.544   5.172  0.0952  0.0052 -0.0626
 3408W        W19302   0.308  17.256   0.455  0.1933 -0.1852 -0.1522
 3409W        W19303  14.831   4.045  16.120 -0.3342 -0.0800  0.1821
 3410W        W19304   8.229  13.747   3.854 -0.2116 -0.0851 -0.0009
 3411W        W19305  17.330   1.471   0.924  0.0226  0.1338  0.3103
 3412W        W19306  10.101  10.366   3.505  0.0575  0.2037 -0.2948
 3413W        W19307  10.338   4.011   0.150  0.2196  0.0149 -0.1575
 3414W        W19308  14.675  15.015  13.947  0.0279 -0.2347  0.1928
 3415W        W19309  14.325   0.813   5.515  0.0004 -0.1279 -0.0830
 3416W        W19310   9.064  14.381   3.108 -0.1612  0.0761  0.0738
 3417W        W19311   8.314   5.696   2.213 -0.0437 -0.1788  0.4157
 3418W        W19312  16.902   6.549  14.951  0.1135 -0.1328 -0.0212
 3419W        W19313   4.971   8.925   1.510  0.0843  0.1042  0.1181
 3420W        W19314  12.491   6.692  16.424  0.1105  0.1196 -0.1522
 3421W        W19315   3.725   8.095   0.388  0.1607  0.1729 -0.1714
 3422W        W19316   8.325   7.002  12.394  0.1538  0.1657 -0.0818
 3423W        W19317  15.036   0.764   0.392  0.3454 -0.1929  0.0660
 3424W        W19318  16.625   6.939  14.800 -0.0138  0.3831  0.1536
 3425W        W19319   8.088   6.946   2.068  0.1364  0.1409 -0.0305
 3426W        W19320   9.289   4.773  13.366 -0.1355 -0.0950 -0.0342
 3427W        W19321  17.510   8.221  15.424 -0.0554 -0.0874 -0.2133
 3428W        W19322  17.567  10.649  12.446  0.1968  0.0840  0.0256
 3429W        W19323   2.385  14.870  16.048  0.3057  0.1654 -0.1525
 3430W        W19324   7.568   5.675   4.880  0.1652  0.2997  0.0282
 3431W        W19325   3.508   4.227   1.503  0.1389 -0.1058 -0.1807
 3432W        W19326  13.440   7.109  16.779 -0.2916 -0.4284 -0.2336
 3433W        W19327  12.447   4.781  14.595  0.0365 -0.2475 -0.1918
 3434W        W19328  13.474  16.249  12.738  0.0020 -0.2823  0.1730
 3435W        W19329   0.812  10.160  13.864  0.1313  0.0560 -0.2302
 3436W        W19330   8.732   2.287   0.730  0.0423  0.0882  0.0617
 3437W        W19331  14.886  12.479  16.648 -0.0697 -0.0709  0.0594
 3438W        W19332   1.609  11.268   1.523 -0.2121 -0.0711 -0.0248
 3439W        W19333   4.601   9.251   6.239 -0.2995  0.2257  0.1081
 3440W        W19334   0.484   0.063  16.296  0.1392  0.0387 -0.4329
 3441W        W19335  13.974  12.432  14.251  0.0168 -0.1586 -0.2645
 3442W        W19336  10.586   0.389  15.969  0.2937 -0.2091 -0.0303
 3443W        W19337   5.627   2.633  17.160  0.2204 -0.3644  0.0311
 3444W        W19338   6.965  10.841   4.806  0.0799 -0.0884  0.0277
 3445W        W19339   8.803  14.938  12.154 -0.0907 -0.2481  0.0735
 3446W        W19340   4.618  16.062   2.622 -0.1254 -0.0605  0.1896
 3447W        W19341   4.512  10.069   5.887 -0.2428 -0.1915  0.3190
 3448W        W19342   3.837   8.362   5.637  0.0933 -0.1335 -0.0925
 3449W        W19343  11.394  10.723  15.719 -0.0861 -0.0585 -0.1041
 3450W        W19344  15.384  12.992   0.233 -0.0494  0.0475 -0.3480
 3451W        W19345  15.301   4.189   3.555 -0.1533  0.1606 -0.1104
 3452W        W19346  17.022   5.011  17.283 -0.1912 -0.0815  0.3459
 3453W        W19347   8.278   6.649  11.493 -0.0234 -0.1965 -0.0486
 3454W        W19348   4.709   0.312  15.019 -0.2218  0.0988 -0.2296
 3455W        W19349  15.315  10.083   5.193 -0.0623 -0.0202  0.2910
 3456W        W19350  14.474  16.152  16.881  0.1055 -0.1652  0.0849
 3457W        W19351   7.928  17.101   0.648  0.0226  0.4593 -0.0646
 3458W        W19352   3.778  17.101   2.206 -0.0422  0.2243  0.0820
 3459W        W19353   2.585  16.091   2.552  0.1055 -0.0024  0.0423
 3460W        W19354  11.635  10.032  13.078 -0.4306  0.2414  0.0667
 3461W        W19355   4.542   1.149  15.195 -0.2648 -0.0383 -0.2382
 3462W        W19356  12.538   2.467  11.044 -0.2704 -0.0834 -0.4046
 3463W        W19357  16.098   0.597   2.194 -0.0400  0.0144 -0.2450
 3464W        W19358   4.944   7.845   1.572  0.4961 -0.0699 -0.2664
 3465W        W19359  13.027  12.177  12.383 -0.0095 -0.2926 -0.0748
 3466W        W19360   7.793  15.813  15.845  0.1948  0.0052  0.1004
 3467W        W19361  10.074  16.549  15.800 -0.0583 -0.0198 -0.0538
 3468W        W19362  17.472   9.631  11.848  0.0204 -0.2947  0.1057
 3469W        W19363  10.588   6.486   2.390 -0.2801 -0.2674 -0.1634
 3470W        W19364  13.040   5.485  14.610 -0.4080 -0.0109 -0.1153
 3471W        W19365  14.905   7.928  12.629  0.1346 -0.3005 -0.2781
 3472W        W19366  12.183   5.569  12.626  0.2334 -0.1220 -0.0135
 3473W        W19367   9.563  13.447   5.331 -0.0065 -0.3000 -0.1796
 3474W        W19368   1.803  15.265   2.565 -0.0350  0.3594 -0.0177
 3475W        W19369   6.356  16.238   5.032 -0.0070  0.1770 -0.1153
 3476W        W19370  14.258  13.771   2.051 -0.2101 -0.0029  0.0164
 3477W        W19371   4.436  16.286  16.039  0.0333 -0.1309  0.2162
 3478W        W19372   8.245   2.772  13.665 -0.1253 -0.0387  0.2207
 3479W        W19373  10.442   1.752  13.271 -0.1457  0.2325 -0.1000
 3480W        W19374  13.317  15.338   6.039 -0.1759 -0.2680 -0.2750
 3481W        W19375   3.710   9.221   4.295 -0.0618 -0.1172  0.2231
 3482W        W19376  12.004  14.859   3.761 -0.2713  0.2220 -0.0093
 3483W        W19377  16.279   3.014  12.892  0.0067 -0.1430 -0.1736
 3484W        W19378  13.651  10.386   4.886  0.0110  0.0514 -0.0772
 3485W        W19379   6.147   6.985  15.292 -0.2544  0.0728 -0.0151
 3486W        W19380   2.499   4.025  13.788  0.0487 -0.0574 -0.0256
 3487W        W19381   5.392   2.353   1.565 -0.0199 -0.1220 -0.0526
 3488W        W19382   2.321  14.246   1.169  0.0432 -0.2808 -0.1385
 3489W        W19383   9.909   5.637  15.251 -0.0660  0.2895 -0.0878
 3490W        W19384   7.224  16.937  14.711 -0.3026  0.3937  0.0778
 3491W        W19385  15.681  16.073  13.754 -0.2762 -0.1871  0.1636
 3492W        W19386   1.048   2.316   3.157 -0.2013 -0.1572 -0.2324
 3493W        W19387  14.079   9.104   4.284  0.2461 -0.0709 -0.0926
 3494W        W19388   9.271   4.399   5.211 -0.1661  0.0351 -0.0505
 3495W        W19389  14.647  16.952  14.077  0.1861 -0.0604 -0.3687
 3496W        W19390  12.468  12.056  13.352 -0.0471  0.0527  0.0584
 3497W        W19391   5.857  11.000  16.166 -0.1952  0.0238 -0.2567
 3498W        W19392  10.050   1.115  15.720  0.2866  0.2042  0.0049
 3499W        W19393  12.741  10.450   0.848 -0.2928  0.0568 -0.0772
 3500W        W19394  15.548  14.067  15.715 -0.2771  0.2019 -0.0653
 3501W        W19395  12.396  14.656   0.820  0.0212  0.3712  0.0767
 3502W        W19396  15.066  14.080   4.135  0.0471 -0.0275  0.1129
 3503W        W19397   0.166   6.665   4.209  0.1288  0.0533  0.1337
 3504W        W19398   9.295   3.752  16.545 -0.2490  0.0590  0.3505
 3505W        W19399   0.824   0.700   4.803  0.1192 -0.0367 -0.3361
 3506W        W19400  11.617   8.988  16.958 -0.0803  0.1381  0.1828
 3507W        W19401   9.111   8.812   5.633  0.0186 -0.1043 -0.0956
 3508W        W19402  11.556  15.017  11.452  0.0740  0.2538  0.0740
 3509W        W19403  10.320  10.792  14.853 -0.0016 -0.2492 -0.1972
 3510W        W19404  13.432   1.319   2.124 -0.1474 -0.0733 -0.0375
 3511W        W19405   1.798   1.140   0.435  0.0893 -0.1172 -0.0548
 3512W        W19406  17.566  11.781   4.387 -0.1598  0.1604 -0.0273
 3513W        W19407   0.384   1.985   5.511 -0.5205 -0.0642 -0.3765
 3514W        W19408   5.475   7.271  17.108 -0.2120  0.2396  0.0673
 3515W        W19409  14.666   2.522   5.470  0.2925 -0.0415  0.5403
 3516W        W19410   9.453  12.262   0.947  0.0598 -0.0572  0.1222
 3517W        W19411   6.947  14.138   0.734 -0.0463  0.3518 -0.3024
 3518W        W19412   4.979  14.575   5.182 -0.0680 -0.0488  0.0413
 3519W        W19413   5.218   5.980   0.469  0.2945 -0.0018 -0.1606
 3520W        W19414  12.135  15.012  16.974 -0.1961 -0.3095 -0.2054
 3521W        W19415   3.719   8.885  13.907 -0.0939  0.2485  0.0385
 3522W        W19416  16.482  16.543  16.047  0.1710 -0.3550 -0.0495
 3523W        W19417  16.082  14.917   2.260 -0.2734  0.4455 -0.0449
 3524W        W19418   0.254  14.568  15.318  0.2923  0.1784  0.1078
 3525W        W19419  16.997   3.291  14.600 -0.0139 -0.2752  0.0475
 3526W        W19420   2.313   9.642   0.428  0.0094 -0.0623  0.3454
 3527W        W19421   9.711   9.075   0.920 -0.0192  0.0745 -0.3569
 3528W        W19422   1.099   6.435  15.834  0.1510 -0.1605  0.0364
 3529W        W19423   7.921  12.123  15.248  0.0886 -0.2331  0.1946
 3530W        W19424   7.485   2.817   2.592  0.1259  0.0874 -0.0992
 3531W        W19425  15.938  14.136  12.557  0.3174 -0.1685 -0.1628
 3532W        W19426   9.073   8.254  13.333  0.1670  0.1376  0.2435
 3533W        W19427  12.386   9.828  14.550 -0.1780 -0.2093  0.0118
 3534W        W19428  14.895   2.134   4.476 -0.0339 -0.0386 -0.3098
 3535W        W19429  11.672  10.702   5.047  0.3031  0.1116  0.1813
 3536W        W19430  13.987  16.080  14.343 -0.0249 -0.0485  0.4892
 3537W        W19431  12.164  13.456   3.377  0.2742  0.1182 -0.2189
 3538W        W19432  16.861   0.075   2.145  0.1193  0.1694 -0.1911
 3539W        W19433  16.491  11.455   1.293 -0.1914  0.1594  0.2112
 3540W        W19434  16.386  10.092  12.222  0.1185  0.4929  0.1058
 3541W        W19435   4.503  11.329   2.630 -0.2462  0.0155  0.5163
 3542W        W19436  13.897  14.193  12.373 -0.0716 -0.3852  0.1280
 3543W        W19437   4.115   1.216  13.456 -0.0156 -0.1627 -0.1880
 3544W        W19438   2.799   8.460   0.095  0.1029 -0.2374  0.0618
 3545W        W19439   2.088   8.477   0.080  0.0204  0.1856  0.0838
 3546W        W19440  15.960   6.865  14.193 -0.0008 -0.0252  0.3517
 3547W        W19441   6.166   1.146   3.302 -0.0729 -0.0441 -0.1947
 3548W        W19442  11.926   4.787   3.934 -0.2375 -0.0540  0.3515
 3549W        W19443   1.192   0.661  15.026  0.1103 -0.1032  0.2982
 3550W        W19444   4.443   5.785   6.011  0.2135 -0.0389 -0.0158
 3551W        W19445   4.180  10.157  15.028 -0.0546 -0.1857 -0.3759
 3552W        W19446   6.959  10.605   3.000  0.1187  0.0305  0.1290
 3553W        W19447   3.922  15.952   4.534  0.1559  0.2177 -0.0534
 3554W        W19448  11.057   3.857   5.863 -0.1416 -0.0074  0.1144
 3555W        W19449  14.994  15.746   2.450  0.0595  0.0482  0.0548
 3556W        W19450   9.900   0.445  17.273  0.3512 -0.0178 -0.0100
 3557W        W19451   7.382   8.175  15.596 -0.3006 -0.0686 -0.1166
 3558W        W19452   2.056   0.783   1.727 -0.2717  0.0965  0.0548
 3559W        W19453  12.956  12.562   6.340  0.2643 -0.1591  0.0102
 3560W        W19454  13.217   3.000   5.164 -0.3538 -0.1070 -0.0117
 3561W        W19455  14.534   3.078  16.223  0.1514  0.1537  0.1618
 3562W        W19456  12.225   3.434   5.016 -0.2291  0.1882  0.2536
 3563W        W19457   4.850   4.804   3.801 -0.1171  0.1808 -0.0780
 3564W        W19458   1.008  12.751   2.255  0.0085  0.2737  0.1854
 3565W        W19459   5.024  13.977   1.998 -0.0744 -0.1150  0.1092
 3566W        W19460  10.766   1.488   0.622  0.0672 -0.0605  0.0041
 3567W        W19461   5.418  17.238  16.097 -0.2176  0.3480 -0.2583
 3568W        W19462   5.189  14.232  16.840  0.1115 -0.0433 -0.0660
 3569W        W19463   0.084  11.540  12.711 -0.2571 -0.1136  0.2125
 3570W        W19464   7.799  16.269  13.022  0.1786 -0.0434  0.1268
 3571W        W19465  11.988   7.780   5.194  0.0495  0.2312  0.0492
 3572W        W19466  14.899  15.059  14.774 -0.2435  0.0818  0.0711
 3573W        W19467   2.086   7.586   4.577 -0.2504 -0.1244  0.1902
 3574W        W19468   8.792   1.838   2.942 -0.1327  0.1896  0.3760
 3575W        W19469   7.178  13.967   2.916  0.0886  0.1184  0.2183
 3576W        W19470  16.261   2.108   6.131 -0.1508  0.1018  0.1101
 3577W        W19471   0.512  13.220   6.055 -0.0055  0.2524  0.2325
 3578W        W19472  16.660   4.437   5.865  0.1325  0.0277 -0.0884
 3579W        W19473   1.134   9.961   0.901  0.0422  0.1594  0.0966
 3580W        W19474   4.709   8.069   0.003  0.2367 -0.0229 -0.0465
 3581W        W19475   8.454   7.442   3.275  0.2402  0.1030 -0.1108
 3582W        W19476  14.990   0.132  15.724  0.1189  0.0907  0.0763
 3583W        W19477  16.767   4.001  13.926  0.0972  0.0220 -0.2042
 3584W        W19478  17.192  12.660  11.850  0.2030  0.0145  0.0194
 3585W        W19479  16.257  13.117   4.368 -0.0880 -0.3060  0.2403
 3586W        W19480  17.116  15.471   3.348 -0.0158  0.1731  0.0496
 3587W        W19481   6.326  14.744   0.762  0.1624 -0.1482  0.0697
 3588W        W19482  14.349  14.749  12.862 -0.1946 -0.2639 -0.1254
 3589W        W19483   3.596  11.690   5.258 -0.0860 -0.2029 -0.0121
 3590W        W19484   7.278  15.271   4.681 -0.2132 -0.0805 -0.1800
 3591W        W19485  14.918  10.369  15.670  0.1444  0.0159 -0.1139
 3592W        W19486   3.845   7.856  15.515  0.1713  0.4636  0.0845
 3593W        W19487  17.484   1.478  16.155 -0.0647 -0.0144 -0.2196
 3594W        W19488  17.486  13.631  14.547  0.1295  0.0047 -0.1190
 3595W        W19489   0.755  13.182   1.116  0.0181 -0.1485 -0.0684
 3596W        W19490   5.519   9.660   3.457  0.0958  0.1478  0.0636
 3597W        W19491   8.848  17.247   3.650  0.0033  0.2093 -0.0623
 3598W        W19492   1.338   4.126  13.647 -0.1427  0.1763  0.1181
 3599W        W19493  15.405   2.967   0.483 -0.0522 -0.2729  0.1998
 3600W        W19494  16.387  14.383  16.202 -0.2322  0.0578 -0.0570
 3601W        W19495   2.179   9.925   1.133  0.0466  0.1542  0.2524
 3602W        W19496  10.054  14.606   2.355  0.3093  0.0634  0.1750
 3603W        W19497   7.952  12.954  15.947  0.2332 -0.0843  0.0518
 3604W        W19498   2.515  10.780   2.505 -0.1784  0.2123 -0.1551
 3605W        W19499   0.545   7.774   5.072  0.0336  0.3663 -0.1901
 3606W        W19500   3.654  15.535   3.152  0.0041  0.0972  0.1135
 3607W        W19501   1.404   9.483   0.971 -0.1214  0.1152 -0.0803
 3608W        W19502  11.163   9.312  12.734  0.0290 -0.2567 -0.0235
 3609W        W19503   9.866  14.063   2.418  0.2481 -0.0367  0.0788
 3610W        W19504  10.852  10.066   5.063  0.1442  0.1418  0.0350
 3611W        W19505  12.136  17.057   5.560  0.3457  0.0817  0.3836
 3612W        W19506   2.273  13.023  14.472 -0.0490 -0.3759  0.0621
 3613W        W19507   9.587   0.929  15.696 -0.1254  0.4157 -0.1833
 3614W        W19508  11.987   9.760   2.411  0.1633  0.0092  0.4976
 3615W        W19509  15.295  12.254   4.439  0.1270 -0.1228 -0.1888
 3616W        W19510   9.074  16.432   4.712  0.3907 -0.0737  0.4991
 3617W        W19511   7.936  14.529  12.149  0.5402  0.0437  0.1746
 3618W        W19512   1.660   4.234   1.667 -0.2477  0.2526  0.2253
 3619W        W19513   3.379  11.559   0.703 -0.1350 -0.0242 -0.6862
 3620W        W19514   6.356  11.485  12.602  0.4311 -0.0048 -0.1780
 3621W        W19515   7.578  17.508  13.451  0.2066 -0.0590 -0.2082
 3622W        W19516  11.678   6.641   4.676 -0.4506  0.2664  0.0277
 3623W        W19517   2.194  15.263  12.673  0.1434  0.1637  0.0784
 3624W        W19518   5.861  12.833   0.766  0.1580  0.2096 -0.0047
 3625W        W19519   7.027   1.455  16.413 -0.0706  0.0966 -0.3062
 3626W        W19520   6.156  15.185   3.651  0.2478  0.0239 -0.1570
 3627W        W19521   0.802  14.951   1.531 -0.0138  0.4141 -0.0569
 3628W        W19522   5.883   9.907   4.597  0.0768 -0.2019 -0.0472
 3629W        W19523   0.772  16.292   0.982  0.0929 -0.0244  0.0246
 3630W        W19524   0.718   4.051   3.836  0.1887  0.1033 -0.0655
 3631W        W19525  17.633   5.853  12.989 -0.2758 -0.0244  0.5417
 3632W        W19526  14.435   5.999  13.949  0.2848 -0.1790 -0.2885
 3633W        W19527   0.469   8.412  13.331  0.0394 -0.0493  0.1730
 3634W        W19528  15.209   8.356  15.124 -0.0174 -0.0296  0.1473
 3635W        W19529  11.053   4.681  14.487  0.1912 -0.1564  0.0332
 3636W        W19530  15.913  13.856  11.966 -0.2521  0.1591 -0.2170
 3637W        W19531   1.797   6.237   1.405 -0.0556  0.1872 -0.2636
 3638W        W19532  12.350  16.292   1.223 -0.1018 -0.1594  0.4270
 3639W        W19533   9.849   9.868  15.404  0.1229 -0.3301 -0.1352
 3640W        W19534  16.800  16.626  13.472  0.1709  0.1364 -0.0160
 3641W        W19535  11.157  16.803  13.331 -0.1351 -0.1308 -0.0739
 3642W        W19536  10.560  15.389  12.369  0.0133 -0.1108 -0.1248
 3643W        W19537   4.056   8.384  13.075 -0.1753 -0.1223 -0.0996
 3644W        W19538   3.267  12.237   5.862 -0.2025  0.0248  0.2876
 3645W        W19539   1.818   6.030   3.507  0.0754 -0.0692  0.3968
 3646W        W19540   0.502  11.561  14.959  0.1037  0.2101 -0.1584
 3647W        W19541  14.614   9.056   0.901  0.2364  0.0687 -0.1357
 3648W        W19542  14.230  11.189  15.663 -0.3587 -0.0332 -0.2606
 3649W        W19543   1.942  11.731   3.873 -0.1562  0.3593  0.4018
 3650W        W19544  10.742  12.779   1.103  0.1569  0.0117 -0.1070
 3651W        W19545   0.711   5.612  16.880 -0.0385  0.3743  0.1255
 3652W        W19546   5.050  10.671   3.097 -0.0367  0.0881 -0.4001
 3653W        W19547   9.070   3.990   2.308 -0.1048 -0.0839 -0.2410
 3654W        W19548  12.926   0.509  17.272 -0.0353 -0.1754 -0.1886
 3655W        W19549  10.597   4.288   4.411 -0.2522  0.1597  0.1598
 3656W        W19550   8.671  12.591  14.102  0.2481 -0.0104  0.1313
 3657W        W19551   9.332   5.535  14.720 -0.0866  0.0027 -0.1308
 3658W        W19552  11.846  17.469  16.001 -0.0549 -0.1440 -0.1085
 3659W        W19553  10.185   2.629   2.792  0.1588  0.0502  0.1265
 3660W        W19554  12.814  14.591   1.738 -0.1297 -0.4160 -0.0086
 3661W        W19555   1.522  10.568  16.978 -0.1835 -0.0860  0.0136
 3662W        W19556  12.734   2.622  14.927 -0.2155  0.0312  0.1730
 3663W        W19557  10.536   4.462  12.994  0.2448 -0.1733 -0.0921
 3664W        W19558   0.461  10.516   3.383  0.0148 -0.0487  0.1502
 3665W        W19559   7.387   4.733   4.564  0.4076 -0.1498  0.2343
 3666W        W19560  14.834   0.808   0.937  0.1182  0.1346 -0.3708
 3667W        W19561   8.349   4.393   4.729 -0.0379 -0.0096  0.0382
 3668W        W19562   6.631   8.225  16.456  0.0003 -0.0092  0.2458
 3669W        W19563  15.229  15.424   2.071  0.0244  0.0637 -0.1662
 3670W        W19564   8.842  17.578  14.479  0.0186 -0.0665 -0.0557
 3671W        W19565   3.725  10.504   1.581  0.1256 -0.2191  0.0038
 3672W        W19566  15.703   9.779   5.260  0.0500  0.0099  0.0356
 3673W        W19567  12.271  17.254   2.770  0.3876 -0.0043  0.4395
 3674W        W19568   5.855  16.926   0.432  0.1160  0.2705  0.0088
 3675W        W19569   8.347   5.736  15.614 -0.2144  0.3847  0.0213
 3676W        W19570   2.090   1.454  14.935 -0.1060  0.1213 -0.0803
 3677W        W19571   3.972   5.634   1.393  0.2123  0.0614 -0.2270
 3678W        W19572   3.280   3.236   6.181 -0.2636 -0.0654  0.2148
 3679W        W19573   4.997  16.514  17.267  0.0462 -0.2413  0.1646
 3680W        W19574  14.906   6.316   0.172 -0.1538 -0.2827 -0.0394
 3681W        W19575   4.772   0.822   3.439 -0.1040  0.1799 -0.2583
 3682W        W19576   8.430  15.690  14.192  0.0932  0.0008  0.0219
 3683W        W19577  17.008  15.511   2.471  0.1764  0.1328 -0.1383
 3684W        W19578   0.827  11.773   2.475  0.0856 -0.3079 -0.1079
 3685W        W19579  14.363  11.340  14.980 -0.2011 -0.1850 -0.2188
 3686W        W19580   1.303  13.483  15.958  0.1950 -0.1738  0.1406
 3687W        W19581   5.789   0.279  15.427  0.3669  0.1008  0.7298
 3688W        W19582   7.003   2.946  13.976  0.1297  0.0172  0.1029
 3689W        W19583   6.889  17.073  12.507  0.0258  0.2528 -0.1535
 3690W        W19584  16.299   6.940   2.395  0.2872 -0.1573  0.0137
 3691W        W19585   1.708  15.425  15.487  0.0275 -0.2257  0.1798
 3692W        W19586   8.289  14.587   4.571  0.1134  0.0520 -0.1906
 3693W        W19587  15.988   5.070  12.983 -0.1754 -0.0504  0.0784
 3694W        W19588   7.457   8.114  11.283 -0.2143 -0.1860  0.0662
 3695W        W19589   9.172  14.729   4.210  0.3178 -0.2818  0.2646
 3696W        W19590  17.277   0.652   0.577  0.0002  0.1063  0.0355
 3697W        W19591   6.489   1.666  12.837  0.1523 -0.1021 -0.2039
 3698W        W19592   0.881   3.326   6.446  0.3119 -0.0153  0.0426
 3699W        W19593   8.772  14.509  15.881  0.0943  0.2137 -0.1547
 3700W        W19594   4.570   0.466  17.133 -0.2887  0.1803 -0.1351
 3701W        W19595   1.548  14.498   1.869  0.0939 -0.1180 -0.0407
 3702W        W19596   7.385   9.734  15.874 -0.0853 -0.1302  0.0118
 3703W        W19597   5.234   0.275   5.994  0.4685  0.0004  0.0782
 3704W        W19598   9.523  11.968  17.185 -0.2273  0.1448  0.1585
 3705W        W19599   7.409  13.057   0.557  0.0868 -0.0263 -0.1130
 3706W        W19600  13.255  14.781  15.276 -0.2189 -0.4226 -0.1100
 3707W        W19601   6.223  15.428   6.426 -0.3938  0.0842 -0.3624
 3708W        W19602   1.932   6.799   1.187  0.1537 -0.1818  0.0450
 3709W        W19603  10.879   5.786  12.080 -0.1732  0.1049  0.1460
 3710W        W19604  14.719   4.824   1.728  0.3386  0.0719 -0.2411
 3711W        W19605  16.046   8.054  15.394 -0.3749 -0.2550 -0.1747
 3712W        W19606   3.767   8.831  13.052 -0.0795 -0.2635 -0.3007
 3713W        W19607   0.774   5.810  14.275 -0.2015 -0.0193  0.0647
 3714W        W19608   3.583   8.872   0.960  0.2381 -0.3736 -0.1829
 3715W        W19609   9.256  12.931   1.419 -0.0374  0.1943  0.0313
 3716W        W19610  13.901  11.292  16.674  0.0014  0.1829 -0.2379
 3717W        W19611   3.440  15.237   0.148 -0.0343 -0.0709 -0.2192
 3718W        W19612   6.365   5.721  12.546  0.3916 -0.5212  0.1301
 3719W        W19613  15.154   3.507   2.821 -0.1051 -0.3528  0.3463
 3720W        W19614   5.066  14.832  13.706  0.0775  0.0138  0.1343
 3721W        W19615  12.490   7.322  11.242 -0.2708  0.0088  0.2966
 3722W        W19616  13.662  10.276  16.887  0.1395  0.0111 -0.1239
 3723W        W19617  10.964  17.509   1.361  0.3493  0.0422 -0.0363
 3724W        W19618   2.803   0.648   2.360  0.1254 -0.0419  0.1316
 3725W        W19619   0.831  10.522   6.942 -0.0707  0.0978  0.0594
 3726W        W19620   4.362   3.208   4.211  0.0411 -0.1623 -0.0016
 3727W        W19621  12.526  11.333  15.467 -0.2863  0.1196 -0.0146
 3728W        W19622   7.187   6.534  14.600 -0.2104  0.2237  0.2269
 3729W        W19623   8.737  17.485  17.282  0.0776 -0.0269 -0.0167
 3730W        W19624   4.553   8.149   6.046 -0.3869  0.0540  0.1274
 3731W        W19625   2.133   4.404  16.760  0.0251 -0.2257  0.2052
 3732W        W19626   9.236   1.480   0.763  0.0723 -0.0180  0.0057
 3733W        W19627   4.184   2.379   2.877  0.1141 -0.0202  0.1717
 3734W        W19628   7.085  10.084  14.164  0.0598 -0.2956 -0.1325
 3735W        W19629   8.672   8.829   6.396 -0.0512  0.1091  0.0016
 3736W        W19630   6.739   5.442   4.375 -0.1562 -0.0563  0.1153
 3737W        W19631  11.190  13.653  16.737 -0.0131 -0.0114 -0.1798
 3738W        W19632   4.179  15.899   0.277  0.0982  0.3254 -0.1954
 3739W        W19633   8.799  16.316  16.035 -0.2502 -0.0485  0.1843
 3740W        W19634  17.088   1.263  15.490  0.2961 -0.1976 -0.0646
 3741W        W19635   0.571   4.967  13.663 -0.0779 -0.1810  0.0650
 3742W        W19636   8.066  12.318   4.547 -0.0496 -0.1597  0.1463
 3743W        W19637  10.051  10.490  17.095  0.0504 -0.1354 -0.0274
 3744W        W19638  10.686   1.020  12.655 -0.0150 -0.1514  0.0073
 3745W        W19639  17.408  17.281   2.682  0.0266 -0.0794  0.1389
 3746W        W19640   6.086   1.606  12.542  0.1921  0.2942  0.0404
 3747W        W19641   7.941  11.920  14.352 -0.1058  0.3536  0.0398
 3748W        W19642   5.590   4.086   0.059  0.2912  0.1117  0.3666
 3749W        W19643  11.949  16.796  12.730  0.0582  0.2749  0.0925
 3750W        W19644   9.021  14.185   3.928  0.5433  0.1226 -0.1072
 3751W        W19645   6.247  12.912  14.252  0.3335  0.3166  0.1395
 3752W        W19646   4.145   2.230  14.622 -0.2377  0.4216 -0.0461
 3753W        W19647   8.676  13.045  15.442  0.0027 -0.0821 -0.1523
 3754W        W19648   1.600  17.090   0.219  0.0086  0.1932 -0.1104
 3755W        W19649  10.064   4.070  16.926  0.1449  0.0644  0.0520
 3756W        W19650  11.908  16.264  14.223  0.3642 -0.0404 -0.0136
 3757W        W19651   2.736   7.948   5.025 -0.4075  0.0433 -0.0374
 3758W        W19652  12.640   3.327   3.948 -0.1760  0.0893 -0.1425
 3759W        W19653  17.533   0.882   0.272  0.1662 -0.1250  0.3256
 3760W        W19654   9.114  15.344  15.931 -0.2256 -0.1023 -0.0685
 3761W        W19655   9.072   0.507   1.024 -0.0185 -0.1146 -0.0241
 3762W        W19656   1.078   5.612   4.905  0.3622  0.2213 -0.2575
 3763W        W19657   6.901   6.928   4.765  0.2526  0.1598 -0.1924
 3764W        W19658  14.349   2.394   4.674  0.1406  0.1562  0.4175
 3765W        W19659  15.174  13.548   0.158  0.0601 -0.0710 -0.1804
 3766W        W19660   4.609  12.208   2.801  0.2543  0.0026 -0.1330
 3767W        W19661   3.793   1.577   4.705 -0.1046 -0.0019 -0.0502
 3768W        W19662  10.796  14.013   5.401  0.0279  0.1965  0.0230
 3769W        W19663   9.106  12.138  12.541 -0.1034  0.0474  0.0600
 3770W        W19664   4.052   7.372   1.521  0.1156 -0.1067  0.4005
 3771W        W19665   9.630  16.554  14.806 -0.0901 -0.0656  0.0214
 3772W        W19666  17.204   2.179   4.983 -0.2701  0.1277  0.0730
 3773W        W19667  16.838  12.265  16.666  0.0810 -0.0644  0.0440
 3774W        W19668  14.230   7.060   3.506  0.2725 -0.3069 -0.0143
 3775W        W19669   6.545  11.925  14.685  0.0074  0.1794 -0.0442
 3776W        W19670   9.767   2.597  15.647 -0.0660  0.1823  0.1271
 3777W        W19671  14.242   3.785  12.927  0.0777  0.1606  0.1882
 3778W        W19672   5.512   2.929   3.285 -0.2087 -0.0073  0.0356
 3779W        W19673   4.443  17.484  15.204 -0.2133 -0.1382 -0.2041
 3780W        W19674   8.055  12.349  13.061  0.0175 -0.1444  0.0514
 3781W        W19675  17.374   8.456   0.457 -0.1979  0.4154 -0.1741
 3782W        W19676   5.952   3.455   3.328 -0.1493 -0.3769 -0.1337
 3783W        W19677   0.847  10.628  14.664 -0.0830 -0.0465 -0.1421
 3784W        W19678  14.623   2.481   0.243 -0.0924 -0.3544 -0.1602
 3785W        W19679   5.685   0.159  14.979 -0.1482 -0.1757 -0.1761
 3786W        W19680  10.744  15.228   1.031  0.3536 -0.0618 -0.1828
 3787W        W19681  12.077   0.154  15.163  0.3470  0.0597  0.0760
 3788W        W19682  11.688   4.638   1.359  0.0268 -0.2923 -0.4523
 3789W        W19683  12.131  16.841  14.008  0.1055 -0.1063 -0.1723
 3790W        W19684  13.380   9.894   1.357 -0.2177 -0.1582  0.1820
 3791W        W19685   7.905   9.140   5.084 -0.0402 -0.2235  0.0405
 3792W        W19686  13.843   9.695   4.337  0.1993  0.0403  0.0857
 3793W        W19687   0.013   4.776   0.795 -0.0958 -0.1168 -0.0399
 3794W        W19688   8.100  12.704   2.058 -0.0864 -0.5824 -0.2414
 3795W        W19689   4.847   9.054  15.257  0.3245 -0.1737  0.1448
 3796W        W19690   2.919   2.385   5.687 -0.2725  0.0589 -0.0362
 3797W        W19691  16.356   6.074  13.236 -0.1086 -0.0936  0.1427
 3798W        W19692   1.802   9.115  13.859  0.1528 -0.1281 -0.0450
 3799W        W19693   9.733   2.419  16.741 -0.1361 -0.3114  0.0003
 3800W        W19694  10.911  17.191  14.441 -0.0302 -0.0763 -0.0039
 3801W        W19695   8.728   4.424   2.358  0.1359  0.2191 -0.2526
 3802W        W19696  11.816   0.781   4.719  0.0504  0.0831  0.1247
 3803W        W19697   6.918   1.281  14.646  0.0467 -0.2794  0.1089
 3804W        W19698   0.977  17.116  14.400  0.0033  0.0153  0.1024
 3805W        W19699  12.731   9.828  17.231 -0.3748  0.2991 -0.0276
 3806W        W19700   3.425   1.305   0.276 -0.0719 -0.0460 -0.1845
 3807W        W19701   6.961  15.253   1.441  0.1808  0.1104  0.1147
 3808W        W19702  10.760  12.953  16.679 -0.3449 -0.2007 -0.0883
 3809W        W19703  11.716   1.733  11.765  0.2769  0.0796 -0.1286
 3810W        W19704   5.187   2.661   5.003  0.0746 -0.4060 -0.2071
 3811W        W19705   7.107   9.465  12.456 -0.0277 -0.0018  0.0921
 3812W        W19706   7.211   3.277  16.545 -0.0081 -0.1473 -0.1209
 3813W        W19707   4.738  15.259  14.420  0.1421 -0.2575 -0.2506
 3814W        W19708   8.167   1.250   3.953  0.3185 -0.0999  0.3694
 3815W        W19709   2.884   3.962  15.553 -0.0049 -0.1958 -0.2050
 3816W        W19710   4.133   4.069   3.730  0.4429  0.2647 -0.0187
 3817W        W19711   2.537  12.667  13.100  0.2020  0.2771  0.0290
 3818W        W19712   6.853   5.178   5.684 -0.1996  0.2510  0.0796
 3819W        W19713  11.727   2.276   4.207  0.2256  0.2219  0.0903
 3820W        W19714   0.012   7.739  13.001 -0.3319  0.1706  0.0221
 3821W        W19715   1.560   5.826   2.471 -0.0358 -0.2039  0.1950
 3822W        W19716   2.589  11.887  16.297 -0.1634 -0.1010  0.0973
 3823W        W19717  12.515  16.262   1.687 -0.0057  0.0509 -0.0090
 3824W        W19718  12.717  15.625  15.288 -0.2939  0.0268  0.0945
 3825W        W19719  15.371  11.049   3.314 -0.1866  0.0309  0.0935
 3826W        W19720  12.133  17.268   3.678  0.2407  0.0935 -0.1467
 3827W        W19721   9.128   7.989   1.473 -0.0197  0.2249 -0.0044
 3828W        W19722  15.300   9.297  14.212  0.3605  0.0915 -0.1395
 3829W        W19723   0.279   8.814  16.620 -0.2329 -0.0254  0.1270
 3830W        W19724   1.140  13.800   2.389  0.2814 -0.1459  0.0236
 3831W        W19725   9.003  13.604  16.892  0.2280  0.3863 -0.2743
 3832W        W19726   1.832  11.537  14.612 -0.1860  0.1221  0.0061
 3833W        W19727   8.833   2.458   5.209  0.2538 -0.1074 -0.1807
 3834W        W19728  14.918   7.587   4.226 -0.0360  0.0110 -0.0166
 3835W        W19729   9.484  13.434   0.312 -0.1226  0.2396 -0.1112
 3836W        W19730   0.992  12.236  16.404 -0.0209  0.3334 -0.4084
 3837W        W19731  17.527   9.564   3.974  0.2399  0.1657 -0.1140
 3838W        W19732   3.883   8.900  12.316  0.1195 -0.0109  0.0805
 3839W        W19733  10.217   5.474  14.873 -0.1786 -0.0967 -0.0608
 3840W        W19734   7.349   0.960   0.381  0.1900 -0.1267  0.0617
 3841W        W19735   4.300  11.845  15.967  0.2724  0.0385 -0.2054
 3842W        W19736   4.360  11.475   3.179  0.1196 -0.0826  0.0953
 3843W        W19737   6.304  12.123   2.298 -0.0441 -0.3664  0.1803
 3844W        W19738   2.587   9.678   4.713 -0.0088  0.0181 -0.0505
 3845W        W19739   6.239   5.862  16.761 -0.1165  0.1141  0.0092
 3846W        W19740  16.762   3.154  12.851  0.1372  0.3103 -0.0240
 3847W        W19741   8.724   5.366  12.234  0.0050  0.0959 -0.0195
 3848W        W19742   8.539  12.264  17.000 -0.1117 -0.3853  0.2327
 3849W        W19743  12.517   8.465  13.433  0.0222 -0.2386  0.0124
 3850W        W19744  10.060  14.553   4.657 -0.0548 -0.3263  0.1780
 3851W        W19745   1.586  11.619   5.254  0.1083  0.0261 -0.0873
 3852W        W19746  13.881   7.816  16.295 -0.0686 -0.1782 -0.0169
 3853W        W19747  16.111  16.724   2.259  0.1397 -0.1677  0.1691
 3854W        W19748  12.804   4.276   3.840 -0.0057 -0.0737 -0.0729
 3855W        W19749   2.487  16.595   4.627  0.2182  0.0375 -0.0459
 3856W        W19750   9.309   7.922  14.156 -0.0725 -0.1276  0.1551
 3857W        W19751  13.753   1.910   3.906 -0.1765  0.0386 -0.1143
 3858W        W19752  16.331  13.999   3.913 -0.0492 -0.0823 -0.0027
 3859W        W19753   6.571  14.965   1.199  0.2563  0.1170 -0.0716
 3860W        W19754   8.890  10.521   6.172  0.0268 -0.2249 -0.0286
 3861W        W19755  12.464   6.064   4.622 -0.0529 -0.1925 -0.2129
 3862W        W19756   8.175   0.640  14.518  0.1303 -0.1854 -0.2100
 3863W        W19757   5.995   9.014   1.393  0.1194 -0.0998  0.1700
 3864W        W19758   4.018   4.453  16.242 -0.0031  0.1568  0.0200
 3865W        W19759   7.854   4.493  17.059 -0.1493  0.3686  0.0511
 3866W        W19760   3.544   8.591  14.353 -0.0573 -0.1859  0.0240
 3867W        W19761   3.496  17.283   3.934  0.0460 -0.0366  0.3107
 3868W        W19762   7.487  10.192   5.386  0.0155  0.0989  0.2584
 3869W        W19763   5.378   3.113   5.906  0.1774  0.1787  0.0751
 3870W        W19764  11.437  13.002  12.116 -0.0802 -0.0038 -0.2122
 3871W        W19765   7.581   4.269   5.650  0.2267 -0.0245  0.1113
 3872W        W19766  17.264  12.981   5.721  0.2527  0.2231  0.2084
 3873W        W19767  15.540  15.330   3.273  0.0854 -0.0793  0.2659
 3874W        W19768   6.075   8.054  13.949 -0.1947 -0.2618 -0.0881
 3875W        W19769   9.785  15.810   3.140  0.0139  0.0282  0.1510
 3876W        W19770   4.164  11.303   4.103 -0.0878 -0.0635  0.1291
 3877W        W19771   4.627  16.150   5.079 -0.2923  0.0171  0.0024
 3878W        W19772   6.344   0.940   3.691  0.0595 -0.4028  0.0107
 3879W        W19773   0.929  12.988   6.087  0.1680 -0.2013  0.1914
 3880W        W19774   8.955  15.054  14.326  0.1301  0.1568  0.2167
 3881W        W19775   5.646  11.380  15.686  0.1613 -0.3518 -0.4297
 3882W        W19776  17.205   0.924   2.732  0.0801 -0.0427  0.1716
 3883W        W19777   3.620   7.534   1.136  0.1288  0.1857  0.0550
 3884W        W19778  16.227  11.725  15.271 -0.0102  0.0109  0.0449
 3885W        W19779  16.708  17.228  14.635  0.1248 -0.1030  0.4184
 3886W        W19780   1.889  13.074  13.607 -0.1188 -0.1760 -0.0990
 3887W        W19781   1.589   6.860  13.160 -0.3176 -0.2098  0.0115
 3888W        W19782   1.984  12.716   1.910  0.2612 -0.0982  0.1861
 3889W        W19783   3.864  14.890   1.728  0.0229  0.2363 -0.0285
 3890W        W19784   9.853  15.099  16.470 -0.1304 -0.2525  0.3957
 3891W        W19785   2.305  15.329   0.454 -0.1270 -0.3404 -0.1689
 3892W        W19786  16.708   8.243  16.075  0.1282 -0.0876  0.0989
 3893W        W19787   2.738  10.053  14.554 -0.1156  0.1193  0.5110
 3894W        W19788   6.277   7.314  13.985 -0.1327 -0.0423 -0.1008
 3895W        W19789   9.330   1.022  16.178 -0.1739 -0.2068 -0.1252
 3896W        W19790   6.850  13.085  15.466 -0.0523 -0.0495  0.2195
 3897W        W19791  12.188   8.465  11.675 -0.3798  0.0567  0.1138
 3898W        W19792   6.266   7.901  16.022  0.0349 -0.1250  0.1045
 3899W        W19793  11.828   9.223   4.724 -0.1918  0.1051 -0.0330
 3900W        W19794  13.926   6.381  11.535 -0.0287 -0.3087  0.2913
 3901W        W19795  17.436   2.900  15.246 -0.1678  0.2281 -0.0133
 3902W        W19796   9.954   1.097  13.784  0.3104  0.1111  0.1193
 3903W        W19797   3.947   2.156  11.910  0.1075  0.0100  0.1812
 3904W        W19798   8.151   0.796  12.802 -0.0894 -0.0875 -0.1746
 3905W        W19799   0.596  14.369  13.708 -0.0311 -0.0862 -0.1131
 3906W        W19800   1.770   1.175   0.920 -0.1093 -0.0420  0.2486
 3907W        W19801   3.282  15.266   2.906 -0.0258 -0.0494  0.3203
 3908W        W19802   9.014   6.605   5.031 -0.1540 -0.1051 -0.2333
 3909W        W19803   7.164  12.603  14.549 -0.1364 -0.0876 -0.1879
 3910W        W19804   3.765   3.631  12.535  0.0099 -0.3212  0.3921
 3911W        W19805   5.403  10.113   2.123  0.0195  0.1630  0.1160
 3912W        W19806   2.014   8.514   5.084 -0.2367 -0.1788 -0.0852
 3913W        W19807  12.748   0.527   5.913  0.2212  0.1691 -0.2101
 3914W        W19808   8.362   4.527  15.843  0.2302  0.1262  0.0200
 3915W        W19809   6.817   7.355  14.952  0.0854 -0.0505  0.0569
 3916W        W19810  11.496   3.169  12.235 -0.1572 -0.2570  0.1767
 3917W        W19811   0.062   6.813   0.628  0.0677  0.2208  0.0162
 3918W        W19812   6.038   6.779   0.753 -0.2247  0.0217 -0.1242
 3919W        W19813   0.356  11.663   0.934  0.1099 -0.2818 -0.0784
 3920W        W19814  11.978   8.462  14.285  0.0123 -0.2333 -0.1762
 3921W        W19815  11.677  16.821   0.728 -0.6252 -0.2964  0.2013
 3922W        W19816   6.817   9.983  15.202 -0.1343 -0.2741  0.1027
 3923W        W19817  17.447   8.763  16.343 -0.2919 -0.2194 -0.1423
 3924W        W19818   7.342   6.546   4.550 -0.1096  0.0584 -0.0322
 3925W        W19819   0.679   6.753   2.354 -0.0556  0.2488 -0.0015
 3926W        W19820  13.120   6.921   1.362 -0.2464 -0.1359 -0.0311
 3927W        W19821  12.924   7.094  16.971 -0.1715 -0.1535  0.1087
 3928W        W19822   5.874  12.843   4.678 -0.1735  0.2323 -0.1306
 3929W        W19823   7.769  11.913  16.915  0.2357  0.0322 -0.0788
 3930W        W19824  16.098   9.853  14.127 -0.0187  0.0992  0.1136
 3931W        W19825   3.274  15.937  12.630  0.0929  0.1830  0.0099
 3932W        W19826   1.125   3.269   2.579 -0.3090  0.3805 -0.1506
 3933W        W19827  15.433  10.137   4.204  0.1620 -0.2006  0.0658
 3934W        W19828   0.740   5.569  15.406  0.0149  0.0193 -0.2158
 3935W        W19829  15.013  12.030  12.837 -0.1773  0.0222 -0.1569
 3936W        W19830   9.653  10.592  12.279 -0.1691 -0.1659  0.1828
 3937W        W19831  14.334   5.756   2.758 -0.1222  0.0740 -0.1141
 3938W        W19832  13.334  10.997  15.368 -0.0210 -0.0781  0.0342
 3939W        W19833   2.540   9.238   5.057  0.1688 -0.0265  0.0888
 3940W        W19834   2.073  13.205   5.100 -0.2027  0.1828  0.0506
 3941W        W19835   8.301   2.721   1.562  0.0798  0.2076 -0.2337
 3942W        W19836   6.618   5.267   2.388  0.0607  0.5334 -0.2043
 3943W        W19837   4.411  10.195   0.013  0.0940 -0.0257  0.1300
 3944W        W19838  11.309  12.285  13.127  0.2629  0.1314  0.1471
 3945W        W19839   7.685  14.644  13.028  0.0094  0.4423 -0.1555
 3946W        W19840  13.449   8.473   5.854 -0.1828 -0.0668  0.3921
 3947W        W19841  17.637  12.095  12.703 -0.0633 -0.2990 -0.0767
 3948W        W19842   6.076   0.167  14.153  0.0062 -0.1030 -0.0937
 3949W        W19843   1.388   8.565   6.317 -0.1783 -0.1243 -0.0839
 3950W        W19844   3.345   9.535  16.848  0.0990 -0.1760 -0.0706
 3951W        W19845   1.727   0.893   6.368 -0.4305  0.3592  0.0302
 3952W        W19846  15.839  12.109  15.798  0.3747  0.3847 -0.1724
 3953W        W19847  12.001   4.790   1.992 -0.0720 -0.1516  0.2024
 3954W        W19848  15.402  16.098  13.179 -0.0937 -0.0499 -0.1976
 3955W        W19849   3.045  11.702   1.109 -0.2949 -0.1735  0.3512
 3956W        W19850   4.686   7.226   0.453  0.0756  0.0084  0.0236
 3957W        W19851  14.053   6.687  15.564 -0.2140 -0.0729 -0.0158
 3958W        W19852  15.204  11.972  11.883  0.2543  0.4360 -0.1571
 3959W        W19853  16.482   0.681  16.605 -0.1061 -0.3264  0.3841
 3960W        W19854  15.563  13.400  16.299 -0.0160  0.3233  0.1183
 3961W        W19855   0.363   5.500  14.966  0.0935 -0.2443 -0.3939
 3962W        W19856   8.345   5.680   3.231  0.0686 -0.1466 -0.0634
 3963W        W19857  10.862   7.732   1.273  0.1934  0.0063 -0.0736
 3964W        W19858   3.186   0.716   3.167  0.1103 -0.0507 -0.0024
 3965W        W19859   1.006  12.220   2.264  0.1897  0.3558 -0.1393
 3966W        W19860   0.840   7.671  13.985  0.0903 -0.1404 -0.1970
 3967W        W19861  17.380  17.303  15.440 -0.0288  0.1070 -0.1710
 3968W        W19862   3.735   2.143   1.727  0.3996  0.0229  0.0215
 3969W        W19863   8.058  13.700  13.536 -0.0445  0.1365  0.1301
 3970W        W19864  12.180  13.093  14.326  0.1355  0.1046  0.4035
 3971W        W19865   4.287  13.738   5.995  0.3610 -0.3448  0.1073
 3972W        W19866  10.741  10.514   3.168 -0.0748  0.1013  0.2561
 3973W        W19867   6.228   6.433  13.832 -0.1418  0.0573 -0.0047
 3974W        W19868  13.167  12.782  13.190  0.1295 -0.2238 -0.3747
 3975W        W19869   6.718  16.846   3.663 -0.2417 -0.0972 -0.2473
 3976W        W19870   5.112  14.283  13.578 -0.3226  0.0412  0.0101
 3977W        W19871   1.252  17.413   0.432 -0.0312 -0.0919 -0.0209
 3978W        W19872   8.254  15.877  13.085 -0.0463  0.0347 -0.0543
 3979W        W19873   6.345   2.717  15.805  0.3299  0.1984 -0.1967
 3980W        W19874  16.015  14.994   0.256 -0.1273 -0.1406  0.0482
 3981W        W19875  13.903  13.577   0.343 -0.2982  0.0718  0.2182
 3982W        W19876  15.606  11.706   1.719  0.1377 -0.0527  0.0781
 3983W        W19877   5.396  13.958   6.437  0.0140  0.0208 -0.0411
 3984W        W19878  12.557   6.768  14.587 -0.2730  0.1261 -0.2875
 3985W        W19879   7.527   0.741   1.404 -0.0718 -0.1920  0.1011
 3986W        W19880   4.012   8.932   0.673 -0.1163  0.0990  0.3124
 3987W        W19881  15.685   9.610  12.518  0.2118 -0.1278 -0.1344
 3988W        W19882  15.685   7.631   2.165  0.0415  0.0765  0.1318
 3989W        W19883   6.676   2.804   4.888  0.0570 -0.1008 -0.1824
 3990W        W19884   1.914  10.298   1.372  0.0295  0.2925 -0.3510
 3991W        W19885  11.942   6.049  13.092 -0.2550  0.1396 -0.0494
 3992W        W19886  14.030   5.280  12.829  0.1310  0.3235 -0.0419
 3993W        W19887  12.432  10.326   6.056  0.0677  0.0847  0.3177
 3994W        W19888   1.324  11.719  13.140 -0.3512 -0.2956 -0.1017
 3995W        W19889   4.919   7.103   4.139 -0.0367 -0.3031 -0.1652
 3996W        W19890  17.227   3.874   6.304 -0.0031 -0.2839 -0.4386
 3997W        W19891  10.859  16.023   2.406  0.1189  0.1668 -0.4834
 3998W        W19892  11.399  17.118   0.446 -0.0270  0.3569 -0.0599
 3999W        W19893   3.889   1.756   1.476  0.0571  0.1374  0.2606
 4000W        W19894  10.446   6.476  10.321  0.1144 -0.1673  0.2698
 4001W        W19895   2.512   3.487  13.639  0.1807  0.1429 -0.1430
 4002W        W19896  10.093   6.271   2.400  0.1816 -0.0577  0.0315
 4003W        W19897  15.144   4.847  17.215 -0.0082  0.0466  0.0981
 4004W        W19898   7.094   9.453   5.923 -0.1640  0.3406  0.0615
 4005W        W19899   6.450   4.902   5.874 -0.0664 -0.1267  0.0660
 4006W        W19900  15.642   7.084   3.427  0.0359  0.0079  0.0732
 4007W        W19901   4.451   2.644   5.566  0.0775  0.2903 -0.1676
 4008W        W19902   8.003   4.684  15.371 -0.1630 -0.1469  0.2447
 4009W        W19903   1.832  10.667   5.271 -0.0884  0.0365 -0.1532
 4010W        W19904   0.435   7.043   6.165  0.2361  0.0642 -0.1999
 4011W        W19905   5.160  11.835  16.380  0.3014 -0.0052  0.1573
 4012W        W19906   5.575   6.740  12.209  0.0591 -0.0898  0.2269
 4013W        W19907  10.877   8.619   1.595 -0.0444 -0.1606 -0.0585
 4014W        W19908   9.941   5.214   0.033  0.0377  0.2588  0.0285
 4015W        W19909   1.730  14.037  17.140 -0.3263  0.0445  0.0417
 4016W        W19910   5.399   4.725  12.511 -0.0629 -0.0231  0.2606
 4017W        W19911  16.620   8.454   2.006  0.0737 -0.0226  0.1100
 4018W        W19912  12.904   1.286  15.349 -0.3549 -0.1033  0.0863
 4019W        W19913   3.916   8.779   4.574 -0.1605 -0.3159 -0.0293
 4020W        W19914   5.978   3.078   4.210 -0.2447  0.0461 -0.3753
 4021W        W19915  13.461  12.596  14.015 -0.0793  0.1573 -0.2504
 4022W        W19916   9.905  17.312   3.411 -0.0120 -0.0618  0.0164
 4023W        W19917  15.216   2.268   0.081 -0.0065 -0.0465 -0.0209
 4024W        W19918   7.122  16.363   3.373 -0.1175 -0.1093 -0.0671
 4025W        W19919   0.499  13.704   5.012  0.1813 -0.3897  0.1715
 4026W        W19920   7.388   4.471  13.065 -0.2600 -0.1778 -0.2876
 4027W        W19921   2.831   8.334   1.680  0.3272 -0.0652  0.0907
 4028W        W19922   0.692  10.128   0.924  0.1484  0.0454  0.0998
 4029W        W19923   0.696   7.185   5.793  0.0686 -0.3810 -0.2156
 4030W        W19924   2.368  14.267  12.494 -0.0609  0.0828 -0.1728
 4031W        W19925   9.296   0.470  12.022  0.2138 -0.0028 -0.0714
 4032W        W19926  14.659  17.483  15.260 -0.1959  0.2248 -0.1136
 4033W        W19927  10.560  11.769   2.323 -0.1783 -0.3273  0.1046
 4034W        W19928   9.897  10.844  12.642  0.1228 -0.0779 -0.1055
 4035W        W19929   1.729   1.410  16.097  0.0521  0.1155 -0.2905
 4036W        W19930   7.707  10.467   4.217  0.0724 -0.0106  0.0143
 4037W        W19931  11.603  15.080   3.291  0.2034 -0.4581 -0.1267
 4038W        W19932   0.983   8.417  12.407 -0.0562  0.1428 -0.1918
 4039W        W19933  12.394   3.102  15.501 -0.2910  0.1000  0.0738
 4040W        W19934   5.605   5.788  14.781 -0.0107 -0.1107  0.0223
 4041W        W19935   1.266   1.603  14.959  0.2186 -0.1600 -0.3888
 4042W        W19936   4.223  14.109   1.904  0.0413 -0.2237  0.0856
 4043W        W19937  14.623   6.383  16.436 -0.1622 -0.0933 -0.1610
 4044W        W19938   7.344  16.791  12.216  0.0068  0.4022 -0.2743
 4045W        W19939  13.325   7.037   0.531  0.3146 -0.1180  0.0801
 4046W        W19940   7.849  17.197  15.799 -0.1903 -0.1737 -0.1676
 4047W        W19941  14.487  14.686  17.197  0.1089 -0.1001  0.1508
 4048W        W19942   9.776  10.668  11.402 -0.3755 -0.1055 -0.3298
 4049W        W19943   6.093  11.353  15.421 -0.0333 -0.2004 -0.1949
 4050W        W19944   2.463   7.050   3.659  0.1686 -0.1356 -0.1824
 4051W        W19945   9.152   3.523  13.973  0.0133 -0.2134 -0.1697
 4052W        W19946   4.335   5.862   3.361  0.0327 -0.1145  0.0761
 4053W        W19947   0.100   1.869   0.195  0.0092  0.2400 -0.0139
 4054W        W19948   7.689  12.846   4.726 -0.2660 -0.0383  0.2327
 4055W        W19949   0.552   7.534  15.618 -0.1242 -0.0807  0.2567
 4056W        W19950  13.223   9.472  15.844 -0.0046  0.1639  0.2452
 4057W        W19951   7.359   4.054   3.421  0.0702  0.1301 -0.1889
 4058W        W19952   4.724   4.832  16.543  0.0059 -0.1328 -0.0163
 4059W        W19953   9.436  12.826  11.865 -0.1385 -0.1003  0.0268
 4060W        W19954   7.216  15.286   3.822 -0.0180  0.2283 -0.0004
 4061W        W19955  15.114   1.722   0.345  0.1359  0.3225 -0.0630
 4062W        W19956   1.567   6.787  16.973  0.1561 -0.0849  0.1952
 4063W        W19957  10.096   7.658  13.527 -0.0356 -0.2878 -0.2347
 4064W        W19958  10.713  10.217  13.374 -0.0629  0.0224  0.0425
 4065W        W19959  14.844  17.211  15.645  0.1921 -0.2673  0.2531
 4066W        W19960  15.790   4.405  16.189 -0.1870  0.1522 -0.1377
 4067W        W19961   5.708  17.471   2.500  0.0587  0.0317 -0.1782
 4068W        W19962   4.353   4.159  15.279  0.2872 -0.2084 -0.4343
 4069W        W19963   4.979   5.433  12.330 -0.0573  0.0202  0.0495
 4070W        W19964  10.608   9.391   1.702 -0.1822  0.0193  0.1977
 4071W        W19965  13.277  16.906   5.415  0.3192  0.0618  0.0172
 4072W        W19966   1.385  15.649   0.006  0.2337  0.3847  0.0193
 4073W        W19967   2.472   6.645   1.012 -0.1940 -0.2947 -0.0216
 4074W        W19968  16.950  15.892  16.633  0.1206 -0.2107 -0.0152
 4075W        W19969   7.224  10.318  14.981 -0.1030  0.0510 -0.0728
 4076W        W19970   0.349  14.912   3.716 -0.0043 -0.0766  0.0659
 4077W        W19971  17.451   6.239   1.040 -0.1282  0.0794  0.0827
 4078W        W19972  16.126   7.188   5.233  0.3345 -0.1798  0.0180
 4079W        W19973   7.502   4.813  17.167  0.1929 -0.2779  0.1819
 4080W        W19974  11.730  15.080  15.268  0.0320 -0.1321 -0.2251
 4081W        W19975   6.186   9.245   2.324  0.2587 -0.0860  0.0134
 4082W        W19976  15.060   2.219  16.049 -0.0632  0.1392 -0.2950
 4083W        W19977  11.463  10.953   2.879  0.0373 -0.2364  0.0552
 4084W        W19978   2.605  17.160   4.184 -0.3470  0.3547  0.0420
 4085W        W19979  13.125  16.386  16.581  0.1224 -0.1430  0.2713
 4086W        W19980   2.638   8.418   0.679 -0.0219 -0.1598  0.0420
 4087W        W19981   1.034   3.439   2.100 -0.3612  0.0560 -0.2635
 4088W        W19982   8.019   6.895  16.647  0.1275 -0.1031 -0.2128
 4089W        W19983   4.649   9.547   2.355 -0.1294  0.0238 -0.1952
 4090W        W19984  14.947  16.959  11.973 -0.1378  0.1081  0.2341
 4091W        W19985   4.011  14.100   6.230 -0.1761 -0.0989  0.1135
 4092W        W19986  11.970  16.074  16.888  0.1257  0.0110  0.2765
 4093W        W19987   0.249   3.632  13.430 -0.1874 -0.1245 -0.0881
 4094W        W19988  16.399  14.802   1.884  0.2007 -0.1759 -0.3519
 4095W        W19989   6.377  15.553   3.283 -0.1321 -0.3662 -0.0189
 4096W        W19990  12.357   4.423   0.844 -0.2057  0.1391 -0.1740
 4097W        W19991   3.685   9.697  13.428 -0.1500  0.2968  0.1291
 4098W        W19992   9.998   1.959   0.102 -0.1704 -0.1065 -0.2133
 4099W        W19993   6.873   9.822   4.699  0.0274 -0.0739 -0.1316
 4100W        W19994   3.167  15.453  12.741 -0.0986 -0.2787  0.2161
 4101W        W19995   5.388   1.982  14.174 -0.1206 -0.0812 -0.0150
 4102W        W19996  11.765   8.066   0.689  0.3223  0.0214  0.2549
 4103W        W19997   5.841  17.553  16.935  0.2181 -0.1818 -0.0835
 4104W        W19998  11.278  10.430   4.870  0.2195 -0.3919  0.1078
 4105W        W19999  16.223  15.085  12.668 -0.0299  0.2258  0.0708
 4106W        W20000   5.505   7.884   4.157 -0.0641  0.1376 -0.0511
 4107W        W20001  15.223   5.749   3.353  0.3129 -0.0105  0.1360
 4108W        W20002   0.798   0.304  13.261  0.0912 -0.1295  0.5472
 4109W        W20003   2.217  11.182   4.836  0.2334  0.1260 -0.0817
 4110W        W20004   2.020  11.812  17.116 -0.3321 -0.4551  0.0183
 4111W        W20005  12.749   1.647   3.731  0.0654 -0.1592 -0.0409
 4112W        W20006  17.145   2.239   3.484 -0.0405  0.2664 -0.4339
 4113W        W20007  13.468   2.053  16.060 -0.1633 -0.1959 -0.2891
 4114W        W20008  16.397   8.060  14.440  0.2398  0.3597  0.2780
 4115W        W20009   8.432   7.631  17.102 -0.1395 -0.0207 -0.0632
 4116W        W20010   9.957   4.186  13.323  0.0038  0.0213 -0.0377
 4117W        W20011  13.509  14.302   4.734  0.0062 -0.3762  0.2678
 4118W        W20012  11.045   8.453  15.465  0.1408  0.2476 -0.2380
 4119W        W20013  13.463  12.617  12.282 -0.0044  0.1618 -0.2814
 4120W        W20014   5.288  13.987  12.779 -0.2415  0.2910  0.4797
 4121W        W20015   3.539   9.427   5.215 -0.0645 -0.2058  0.2998
 4122W        W20016   0.222   7.833   3.757  0.1118  0.0397 -0.0055
 4123W        W20017   8.375   4.051   5.382  0.1775 -0.0838  0.2519
 4124W        W20018  15.853  15.883  12.870  0.1722  0.2339 -0.0346
 4125W        W20019  10.353  17.158  12.086  0.0911 -0.2288 -0.0084
 4126W        W20020  11.588  11.274  13.278  0.0525 -0.0233  0.1440
 4127W        W20021  11.823   3.083  13.643 -0.0452 -0.0716  0.3731
 4128W        W20022   9.843   1.658  11.582  0.2580  0.1307  0.1942
 4129W        W20023  14.027  13.111   2.739 -0.1805 -0.0083 -0.0827
 4130W        W20024  13.378   7.702  11.591  0.1225 -0.3063 -0.0512
 4131W        W20025   5.148  12.774  13.080  0.2288  0.2500 -0.0023
 4132W        W20026  12.932   8.118  13.331 -0.0135 -0.2920  0.1702
 4133W        W20027  10.320   0.124   4.312 -0.4019 -0.1314  0.0048
 4134W        W20028   2.217   4.477   4.943 -0.2205 -0.2133  0.0891
 4135W        W20029  14.796  11.754  15.083  0.1210  0.1780  0.1640
 4136W        W20030   1.899   1.849  13.360  0.0258 -0.1262  0.0450
 4137W        W20031   8.870  15.075   4.018  0.0619 -0.2092  0.2063
 4138W        W20032   9.486  15.875  13.485 -0.1559 -0.2487 -0.3116
 4139W        W20033   0.996   6.273  12.774  0.0397  0.1807 -0.0228
 4140W        W20034  13.596   4.244  16.584 -0.0742  0.1472  0.1844
 4141W        W20035   1.931  13.903   0.824 -0.0021  0.0307  0.3311
 4142W        W20036  11.534   1.839  17.200 -0.1515  0.2018 -0.0538
 4143W        W20037   8.951  12.176  14.680 -0.1400  0.0002  0.2770
 4144W        W20038   3.892  14.485  16.295 -0.0975  0.0949 -0.0755
 4145W        W20039   6.715   6.555   5.998 -0.3606 -0.1194 -0.0215
 4146W        W20040   8.263   9.622   4.242  0.0764 -0.1579 -0.3952
 4147W        W20041   2.138   2.533   0.289 -0.0630  0.0727  0.0016
 4148W        W20042  13.366   5.021   5.780 -0.0174 -0.0894  0.1549
 4149W        W20043   7.111  10.479  12.711  0.1825 -0.0068  0.0601
 4150W        W20044   2.886  17.231  14.613 -0.0694 -0.2539 -0.1280
 4151W        W20045   9.234   8.190  15.534  0.0730  0.0461 -0.1033
 4152W        W20046   0.152   9.117   0.039  0.0569  0.1777 -0.0657
 4153W        W20047   0.053  17.634  16.026  0.0586 -0.2360 -0.2663
 4154W        W20048   9.657  12.978   4.447  0.2542 -0.1421 -0.3858
 4155W        W20049   6.758  17.219  13.283 -0.0049  0.0312 -0.0224
 4156W        W20050  12.728  14.693  14.239  0.0092  0.1168  0.0123
 4157W        W20051   3.049  10.832  14.019  0.3077  0.1525 -0.1034
 4158W        W20052   1.643   0.014   0.265  0.2927  0.0669  0.0860
 4159W        W20053  11.842  10.139  16.339  0.0916 -0.0465  0.2537
 4160W        W20054  12.779  16.087   1.282 -0.0082  0.0369  0.3451
 4161W        W20055   9.939   1.483   4.378  0.1602 -0.0577  0.2069
 4162W        W20056  13.810   2.528  11.883  0.2302 -0.3159 -0.0220
 4163W        W20057   6.118  13.194   1.106  0.3203  0.2134 -0.1928
 4164W        W20058   7.720  17.467  12.877 -0.0286 -0.1319 -0.0387
 4165W        W20059   8.989  15.550   0.568 -0.2288 -0.1208 -0.1737
 4166W        W20060  11.457   3.627  13.555 -0.0372 -0.0455 -0.7108
 4167W        W20061  12.889  17.142   5.111 -0.2944  0.0588  0.2674
 4168W        W20062   2.271   6.450   0.145 -0.0047 -0.3474 -0.3021
 4169W        W20063  11.204  12.057  15.707  0.1456  0.1693 -0.0024
 4170W        W20064  16.315  10.979   2.312  0.2396  0.1630  0.1495
 4171W        W20065  12.937  11.681   3.195 -0.2599 -0.0377 -0.1997
 4172W        W20066  12.573  15.336  16.748  0.0610  0.1789  0.0530
 4173W        W20067  10.442  13.447   4.236 -0.0241  0.1945  0.0415
 4174W        W20068  13.501  14.795   2.988 -0.0186 -0.0906 -0.1297
 4175W        W20069   6.082  12.309   3.590 -0.0677 -0.1463 -0.0708
 4176W        W20070   1.510   0.924   2.306 -0.0059  0.0348  0.0621
 4177W        W20071   1.663  14.341   2.877 -0.0251  0.1453  0.0427
 4178W        W20072  10.162   0.561   1.401 -0.1140  0.1262  0.5770
 4179W        W20073   0.195   2.684   4.370 -0.3008 -0.0485 -0.1307
 4180W        W20074  10.564  11.264   1.319 -0.2278 -0.1430 -0.0587
 4181W        W20075  17.388   6.993  17.078 -0.0629 -0.1391 -0.0688
 4182W        W20076   1.891   1.441  13.059  0.2930 -0.1975 -0.2094
 4183W        W20077  14.314   0.521   1.230  0.0363  0.0292 -0.4412
 4184W        W20078   9.847   3.818  11.975 -0.4017  0.0713 -0.4676
 4185W        W20079  12.610  11.712  16.313  0.1133 -0.1358  0.1026
 4186W        W20080   3.813  14.743  14.882 -0.1364  0.0595  0.3096
 4187W        W20081  12.979   7.874  13.783  0.2224  0.0368  0.2061
 4188W        W20082  15.594  11.225   5.886 -0.1085  0.0003  0.0615
 4189W        W20083   6.360  12.807   4.447  0.0612  0.1997 -0.0519
 4190W        W20084   7.492   8.980  15.989  0.0750 -0.1706 -0.0935
 4191W        W20085   5.598  14.632  14.290  0.0068 -0.2198 -0.0441
 4192W        W20086   8.690   2.184   4.188 -0.0726 -0.0005  0.0273
 4193W        W20087  13.611   0.547   0.287 -0.0512  0.0390 -0.2038
 4194W        W20088   4.013   3.843  14.140 -0.2740  0.3132 -0.2508
 4195W        W20089  11.746  13.527  15.222 -0.1503 -0.0769  0.0840
 4196W        W20090  11.760  12.437  11.473  0.0247 -0.0345  0.0904
 4197W        W20091   0.762   2.523  15.387 -0.0723 -0.0893 -0.0350
 4198W        W20092   4.433   1.000  11.800 -0.0720 -0.1541 -0.2865
 4199W        W20093  11.181   1.157  12.296 -0.0524 -0.1463  0.0105
 4200W        W20094   9.386   7.928  11.962  0.1359  0.2062 -0.1680
 4201W        W20095   8.684   5.187  14.158  0.2068  0.0300 -0.0805
 4202W        W20096   5.118   0.008   5.597  0.2693 -0.0061 -0.2214
 4203W        W20097   3.703  12.283  16.682  0.0122 -0.4486 -0.1534
 4204W        W20098  16.166  11.642   0.897 -0.0545  0.2603  0.1340
 4205W        W20099   8.266   0.467   2.728  0.0997 -0.1197  0.0116
 4206W        W20100  14.810  10.617   0.984  0.1102 -0.4083  0.2608
 4207W        W20101  13.760  13.357   5.215 -0.2863  0.0803  0.1284
 4208W        W20102   0.030  12.641   4.861 -0.2558 -0.0680  0.0065
 4209W        W20103   4.472  16.682   2.444 -0.1110  0.1927 -0.0632
 4210W        W20104  13.370   0.717  16.012  0.0287  0.2051  0.1382
 4211W        W20105   4.773   3.904  15.607  0.1657  0.2209 -0.3224
 4212W        W20106   4.752   4.715  12.426 -0.2522 -0.1260  0.3811
 4213W        W20107  13.130  13.423  15.051  0.1894 -0.1491  0.0304
 4214W        W20108   3.387  15.725   2.762  0.0407  0.1342  0.0553
 4215W        W20109   2.083  11.128   1.270  0.1987 -0.2484  0.1245
 4216W        W20110  16.158   1.070   5.247  0.2476  0.2339  0.0888
 4217W        W20111   8.443  10.558   1.510 -0.1423  0.0976 -0.0368
 4218W        W20112  11.984  17.282  12.966 -0.1044  0.0812 -0.2658
 4219W        W20113  17.564  16.062  14.146 -0.1796 -0.3315  0.3001
 4220W        W20114   2.647   9.010  16.692 -0.1682  0.1279  0.0135
 4221W        W20115  11.592  12.294   1.302  0.3215  0.2984 -0.1552
 4222W        W20116   5.546   5.959  15.663  0.4008  0.0904 -0.0205
 4223W        W20117   0.709  11.867  14.035  0.1905  0.0383 -0.1813
 4224W        W20118   9.379  13.253   3.178 -0.1784  0.3304 -0.1930
 4225W        W20119  14.349   5.247   5.791  0.1547  0.0529 -0.0310
 4226W        W20120   7.522  13.478   3.935  0.0149 -0.2381 -0.2318
 4227W        W20121  14.792   6.864  16.275 -0.0254  0.0501 -0.0607
 4228W        W20122   4.410  10.093   4.979  0.1664 -0.1449 -0.0814
 4229W        W20123   9.923  13.779   2.011 -0.1578  0.0156  0.1944
 4230W        W20124   3.777   2.781   0.532  0.0361 -0.1298 -0.4626
 4231W        W20125   1.729   0.442   0.471  0.1801  0.0567  0.0382
 4232W        W20126   1.140  12.948  11.474 -0.0600 -0.4004  0.1648
 4233W        W20127  15.329   9.233  15.506  0.1200  0.2016  0.1400
 4234W        W20128   9.235   0.602  16.466  0.0695  0.0657  0.0335
 4235W        W20129  16.178  10.727  16.639  0.1248  0.0039  0.1714
 4236W        W20130   9.463  10.695  16.653 -0.0786  0.2942 -0.0766
 4237W        W20131  10.471  15.879   0.110  0.1341  0.1432  0.2310
 4238W        W20132   6.464   5.930   1.219  0.1454 -0.2658  0.0519
 4239W        W20133   8.535  17.294  14.776 -0.0557  0.1173  0.1756
 4240W        W20134  13.176   3.931   0.665  0.1801  0.0908 -0.2437
 4241W        W20135   3.301   4.879   2.539 -0.0153 -0.0134  0.2320
 4242W        W20136   6.006  15.020   4.641 -0.0901 -0.0100 -0.1969
 4243W        W20137  17.484   6.327   0.474 -0.1608  0.0188  0.3393
 4244W        W20138  16.207  14.912   4.191  0.0933 -0.1732  0.0593
 4245W        W20139   3.001  14.411  16.624  0.0268  0.2979 -0.1638
 4246W        W20140   0.247   3.744  16.204  0.0405 -0.2912 -0.0796
 4247W        W20141  11.167  13.501  11.515  0.1686 -0.0808  0.0364
 4248W        W20142   3.831  15.503  16.249 -0.1382  0.0849 -0.1227
 4249W        W20143   7.422  15.153   1.445 -0.0476  0.1485  0.0140
 4250W        W20144  10.550  14.169   4.331 -0.0494  0.0791 -0.0010
 4251W        W20145   3.569  14.654   2.976 -0.3324  0.0044  0.2116
 4252W        W20146   4.635   5.743   2.960  0.0204  0.0105 -0.0391
 4253W        W20147  12.711   7.688  12.336  0.0398  0.1934  0.3441
 4254W        W20148  10.365   3.557   1.099  0.0471 -0.0606  0.0224
 4255W        W20149   6.757   6.200  13.936  0.2909 -0.2324 -0.0264
 4256W        W20150  13.604  11.713  10.944 -0.0925 -0.1550  0.0772
 4257W        W20151  15.059  10.079   1.774 -0.0833 -0.0052 -0.2181
 4258W        W20152  10.573  16.121  16.601  0.1055 -0.1428  0.2274
 4259W        W20153  16.348   6.427  12.169  0.0094  0.0638 -0.1612
 4260W        W20154  11.634  12.230   3.652 -0.0927  0.0033  0.0332
 4261W        W20155  14.112  11.554   5.018  0.1890  0.2953  0.1774
 4262W        W20156  16.388   8.861  14.904 -0.3072 -0.0131 -0.1937
 4263W        W20157   8.672   2.136  11.862  0.0629 -0.1789 -0.0063
 4264W        W20158  16.839   4.500   4.630  0.4386 -0.2799  0.0483
 4265W        W20159   3.370  16.972   5.405  0.0623 -0.2280 -0.3201
 4266W        W20160  17.401   8.406   3.014 -0.0076  0.1534  0.0011
 4267W        W20161   9.142  13.197  12.190  0.1142  0.0123  0.0807
 4268W        W20162   8.518   3.110   0.875 -0.0969  0.2313 -0.1468
 4269W        W20163   3.237   1.682  15.735 -0.1415  0.0428  0.0299
 4270W        W20164  16.298  15.562  16.842  0.2601 -0.2441 -0.2267
 4271W        W20165   7.321  15.116   2.207  0.1859  0.2867 -0.0659
 4272W        W20166  10.938   3.605   5.396  0.3225  0.0761  0.0873
 4273W        W20167   6.306   5.932  15.329 -0.2744  0.3234 -0.0521
 4274W        W20168   5.592  11.013   2.713 -0.0005 -0.2955 -0.2443
 4275W        W20169   2.263   6.910  17.249 -0.2895  0.0382  0.3226
 4276W        W20170  11.026   3.246  11.610  0.1042 -0.0003  0.1197
 4277W        W20171  13.982  13.938  15.395  0.2140  0.5509  0.1222
 4278W        W20172  13.399   2.991   2.625 -0.1912 -0.0421  0.2623
 4279W        W20173   6.824   4.028   2.059  0.1343 -0.1635 -0.0346
 4280W        W20174  12.908   3.012   1.993  0.0359  0.1832  0.0265
 4281W        W20175  12.302   4.303   4.991 -0.0895 -0.0353 -0.2290
 4282W        W20176  12.854  16.775  12.546  0.0489 -0.1984 -0.3054
 4283W        W20177   5.192   3.316   1.778  0.1495  0.1294  0.0577
 4284W        W20178  14.733   3.708   3.419 -0.0573  0.3687  0.3887
 4285W        W20179   0.418   5.622   0.575  0.2158 -0.0425  0.1103
 4286W        W20180   4.277  10.954  11.809 -0.2680  0.0007  0.0601
 4287W        W20181  15.753   0.130  15.140 -0.0121 -0.2342 -0.0795
 4288W        W20182   6.560   0.115   3.772  0.2022 -0.1545  0.3949
 4289W        W20183   5.269  15.925  12.608 -0.1206  0.0558 -0.0902
 4290W        W20184   5.781  12.594  12.620 -0.1596  0.0290 -0.0969
 4291W        W20185  15.210   9.097  15.992  0.2482 -0.1795  0.2612
 4292W        W20186   1.586   8.570  17.272 -0.1229  0.3096 -0.1025
 4293W        W20187  11.391  13.699  13.912  0.0109 -0.0039  0.1683
 4294W        W20188  11.588  16.465  11.596 -0.1926 -0.2459  0.1037
 4295W        W20189  17.154  17.167  14.448  0.1870 -0.1484 -0.0038
 4296W        W20190   1.177   0.825  12.339 -0.3020 -0.2147 -0.3396
 4297W        W20191  13.517   5.809  13.530 -0.2077 -0.1162  0.0143
 4298W        W20192   3.838  13.026  17.147  0.1373  0.1100 -0.0678
 4299W        W20193  10.394   3.449   2.164 -0.0280 -0.2975  0.0614
 4300W        W20194   3.515  11.616   4.760  0.1654 -0.1559 -0.1665
 4301W        W20195   8.330   3.087  12.095 -0.0117  0.0212  0.0833
 4302W        W20196   4.944  17.511  17.215 -0.2525 -0.3328 -0.0190
 4303W        W20197   0.844  13.915  13.933  0.0958  0.0135 -0.2747
 4304W        W20198   0.300  10.523   2.482 -0.3240  0.0000 -0.2253
 4305W        W20199  16.446   1.903  14.145 -0.1438 -0.1704  0.1191
 4306W        W20200   4.656   6.310  13.853  0.3028  0.1809  0.4275
 4307W        W20201  10.635  14.234   1.177  0.0283  0.0971 -0.3742
 4308W        W20202   5.720   4.042  14.689  0.0353 -0.1974  0.0282
 4309W        W20203  10.967   1.078  13.556  0.1154  0.2138  0.0810
 4310W        W20204  12.097  16.420  13.714 -0.3093 -0.1411 -0.1504
 4311W        W20205   6.281   9.432   1.699 -0.1193  0.1415 -0.1993
 4312W        W20206   0.275   9.685  12.178 -0.2821 -0.1701  0.1257
 4313W        W20207   8.230   3.987  13.021 -0.4130  0.2628 -0.1887
 4314W        W20208  16.958   7.933   4.769 -0.3370 -0.2575  0.1675
 4315W        W20209  14.252   0.665   2.068  0.3111  0.0963 -0.0307
 4316W        W20210  15.278  12.073  15.750 -0.1427 -0.3618  0.1382
 4317W        W20211   7.162   0.518  14.275 -0.0723  0.1392  0.3776
 4318W        W20212   3.101   2.613  12.789  0.0522 -0.1389 -0.0411
 4319W        W20213  16.047  16.976  15.203  0.0675 -0.0006 -0.2247
 4320W        W20214  12.215   2.679   6.358  0.3053 -0.2471  0.0109
 4321W        W20215  11.533  17.244  13.283  0.1305  0.1073  0.2118
 4322W        W20216  13.717  15.768  14.749 -0.1582 -0.3960  0.0361
 4323W        W20217  15.966  10.355  17.246 -0.3206 -0.3423  0.1862
 4324W        W20218  17.586  10.481   1.612  0.0941  0.0973  0.0172
 4325W        W20219  14.864  13.524   5.666  0.1334 -0.0369 -0.0927
 4326W        W20220   5.904  10.221  11.741 -0.0675 -0.2585  0.1609
 4327W        W20221   7.616   8.540  12.610 -0.0309 -0.1997  0.1649
 4328W        W20222  15.014   0.641   4.936  0.0266  0.1218  0.4937
 4329W        W20223   2.235   8.826   1.936 -0.0283  0.2149 -0.2647
 4330W        W20224   7.532   3.853   1.047 -0.0006  0.1131  0.4549
 4331W        W20225  10.933  14.136   2.007  0.1523  0.0274  0.1250
 4332W        W20226   9.741   9.942   2.123  0.2794  0.1225 -0.1463
 4333W        W20227  11.236  14.719   2.596  0.4148 -0.4440  0.1939
 4334W        W20228   7.430  16.046   1.124  0.0076 -0.0247 -0.4569
 4335W        W20229   5.826  12.629  15.701  0.1477  0.2147 -0.1317
 4336W        W20230   2.780  17.583  15.997 -0.0759  0.1669 -0.3383
 4337W        W20231  10.644  16.461   5.141  0.3301 -0.0935  0.0707
 4338W        W20232  14.687   0.612  16.310 -0.2149  0.1309 -0.1115
 4339W        W20233  12.911   6.158  12.743  0.1783  0.1631 -0.0259
 4340W        W20234   0.946   4.117  12.132 -0.0225 -0.1264  0.0357
 4341W        W20235  14.682   6.712   6.236 -0.1504  0.1779 -0.1519
 4342W        W20236   5.666  10.611  16.417  0.2461 -0.0398  0.0075
 4343W        W20237  15.937   2.270   4.501 -0.0410  0.1141 -0.0448
 4344W        W20238  15.045   3.471   4.619 -0.1108  0.1922  0.0305
 4345W        W20239   0.817   7.786  17.173  0.3220 -0.0422  0.2196
 4346W        W20240   8.876   8.794   0.411  0.2345 -0.2613 -0.0030
 4347W        W20241  14.675   0.330  13.136  0.2317  0.1162  0.1998
 4348W        W20242  10.850   0.131  12.805  0.1320 -0.0357 -0.2530
 4349W        W20243  15.288   4.261   1.128 -0.0907 -0.1442 -0.2405
 4350W        W20244  14.640   0.736  14.888 -0.0837  0.1409 -0.1074
 4351W        W20245  14.819   9.601   4.331 -0.3049 -0.2519  0.0619
 4352W        W20246   0.894  12.921  16.960  0.0372 -0.2323 -0.2611
 4353W        W20247   7.495   0.954   0.892  0.0214 -0.0374  0.0602
 4354W        W20248   4.097  12.455   0.876  0.1360 -0.1527  0.2741
 4355W        W20249  13.295  17.610   4.291 -0.3044  0.1750  0.0108
 4356W        W20250  14.676   2.907   6.299 -0.0222  0.0022 -0.2577
 4357W        W20251   0.006  13.447   0.642  0.2367  0.2288 -0.3306
 4358W        W20252  12.238   7.484  14.483 -0.0765 -0.5081  0.1767
 4359W        W20253  15.996  10.581  13.122 -0.0379 -0.0246  0.3878
 4360W        W20254   0.003  13.437  16.704 -0.1318  0.2205  0.0059
 4361W        W20255  16.505   5.420   3.398  0.2405  0.1719 -0.0298
 4362W        W20256   8.715  14.299   2.238 -0.0766  0.0517 -0.1166
 4363W        W20257  16.807  14.608  16.426 -0.1474  0.0108  0.1337
 4364W        W20258   3.360   6.234   1.872  0.0532  0.1223  0.1064
 4365W        W20259   4.413  11.072  13.849  0.0590 -0.1214 -0.2899
 4366W        W20260  14.098  15.510   1.134  0.1411  0.1715  0.0789
 4367W        W20261   3.553  14.591   0.792  0.1066 -0.1252 -0.1007
 4368W        W20262  11.064  10.169  12.939  0.0728 -0.0585 -0.0493
 4369W        W20263  14.721  11.777   0.833 -0.0563 -0.0281 -0.1989
 4370W        W20264   0.482   4.075  14.640 -0.0455  0.2011  0.0319
 4371W        W20265   6.018   6.022   6.639  0.0744  0.3633 -0.0439
 4372W        W20266   7.296  14.070  15.974  0.5235 -0.0557  0.0102
 4373W        W20267  10.980  12.581   1.892 -0.1556  0.1531 -0.1119
 4374W        W20268  12.651  12.633   0.906  0.0770 -0.1039 -0.3274
 4375W        W20269  10.498   7.349   5.592 -0.1205 -0.1125  0.2121
 4376W        W20270   3.091   3.918  16.497 -0.2174  0.0862  0.0157
 4377W        W20271  16.372   0.758   4.503  0.3259  0.2019  0.1098
 4378W        W20272   3.213   0.729  13.754  0.0259  0.2230 -0.0465
 4379W        W20273  12.739  16.053  14.438 -0.1462 -0.0546 -0.0221
 4380W        W20274   2.530   2.444  13.020  0.1699  0.0708 -0.3751
 4381W        W20275   2.987   0.500  13.382  0.2754 -0.1104 -0.2034
 4382W        W20276   5.525  16.514   0.181  0.1609  0.4331  0.0441
 4383W        W20277  16.692  14.706   1.330  0.1361 -0.3202  0.0875
 4384W        W20278  17.601  12.303  16.368  0.0742 -0.0773  0.0805
 4385W        W20279   6.845  15.733  13.435  0.0739 -0.2904  0.0687
 4386W        W20280  16.103   6.742   1.880 -0.0704 -0.3809 -0.0909
 4387W        W20281   3.999  10.135   3.276  0.0481  0.2528  0.0313
 4388W        W20282  14.889   9.888   4.952  0.0009 -0.1664 -0.1509
 4389W        W20283   5.855   7.582   0.223  0.1448 -0.1645  0.0193
 4390W        W20284  10.371   0.310   2.240 -0.0148 -0.0592 -0.1782
 4391W        W20285  16.327  10.195   4.766 -0.1018 -0.0840  0.0433
 4392W        W20286   4.442  17.541  13.356  0.1275 -0.0738 -0.2116
 4393W        W20287   2.308   7.741  14.855  0.0521 -0.0319 -0.0945
 4394W        W20288  16.895  12.445  17.129 -0.1310 -0.0385 -0.1611
 4395W        W20289  10.302   1.305  13.492  0.1571  0.1118  0.0856
 4396W        W20290   6.419  17.019  16.239  0.0440 -0.0693 -0.2683
 4397W        W20291   0.357  10.899   4.612 -0.0835 -0.2005  0.1593
 4398W        W20292   9.597   0.745  13.301 -0.0321  0.0691 -0.0589
 4399W        W20293  15.887   5.175   6.049 -0.2829  0.0411 -0.0508
 4400W        W20294  11.266  11.448   5.973  0.0866 -0.0498 -0.0074
 4401W        W20295   1.023  15.827   3.296  0.0631 -0.2598 -0.0019
 4402W        W20296   4.186  14.218   0.589 -0.1438 -0.1308 -0.0835
 4403W        W20297   7.353   5.913   0.995  0.0359 -0.1533 -0.0364
 4404W        W20298  15.038   4.820  14.050 -0.1537 -0.1927  0.0339
 4405W        W20299   0.135   5.089  14.665  0.0483  0.0570 -0.2121
 4406W        W20300   0.035  15.420   0.241  0.0902  0.1781 -0.0191
 4407W        W20301  11.985   8.163  13.892  0.0365  0.0102 -0.3789
 4408W        W20302   6.730  13.198   0.397  0.0201  0.1652  0.2046
 4409W        W20303   9.594   5.247  12.270  0.0400 -0.1680 -0.1292
 4410W        W20304  13.443   3.205  15.846  0.2565 -0.0486  0.2361
 4411W        W20305  11.147   2.826  13.972  0.1651  0.2550 -0.3131
 4412W        W20306  16.831  17.106   4.999 -0.3989  0.0909 -0.1778
 4413W        W20307  14.247  12.526   1.912 -0.2827  0.1794 -0.0891
 4414W        W20308  11.709   8.807   5.981  0.0498 -0.1309 -0.2142
 4415W        W20309  11.822   5.181   0.473 -0.4355 -0.3533 -0.3054
 4416W        W20310  11.855  11.299  11.109 -0.4313 -0.0489  0.1791
 4417W        W20311   5.400   4.634   5.663  0.1204 -0.1733  0.1410
 4418W        W20312   8.558  11.922   5.454  0.2632 -0.0896  0.4618
 4419W        W20313   0.096   8.096   0.432  0.2396 -0.1284 -0.1121
 4420W        W20314   6.495   6.478   3.363  0.1527 -0.0298  0.0453
 4421W        W20315  10.396  13.829  16.474 -0.3670  0.1475  0.4102
 4422W        W20316   0.191  16.298  15.141 -0.1543 -0.2369 -0.1367
 4423W        W20317  10.569   0.416   6.006  0.0417 -0.1349  0.3156
 4424W        W20318  15.484   2.851   1.295  0.1525 -0.3541 -0.2730
 4425W        W20319  16.471  13.769  13.259 -0.1003 -0.4758  0.0464
 4426W        W20320  10.714   4.124   2.349 -0.0918 -0.1983 -0.0416
 4427W        W20321   7.105  17.317  12.064  0.0218  0.0397 -0.1335
 4428W        W20322  17.608   0.579   0.932 -0.0056 -0.1617 -0.2261
 4429W        W20323  16.702   4.126  14.404  0.2849 -0.0474  0.0658
 4430W        W20324  13.272  10.802  12.252  0.4412 -0.0528 -0.2151
 4431W        W20325  14.511   2.183  16.885  0.0539  0.3789  0.2001
 4432W        W20326   0.711   0.505  16.407  0.1321 -0.1600 -0.0402
 4433W        W20327  14.484  17.205  16.073 -0.0272  0.0389 -0.3358
 4434W        W20328   0.485   8.607   2.599  0.1387  0.1456  0.1059
 4435W        W20329  15.019  13.955  11.936 -0.2623  0.1060 -0.0463
 4436W        W20330  11.927   7.306  11.195 -0.0870  0.0880  0.0449
 4437W        W20331   9.214  14.343   5.316  0.0232 -0.1135 -0.0837
 4438W        W20332   2.678  10.631   5.454 -0.0978  0.0544 -0.2408
 4439W        W20333   1.917   1.664   1.595  0.2249 -0.1432  0.0545
 4440W        W20334   4.077   7.050  15.329  0.1525  0.2330 -0.3458
 4441W        W20335  15.319   4.238   1.587 -0.2445  0.3824 -0.5096
 4442W        W20336   4.434   3.026  16.618  0.3045  0.0537 -0.0690
 4443W        W20337  15.149   4.936   2.158  0.2177 -0.0236 -0.2898
 4444W        W20338  15.411  13.970   1.855 -0.1899 -0.5042  0.1495
 4445W        W20339  11.965  15.999   3.471 -0.1122  0.2254  0.0770
 4446W        W20340   2.998  12.375  16.093 -0.2195 -0.1225  0.3108
 4447W        W20341   7.818   1.233   6.053 -0.0034  0.2149  0.0814
 4448W        W20342   7.398   5.233  15.653  0.0180  0.2057  0.1539
 4449W        W20343  11.383  10.778   0.710  0.1975  0.0416  0.2311
 4450W        W20344   3.671  12.990   4.808  0.0375 -0.0867 -0.1239
 4451W        W20345  12.898  13.623   4.480  0.0796 -0.1253 -0.1106
 4452W        W20346   9.178  10.985   1.911 -0.2029  0.0113  0.2049
 4453W        W20347   0.806   0.888   3.466  0.1605  0.4299  0.0101
 4454W        W20348   7.082  12.510   0.154  0.1166 -0.0706  0.1218
 4455W        W20349  16.633   3.022  16.561  0.1048 -0.3315 -0.1546
 4456W        W20350  10.668   9.814  13.977  0.1511  0.1168  0.0294
 4457W        W20351  13.384   8.625  16.275 -0.0999  0.1961 -0.0229
 4458W        W20352   5.801   0.388   5.322  0.0819  0.2705  0.2663
 4459W        W20353  15.451   8.339  13.190 -0.0815  0.2323 -0.1557
 4460W        W20354   2.225  15.403  14.214  0.0179  0.1370 -0.0539
 4461W        W20355  10.022  17.475  15.731 -0.0976 -0.2050  0.0518
 4462W        W20356  11.430  10.096   3.747 -0.1246  0.0279 -0.3291
 4463W        W20357   9.251  10.576   1.654 -0.0232 -0.0138 -0.4093
 4464W        W20358  16.695   8.546   3.541  0.1476 -0.1759  0.4645
 4465W        W20359   8.730   6.528   4.293 -0.1386  0.1013  0.0306
 4466W        W20360  14.772   8.220   0.571 -0.1058  0.0775  0.1725
 4467W        W20361  13.486   4.257   1.034  0.0273 -0.0113  0.0333
 4468W        W20362   3.638  16.055   1.245 -0.1939  0.2082 -0.0108
 4469W        W20363   6.820   1.356  12.210  0.0627 -0.0050  0.1844
 4470W        W20364   4.240  13.991   4.720  0.0920 -0.0717 -0.1324
 4471W        W20365  16.472   2.521   4.783  0.0898 -0.2469  0.2014
 4472W        W20366   9.806  12.813   5.425  0.1129  0.3133  0.2081
 4473W        W20367   0.161   0.110  14.319 -0.0282  0.1051  0.0994
 4474W        W20368   4.378   2.982  12.966 -0.0938  0.5026 -0.2942
 4475W        W20369  13.949  10.861  16.283 -0.0644  0.0144 -0.0253
 4476W        W20370  10.218   4.964  13.636  0.1349 -0.0985 -0.0730
 4477W        W20371   7.673  15.073   0.109 -0.2773 -0.1190  0.4300
 4478W        W20372   7.810  16.185  16.202  0.1608  0.3038 -0.3255
 4479W        W20373  14.361  15.856   5.390 -0.3600 -0.1242 -0.1100
 4480W        W20374   7.145   9.204  11.788  0.0954 -0.0586  0.2017
 4481W        W20375  16.214  17.240  16.802  0.0372  0.0379 -0.4143
 4482W        W20376   6.233  14.213  16.616  0.1861 -0.1188 -0.0564
 4483W        W20377  16.110  17.597  11.792 -0.2714  0.0062  0.1206
 4484W        W20378  11.834   7.726   1.455 -0.0730 -0.1066 -0.0487
 4485W        W20379   2.421   2.929   0.129 -0.3233 -0.1373  0.3169
 4486W        W20380  16.458   7.106  15.278 -0.3354 -0.0555 -0.0583
 4487W        W20381  13.212   2.826  13.624 -0.0181 -0.2939  0.2364
 4488W        W20382  10.438   2.549  11.947  0.0802  0.1706  0.0483
 4489W        W20383  16.454   1.634   4.642 -0.0262 -0.1296  0.0917
 4490W        W20384   2.996   9.278  13.476  0.2002  0.2465  0.2146
 4491W        W20385  16.980   0.487   2.465  0.3284 -0.0688 -0.1168
 4492W        W20386  16.790  12.412  12.141  0.0069 -0.1780 -0.0979
 4493W        W20387   2.383  11.567   0.097 -0.0289 -0.2226  0.2326
 4494W        W20388  12.530   1.151  13.741  0.0550  0.2863  0.1861
 4495W        W20389   5.998   6.937  16.218 -0.0004 -0.0465 -0.3123
 4496W        W20390   5.764   1.535  14.786 -0.3561 -0.2459  0.0588
 4497W        W20391  15.226   0.029   6.531 -0.2100 -0.1292  0.2353
 4498W        W20392   7.447   4.831  14.733 -0.0790  0.1633 -0.0881
 4499W        W20393   2.008  17.383   1.969  0.1668 -0.3987 -0.0296
 4500W        W20394  10.099   3.745   5.676  0.2129  0.0543  0.0025
 4501W        W20395  11.921   9.760   3.476  0.2072 -0.0960  0.1006
 4502W        W20396  15.238  14.427  12.036 -0.1849 -0.2143  0.1251
 4503W        W20397   0.888  11.563  11.932  0.0922 -0.1053 -0.1481
 4504W        W20398   3.940   0.769  11.754 -0.0839  0.0915 -0.0092
 4505W        W20399  17.157   2.580  14.461  0.0696  0.2165 -0.1102
 4506W        W20400  12.477   5.694  17.093 -0.3938 -0.0956  0.0579
 4507W        W20401  16.129  12.333   4.292  0.1828 -0.0872 -0.0190
 4508W        W20402   2.075   2.647   1.779  0.0075  0.2514 -0.1218
 4509W        W20403  13.635   2.170  15.074 -0.0613 -0.2397  0.0073
 4510W        W20404  12.950   0.603   0.784  0.1441  0.0848  0.2189
 4511W        W20405   6.362  12.187   5.644  0.0442 -0.3016  0.0990
 4512W        W20406   9.798  14.946  12.961 -0.2474 -0.3398  0.4028
 4513W        W20407   1.505  12.250   4.401 -0.0125  0.0098  0.2718
 4514W        W20408  14.690   1.807   2.173 -0.0266  0.1587 -0.1490
 4515W        W20409  12.752   3.177   1.159  0.0240 -0.0568 -0.0068
 4516W        W20410  13.812  12.191  17.172  0.0916 -0.0424 -0.0837
 4517W        W20411   1.506   6.738  12.219 -0.1068  0.2067 -0.1215
 4518W        W20412  14.429   9.720  13.717  0.1897 -0.1324 -0.4940
 4519W        W20413   9.366   2.603   0.757  0.0005  0.0635 -0.4027
 4520W        W20414  10.040   3.614   4.234 -0.4261 -0.1164  0.2969
 4521W        W20415  12.020   3.689  11.445  0.1617  0.0485  0.3232
 4522W        W20416   6.745   0.693   2.200  0.0943 -0.0837 -0.0359
 4523W        W20417   7.100  17.377   0.766 -0.1421  0.0247  0.3286
 4524W        W20418   8.679   9.901  15.349 -0.1258 -0.0236  0.0525
 4525W        W20419  10.703   6.659  11.277  0.2814  0.1291  0.0979
 4526W        W20420  15.227   3.933   2.568  0.1359  0.0158 -0.1045
 4527W        W20421   2.839   7.982   0.409 -0.0489  0.0240  0.0885
 4528W        W20422   9.577  15.055   4.150  0.2878 -0.1709 -0.4832
 4529W        W20423   8.450  11.694   4.748 -0.3282  0.0311 -0.0485
 4530W        W20424   2.650   2.413  15.600 -0.1174 -0.1612  0.1585
 4531W        W20425   1.243  15.373  11.022 -0.0511 -0.1078  0.1720
 4532W        W20426  14.717  14.343   3.831  0.0255 -0.0691 -0.0154
 4533W        W20427   5.312  15.166  12.097 -0.0842  0.1054  0.1439
 4534W        W20428  10.634  17.023  12.525  0.2867  0.0625  0.1918
 4535W        W20429   1.801  13.538  11.996 -0.1265  0.0270 -0.1417
 4536W        W20430   1.261  15.281  16.002 -0.1686  0.0091  0.3143
 4537W        W20431  16.560  14.996   0.909  0.1186 -0.2280 -0.2028
 4538W        W20432   4.884  16.236  16.826  0.1747 -0.2737 -0.3093
 4539W        W20433   2.163   5.576   0.316 -0.1451  0.1295 -0.0877
 4540W        W20434   6.886   5.082   5.148 -0.0389  0.1025 -0.1277
 4541W        W20435   8.362  16.257   0.559 -0.4630  0.1736  0.3304
 4542W        W20436   6.940   3.098  12.496 -0.1423 -0.3627 -0.0150
 4543W        W20437  16.435   8.675  16.087 -0.0977 -0.3318  0.0507
 4544W        W20438   0.423  16.291   2.763 -0.2045  0.0520 -0.0770
 4545W        W20439   0.899  15.402   3.020  0.0650  0.2295 -0.0082
 4546W        W20440   8.293   7.463  15.543  0.0644  0.0365  0.2656
 4547W        W20441   6.721  11.782  17.045  0.0986 -0.2116  0.2569
 4548W        W20442  14.441   5.129  14.848  0.1874 -0.3036  0.1798
 4549W        W20443   8.665   7.788   1.375 -0.0583  0.0006 -0.3577
 4550W        W20444   9.782   8.009  15.921  0.0400  0.2397 -0.0833
 4551W        W20445   9.304   8.907  14.923  0.0343 -0.1550 -0.1639
 4552W        W20446  14.636   1.446   4.369 -0.3159  0.2924 -0.1766
 4553W        W20447  15.401   6.242  14.870  0.5149  0.0909  0.2098
 4554W        W20448  15.108  13.503  16.965 -0.3225  0.1059  0.1685
 4555W        W20449  17.189  16.764   5.168 -0.0471 -0.2220 -0.0082
 4556W        W20450   8.083   1.098  11.838  0.0151 -0.0311 -0.0961
 4557W        W20451  15.200   8.078  14.114 -0.2136  0.1047  0.3536
 4558W        W20452   6.521   1.299   5.067 -0.0955  0.1074 -0.1265
 4559W        W20453  16.303   1.318   0.011 -0.1142  0.1563 -0.2057
 4560W        W20454  11.675   7.587   4.844  0.0484 -0.2029 -0.0219
 4561W        W20455   3.053  10.289  15.406  0.1493  0.2175 -0.1192
 4562W        W20456  11.045   2.400   0.665 -0.0272 -0.1442 -0.3250
 4563W        W20457   0.773  10.717   1.008 -0.0017  0.1965 -0.0628
 4564W        W20458   1.979   1.811  13.867  0.2715  0.0934  0.1706
 4565W        W20459   0.034   7.266  12.709 -0.0298  0.0365  0.0366
 4566W        W20460  15.829   6.106   2.675  0.1082  0.0584 -0.0773
 4567W        W20461  12.974  15.453  14.429 -0.2413 -0.0454 -0.1026
 4568W        W20462  16.389  13.735   3.456  0.1287  0.2099 -0.1415
 4569W        W20463   9.623   5.618  13.274 -0.1490  0.0217 -0.4601
 4570W        W20464   4.891   3.905   5.182 -0.1224  0.2570  0.0023
 4571W        W20465   0.519   3.262  12.685  0.3280 -0.2522 -0.2102
 4572W        W20466   3.021  16.276  15.635 -0.1591  0.3174  0.0369
 4573W        W20467   3.444  14.988   2.100  0.0507 -0.2391  0.0179
 4574W        W20468   7.284   4.301   1.049  0.0901  0.2237 -0.1563
 4575W        W20469  14.571  10.845   3.965 -0.0821  0.2071  0.1377
 4576W        W20470   7.291   5.302   4.293 -0.1231 -0.4178  0.2456
 4577W        W20471   8.453  11.237   3.142  0.0740  0.1326 -0.0501
 4578W        W20472  14.767  15.578   4.675  0.1278  0.2049 -0.1817
 4579W        W20473  12.686  12.588  16.367  0.0092  0.1602  0.2476
 4580W        W20474  10.051   2.045   2.948 -0.2032  0.1565  0.2253
 4581W        W20475  16.876   4.530   0.010  0.1039 -0.1354 -0.1922
 4582W        W20476   3.695  17.070  17.269 -0.3458 -0.1713 -0.1207
 4583W        W20477  13.969   5.448  15.843  0.0965  0.0967 -0.2161
 4584W        W20478  14.325  11.021  16.629  0.1255  0.0628 -0.1915
 4585W        W20479  16.460  17.456  12.855 -0.1078 -0.0037 -0.2356
 4586W        W20480   1.254  11.423  14.752  0.0513  0.2276 -0.0310
 4587W        W20481  12.504   3.089  17.178 -0.0757 -0.1882  0.0653
 4588W        W20482  15.735   6.790  11.632  0.0739  0.2439  0.1964
 4589W        W20483  13.391   4.722   0.886 -0.2327  0.0220 -0.1767
 4590W        W20484  13.386   8.270  14.671 -0.3778 -0.2091  0.1213
 4591W        W20485  12.714  17.637   0.117 -0.1340 -0.2116  0.1509
 4592W        W20486  12.950   0.547  11.613  0.0268 -0.0660 -0.0568
 4593W        W20487  11.992  15.958  11.659  0.1001 -0.0404  0.1443
 4594W        W20488   5.817   1.819  13.348 -0.0748  0.2632  0.1676
 4595W        W20489  14.656  14.301  13.289  0.0009  0.2052  0.0422
 4596W        W20490   8.712   5.282   1.456  0.2290 -0.2294  0.1185
 4597W        W20491  17.378   6.526   3.277 -0.1466 -0.0599  0.1269
 4598W        W20492  16.284   2.712   5.274 -0.2749 -0.0411  0.2218
 4599W        W20493   8.122   0.613   6.509  0.1950 -0.1129  0.0600
 4600W        W20494   2.671   8.158  13.399  0.2331  0.1329  0.0080
 4601W        W20495   2.900  13.514   3.569 -0.0322  0.0075  0.0057
 4602W        W20496   6.226  14.050   6.325  0.0146  0.0094 -0.2363
 4603W        W20497   0.687   3.558  16.489 -0.3072 -0.0858  0.0140
 4604W        W20498  13.078  17.226   1.795  0.3870 -0.0418  0.0977
 4605W        W20499   4.256  12.861  11.620  0.3106  0.1674  0.0342
 4606W        W20500   3.953   8.588   2.209 -0.0110  0.2509 -0.0594
 4607W        W20501   4.192  14.918   0.315  0.1464 -0.0416  0.0666
 4608W        W20502   3.696   7.286   3.048  0.1124 -0.0503  0.0236
 4609W        W20503   1.888   8.212  12.945  0.1252  0.0206 -0.0146
 4610W        W20504  15.953   9.009  13.526  0.0763  0.0660  0.1709
 4611W        W20505  15.592   6.832   1.452 -0.0829  0.1195 -0.0416
 4612W        W20506   2.930   5.396   3.196  0.1380 -0.0443 -0.2673
 4613W        W20507   2.289  17.560  15.646 -0.2449  0.0803  0.0379
 4614W        W20508  13.995  15.952   5.086  0.0221 -0.2616 -0.0285
 4615W        W20509   1.201  16.500  13.625  0.0742  0.1458 -0.2405
 4616W        W20510   3.836   8.204  13.827  0.2286 -0.0396 -0.0359
 4617W        W20511  14.182   4.787  12.800  0.0161 -0.2989 -0.0139
 4618W        W20512  10.513   0.952   0.590 -0.0293  0.2774 -0.2979
 4619W        W20513  17.241  14.826  12.166 -0.0661 -0.1749  0.1013
 4620W        W20514   5.015   8.493  16.006  0.0603 -0.2258 -0.1533
 4621W        W20515  15.153   2.669   5.348  0.2243  0.1453  0.0171
 4622W        W20516  15.642  16.602  13.849  0.1842 -0.2508 -0.2153
 4623W        W20517   9.532   4.639   5.641 -0.1164  0.0005 -0.0076
 4624W        W20518  12.776   5.388   2.943 -0.1570  0.0451 -0.0118
 4625W        W20519   2.209  17.034   6.252  0.2141  0.1274  0.0131
 4626W        W20520   6.600   9.185  16.319 -0.2337  0.1502 -0.0390
 4627W        W20521  12.201   6.453   4.613 -0.0639 -0.1398 -0.0826
 4628W        W20522   3.780  16.394   1.906 -0.0495 -0.0620 -0.0099
 4629W        W20523   4.036   9.172  15.470 -0.2701 -0.0931  0.0511
 4630W        W20524   4.364   0.585   1.606 -0.0321 -0.1131 -0.0313
 4631W        W20525  17.219   7.505   2.676  0.0710 -0.1530  0.1357
 4632W        W20526   5.278   5.585  13.511 -0.2100  0.1192  0.1156
 4633W        W20527  15.063   9.910   3.976  0.1859  0.0945  0.2543
 4634W        W20528   1.134  11.599  13.928  0.1865 -0.2390 -0.1954
 4635W        W20529   3.559   0.871   1.251  0.1963 -0.0930  0.0551
 4636W        W20530   2.798   5.760  16.353  0.0868 -0.0316 -0.1074
 4637W        W20531   7.500   4.686   2.227 -0.0789  0.3991  0.2286
 4638W        W20532   5.908  15.060   0.570 -0.0277  0.0010  0.2283
 4639W        W20533   9.036   3.292   1.524 -0.1412  0.3704 -0.0512
 4640W        W20534   4.801  11.399  13.951  0.1685 -0.0725 -0.1967
 4641W        W20535   6.279  11.191  16.370 -0.0312 -0.0507 -0.1651
 4642W        W20536   3.867   2.721   4.971  0.3168  0.1330 -0.2157
 4643W        W20537   1.841   0.754   0.122 -0.2374 -0.0061  0.1099
 4644W        W20538   6.309   0.713   2.548  0.3275 -0.0960  0.0411
 4645W        W20539   2.378   8.246  15.221  0.0234 -0.1957 -0.0811
 4646W        W20540   3.621   9.404  15.383  0.0254  0.1787  0.0033
 4647W        W20541  16.578  11.000  16.498  0.1448  0.0240  0.1775
 4648W        W20542   0.209   4.991   1.804  0.0995 -0.1303 -0.2663
 4649W        W20543   4.809  14.303  17.221  0.2204 -0.2575  0.2318
 4650W        W20544  17.215   0.112   4.450 -0.1735  0.0658 -0.3639
 4651W        W20545   1.355   6.206   3.337  0.2949  0.0822 -0.0186
 4652W        W20546   0.937   4.191   1.756 -0.1087  0.2271  0.1254
 4653W        W20547   8.423  12.659   1.597 -0.2000  0.0194  0.3272
 4654W        W20548   1.696  13.102  17.243  0.2574  0.0140 -0.2683
 4655W        W20549   5.803   4.421   3.805 -0.0319 -0.0215  0.2534
 4656W        W20550  17.017   6.520  14.461 -0.0182  0.2231 -0.4155
 4657W        W20551  14.199  15.359   6.176 -0.1998  0.2113 -0.0695
 4658W        W20552  13.674   1.726  12.449 -0.3069 -0.3244  0.0732
 4659W        W20553  12.799  15.040   2.889 -0.0461 -0.0515 -0.0760
 4660W        W20554  11.348  16.406  10.609 -0.2113 -0.0277  0.0663
 4661W        W20555   2.587   1.121  17.086  0.0590  0.0976 -0.2714
 4662W        W20556   3.501  17.577  16.862  0.2177  0.2008  0.1742
 4663W        W20557   4.743   5.685   0.271  0.0528  0.0507  0.3666
 4664W        W20558   4.608   5.212  15.393  0.0193 -0.3520 -0.3098
 4665W        W20559   9.899  16.368  15.267 -0.0412  0.1757 -0.1427
 4666W        W20560   7.743   2.872  17.147 -0.2115 -0.1517 -0.0591
 4667W        W20561   7.156   7.011   4.279 -0.0283 -0.1425 -0.0625
 4668W        W20562  11.149  12.927   4.112  0.0140  0.3094  0.0320
 4669W        W20563   4.394   8.255  15.970  0.1800  0.3126  0.1182
 4670W        W20564  15.100  13.337   4.305  0.0480 -0.2240 -0.0426
 4671W        W20565   7.924  16.877  14.574 -0.2294  0.4639 -0.2158
 4672W        W20566   3.135   5.123  13.284 -0.3030 -0.2130 -0.2244
 4673W        W20567  14.399   0.645  16.849 -0.0467  0.2276  0.0489
 4674W        W20568  12.796  13.143  13.232  0.1186  0.4157  0.0699
 4675W        W20569   0.309   0.493  12.469 -0.0027  0.0694  0.0188
 4676W        W20570   2.846  12.614   1.740  0.0368  0.1289 -0.1285
 4677W        W20571   6.132  17.520  13.723  0.0399 -0.1432 -0.0666
 4678W        W20572  15.598   5.462   1.861  0.3990 -0.2764 -0.1778
 4679W        W20573   7.680   2.409  15.651  0.0340  0.0331  0.4821
 4680W        W20574  14.330  13.975   0.354  0.0742 -0.1552  0.1608
 4681W        W20575  17.361  11.736  12.292  0.1798  0.2510 -0.1851
 4682W        W20576   5.437  14.215  15.423  0.3098  0.0628  0.1275
 4683W        W20577   5.815  14.364   1.478  0.0133 -0.0581 -0.1608
 4684W        W20578   9.712   0.951   6.131  0.0545 -0.0648  0.1254
 4685W        W20579   7.838   4.334  15.722  0.0793 -0.0321  0.2227
 4686W        W20580  16.375  13.908   2.435  0.0660  0.1124  0.1200
 4687W        W20581   9.129   0.907  14.574  0.0914 -0.2068 -0.0718
 4688W        W20582   7.586  13.610  11.749 -0.0143  0.2081  0.1991
 4689W        W20583   6.347   6.223  15.831  0.3532  0.0211 -0.0545
 4690W        W20584  15.692  10.983  11.290  0.1420 -0.0089  0.0858
 4691W        W20585  12.485   4.745  13.668 -0.3349 -0.2882 -0.0877
 4692W        W20586  15.402   5.458   5.984  0.0044 -0.1018 -0.0651
 4693W        W20587   6.165   1.779   5.867  0.2350 -0.0275 -0.0919
 4694W        W20588  12.310   1.224  17.070 -0.2163  0.0682 -0.2233
 4695W        W20589   9.438  13.887  17.178 -0.1983 -0.0457 -0.0199
 4696W        W20590  15.204  13.696   2.193 -0.3715 -0.0513  0.0064
 4697W        W20591  16.463  17.508   3.176 -0.3283  0.0117 -0.0909
 4698W        W20592   4.231   7.161  12.902 -0.0550 -0.0615  0.0628
 4699W        W20593   8.316  10.872   2.769  0.2236 -0.2264 -0.1729
 4700W        W20594   5.448   0.266  16.047 -0.0041  0.1325  0.0471
 4701W        W20595   7.950  16.611   4.102 -0.2928  0.3869 -0.0179
 4702W        W20596  10.994  14.403  16.212 -0.0421 -0.1523  0.1543
 4703W        W20597   5.547  17.237   3.069  0.1001 -0.0520 -0.3230
 4704W        W20598  10.224  15.259  15.507 -0.2100 -0.0762 -0.0318
 4705W        W20599   0.015   4.846   4.079 -0.2797 -0.1185 -0.0297
 4706W        W20600  14.285  16.741  15.825  0.0128 -0.3016 -0.0247
 4707W        W20601   7.769  11.320  15.411  0.4038  0.1946 -0.2577
 4708W        W20602   8.352  15.444   1.542  0.1618  0.2669 -0.1972
 4709W        W20603  13.786   5.973  16.842  0.0995  0.0481  0.1171
 4710W        W20604   9.114   0.528   5.303  0.1242  0.1248 -0.1366
 4711W        W20605  10.682   8.460   5.805  0.4227 -0.1600 -0.0346
 4712W        W20606  13.960  16.085  13.068  0.5960  0.0163 -0.2032
 4713W        W20607   0.363   3.257  13.744  0.0846  0.1427  0.4172
 4714W        W20608  12.698  12.912   1.922 -0.1830  0.3290  0.2290
 4715W        W20609   9.237   1.197   6.183  0.0136  0.0005  0.0230
 4716W        W20610  15.455   6.276   3.182 -0.0064  0.0811 -0.2464
 4717W        W20611   7.859   2.098  13.288  0.1984 -0.0524  0.0943
 4718W        W20612  16.135  10.793  15.511  0.0175 -0.1166  0.0598
 4719W        W20613  10.686  12.507   0.090  0.2830 -0.2719  0.0225
 4720W        W20614   4.142  14.395   5.766 -0.0297  0.2335 -0.1259
 4721W        W20615   4.424  13.829   3.087  0.0046 -0.0699  0.1256
 4722W        W20616   5.426  16.947   2.475 -0.1844 -0.1490  0.1105
 4723W        W20617   6.862  12.934   1.816  0.2075  0.0100  0.3664
 4724W        W20618  10.384  13.653   5.541 -0.2652 -0.1553  0.0521
 4725W        W20619  12.635  11.733   4.676 -0.1295  0.1348 -0.3087
 4726W        W20620  17.552  15.953   1.941  0.2353  0.1474 -0.0809
 4727W        W20621   0.234  13.933  16.558 -0.0376  0.3939  0.0090
 4728W        W20622   9.307   6.828  12.258  0.0911 -0.1312  0.2094
 4729W        W20623  17.335   6.100   6.239  0.1540  0.0366 -0.0405
 4730W        W20624  12.738  17.602  16.090 -0.0228 -0.0411  0.0010
 4731W        W20625  16.039  13.425   1.789  0.1669 -0.1265  0.0458
 4732W        W20626  17.567  14.759   4.457  0.2956  0.0643  0.0465
 4733W        W20627   0.440   3.078  13.266 -0.3982 -0.1527  0.1997
 4734W        W20628   4.456   2.881  12.445  0.0458  0.1857 -0.0644
 4735W        W20629   7.316  11.476  12.409  0.3544  0.0351  0.2829
 4736W        W20630   5.865   3.878   5.492  0.1471  0.0412 -0.0314
 4737W        W20631   7.722  14.353   6.407 -0.1858  0.1897 -0.0245
 4738W        W20632  11.587   2.433   2.897 -0.2212  0.0483 -0.1303
 4739W        W20633   2.727   6.335   0.202 -0.0673  0.1732  0.1208
 4740W        W20634  15.455   7.479  14.757 -0.0382  0.0964  0.0717
 4741W        W20635   8.140  13.718  14.435  0.2064  0.0227 -0.0915
 4742W        W20636   5.661  14.901   3.994  0.1535  0.0136 -0.0090
 4743W        W20637  15.456   3.347  12.852 -0.0569 -0.1298 -0.1284
 4744W        W20638  15.060   0.353   1.723  0.1219  0.2416 -0.3355
 4745W        W20639   0.335   0.135   5.432 -0.0201  0.1223 -0.0500
 4746W        W20640  14.826  15.090  11.760 -0.0606  0.4608  0.0668
 4747W        W20641   8.673  16.444  14.671  0.2737  0.1432 -0.0956
 4748W        W20642   1.595  17.120  16.495  0.0063 -0.0455 -0.0093
 4749W        W20643  13.636  13.788  17.225  0.2722 -0.0552 -0.1142
 4750W        W20644   5.825  17.223  13.413  0.3760  0.1430  0.3574
 4751W        W20645   0.488  16.733   4.480  0.4051 -0.1003  0.2944
 4752W        W20646   5.949  15.669  16.176  0.1622 -0.0400 -0.1598
 4753W        W20647   4.685  13.174  15.011 -0.2710 -0.1261 -0.2076
 4754W        W20648  13.440  15.061   0.022 -0.0128  0.0346 -0.3668
 4755W        W20649   6.043   6.086   5.325  0.1180  0.0694  0.1957
 4756W        W20650   9.253   7.020   3.638  0.0380  0.1498 -0.0591
 4757W        W20651   3.037   7.957   4.366 -0.0311  0.0234  0.3854
 4758W        W20652   7.687   2.717  14.622  0.1751 -0.0952  0.1157
 4759W        W20653  10.172  11.594   1.354  0.0011  0.0476 -0.2465
 4760W        W20654   8.225   7.536   1.354  0.0764  0.4130  0.0130
 4761W        W20655  16.511   5.180   5.230 -0.0310 -0.4395  0.3046
 4762W        W20656   5.752   9.427  13.237  0.1702 -0.4343 -0.0248
 4763W        W20657  12.572  16.163  13.800  0.0878 -0.0383  0.0416
 4764W        W20658   3.616   2.327  14.030 -0.0206  0.0880  0.2401
 4765W        W20659   3.080  14.017  13.636 -0.0276 -0.3475  0.0580
 4766W        W20660   8.263  15.111   2.625 -0.1530 -0.1782  0.0836
 4767W        W20661   9.724   8.700  10.848  0.2245 -0.1097  0.4555
 4768W        W20662   9.057   2.547   4.349  0.1867 -0.0274 -0.0038
 4769W        W20663  11.588  17.163  15.164  0.1297 -0.0787  0.0602
 4770W        W20664   2.737  14.864  13.758  0.1969  0.1394  0.3317
 4771W        W20665   2.969   8.761   3.722  0.1534  0.1239  0.0580
 4772W        W20666  12.934  14.430   4.581 -0.0847  0.0207  0.0084
 4773W        W20667   6.894  11.612  12.555 -0.0416 -0.1675  0.0047
 4774W        W20668  13.631   1.741   1.481 -0.3312  0.4194 -0.0666
 4775W        W20669   0.185   4.540  12.179 -0.1966 -0.1959  0.2927
 4776W        W20670   8.145   4.439  14.076  0.1234 -0.2657  0.0682
 4777W        W20671  11.713  16.778  13.627 -0.0901 -0.1274 -0.0266
 4778W        W20672  14.745  12.211  11.765  0.1961  0.1892  0.1281
 4779W        W20673   6.646   4.283   4.085 -0.0839 -0.1703  0.4291
 4780W        W20674  10.209   6.100  12.689 -0.3922  0.3088 -0.3075
 4781W        W20675  11.408  16.444   0.936 -0.1196 -0.1123  0.0865
 4782W        W20676   9.154  10.582  14.385 -0.1249 -0.0319 -0.0136
 4783W        W20677  13.277   1.747   5.141 -0.0033  0.0735  0.3675
 4784W        W20678   4.286   7.818   2.328  0.5620  0.0494 -0.1160
 4785W        W20679   9.770   4.720   2.808 -0.0760  0.2502  0.1126
 4786W        W20680  15.456   0.353   2.589  0.0722 -0.2039 -0.2166
 4787W        W20681   1.745   2.522   4.710 -0.0651  0.4385  0.1602
 4788W        W20682   5.708  16.194  13.243  0.0204  0.1743 -0.2994
 4789W        W20683   0.166  11.517   4.729  0.0720  0.3379  0.1753
 4790W        W20684  13.988  10.863   5.635 -0.1877 -0.2491  0.1761
 4791W        W20685  13.890   8.442  14.696  0.2603  0.2030 -0.0583
 4792W        W20686  11.432  14.193  16.389 -0.0927  0.2432  0.1488
 4793W        W20687   9.968   7.496   0.008  0.0542  0.0407 -0.1904
 4794W        W20688   1.131  14.020  14.482  0.0193  0.1137  0.0790
 4795W        W20689   2.273   6.526   1.473  0.1860 -0.0627 -0.2836
 4796W        W20690   6.459  12.670   1.943  0.0854 -0.1538 -0.0433
 4797W        W20691   1.619  15.559  16.808  0.0669 -0.2060 -0.1722
 4798W        W20692   4.405   0.934   5.157  0.0867 -0.0298 -0.3097
 4799W        W20693   3.626   5.175  13.110 -0.1491  0.0266  0.1324
 4800W        W20694   5.782  16.249   3.046  0.3189  0.1566  0.0428
 4801W        W20695   3.593   6.853   2.848 -0.2314  0.0235  0.0654
 4802W        W20696  11.850  15.985   2.119 -0.0210  0.1878  0.1373
 4803W        W20697   2.037  17.587  12.518  0.6289  0.3354  0.4236
 4804W        W20698   6.295  14.673   4.481 -0.2035 -0.0358 -0.2179
 4805W        W20699   6.157   2.682   1.189  0.3513  0.0794 -0.0413
 4806W        W20700   7.628   3.411   1.844 -0.3083  0.2632  0.0029
 4807W        W20701   4.646  16.084  15.512 -0.0031 -0.2813 -0.0575
 4808W        W20702  11.176  13.306   2.351 -0.1192  0.2273  0.0734
 4809W        W20703  13.833   8.205  11.957  0.0286 -0.0006 -0.1311
 4810W        W20704  16.793   7.541  12.514 -0.0648  0.0706  0.1725
 4811W        W20705  17.221  10.585  12.069 -0.1761  0.0992  0.0507
 4812W        W20706  11.648  14.959   0.414  0.0698  0.1222  0.4489
 4813W        W20707   5.885   1.428  12.077 -0.0177 -0.0179 -0.1440
 4814W        W20708   6.624   0.938  16.374 -0.0620 -0.1986 -0.2842
 4815W        W20709  11.064   5.133   3.397 -0.0684  0.1069  0.1044
 4816W        W20710   7.404   3.863  12.387  0.1863 -0.0639 -0.0686
 4817W        W20711   8.376  15.507   2.296 -0.1084  0.2542 -0.0317
 4818W        W20712  12.660  10.397  17.252 -0.0051 -0.0667 -0.0692
 4819W        W20713  17.170   2.185   6.427  0.0168 -0.1008 -0.2235
 4820W        W20714   2.238  15.346  13.187 -0.2128  0.0010  0.0755
 4821W        W20715   3.905  11.384   5.000  0.1841 -0.0089 -0.4114
 4822W        W20716   0.869  12.317   5.325 -0.2141  0.1581 -0.0360
 4823W        W20717  15.345   0.825   0.749  0.1575 -0.0540 -0.0621
 4824W        W20718   5.552  13.387   2.301  0.0470  0.0497 -0.2105
 4825W        W20719   0.086  12.584   5.689 -0.0657  0.0640 -0.0819
 4826W        W20720   5.264   4.926  14.167 -0.0149  0.0635 -0.0388
 4827W        W20721   1.985  17.041  12.654  0.1172 -0.0436 -0.0145
 4828W        W20722   5.492   1.089   2.766 -0.0212 -0.2447 -0.0347
 4829W        W20723   3.360   4.709  13.053  0.0732 -0.0393 -0.0616
 4830W        W20724  13.274   2.432   0.101  0.0505  0.1429  0.0049
 4831W        W20725   3.671   1.790   5.176 -0.0082  0.1729 -0.4435
 4832W        W20726   4.209   2.264   1.863 -0.0590 -0.1173  0.2281
 4833W        W20727  10.793   0.620  13.354  0.4922 -0.1792 -0.0619
 4834W        W20728  12.327   1.501   3.999  0.2357 -0.0057 -0.0165
 4835W        W20729   5.771   4.382   5.343  0.1558 -0.0656 -0.0393
 4836W        W20730   9.929  11.119  14.878  0.2566 -0.1597  0.0089
 4837W        W20731   6.119   8.268  16.362  0.0227  0.1171 -0.3268
 4838W        W20732   3.282  11.936   2.113  0.1871 -0.0623  0.0622
 4839W        W20733  15.479  12.245   0.613 -0.4394  0.3285 -0.0047
 4840W        W20734   4.904   1.586   1.604  0.0105  0.1140 -0.0784
 4841W        W20735  13.938  12.440  12.470 -0.0711 -0.0172 -0.2881
 4842W        W20736   5.345  13.192   5.284 -0.0469 -0.0023 -0.2000
 4843W        W20737   9.268   5.758   4.359  0.2499 -0.2549  0.1201
 4844W        W20738   0.302   7.650  16.401  0.1418 -0.1530  0.2558
 4845W        W20739   3.224  12.548   1.444  0.2675 -0.0223 -0.0713
 4846W        W20740   0.257   0.559   0.256 -0.0287  0.0227 -0.0614
 4847W        W20741   9.969   1.867   5.095 -0.1200  0.3331  0.0387
 4848W        W20742  17.156   0.541   5.806 -0.1988  0.1071  0.0595
 4849W        W20743   1.588  14.755   5.599 -0.0840 -0.1446 -0.0516
 4850W        W20744   6.133  12.190  15.652 -0.1184  0.1866 -0.1409
 4851W        W20745   6.742  12.159  11.860  0.0694  0.2441  0.0454
 4852W        W20746   9.520   3.063   2.090 -0.0586 -0.2575 -0.0168
 4853W        W20747  11.077  12.162   0.482 -0.0060 -0.1980  0.1262
 4854W        W20748   2.976   9.187   1.555 -0.2363  0.0664 -0.0621
 4855W        W20749  16.955  17.111  13.941 -0.1236 -0.1114  0.0359
 4856W        W20750   4.390   8.160   5.538 -0.2608  0.1502  0.0969
 4857W        W20751  12.470   7.034   2.198  0.1561  0.0981  0.2066
 4858W        W20752  14.000  14.594  11.991  0.1940  0.0519  0.0983
 4859W        W20753  13.370   3.402   0.379  0.2177 -0.4839 -0.0458
 4860W        W20754   2.886  16.795   1.573  0.0957  0.0146 -0.0440
 4861W        W20755   3.832   4.777  15.361  0.0401  0.0932 -0.3320
 4862W        W20756  12.048   0.307   4.881 -0.0187 -0.2111 -0.4037
 4863W        W20757   0.540   8.564   1.491 -0.0169  0.0168 -0.0779
 4864W        W20758   8.293  12.259   2.121  0.0541 -0.1860 -0.0550
 4865W        W20759   6.097   0.684   0.005  0.1348 -0.2868  0.5488
 4866W        W20760   9.409   2.711  17.042 -0.0956  0.0933  0.3295
 4867W        W20761  12.998   7.157  12.736  0.0221  0.0337  0.1193
 4868W        W20762   5.411  15.608   1.302  0.1640 -0.1704  0.0714
 4869W        W20763  13.575   2.451   0.596  0.1441 -0.0287  0.0251
 4870W        W20764  10.074  12.152   4.385 -0.1075 -0.0237  0.0818
 4871W        W20765   6.855   2.872  17.206 -0.0331  0.0133 -0.0096
 4872W        W20766   4.019  11.348  13.669 -0.0614 -0.2400 -0.0322
 4873W        W20767   7.746  13.024   3.853  0.0702  0.2809 -0.0954
 4874W        W20768   0.914  10.874  16.438  0.2545 -0.0289 -0.0715
 4875W        W20769   3.665   6.384   4.847  0.2073 -0.1228 -0.0352
 4876W        W20770  16.439   1.648   5.144 -0.2749 -0.1600 -0.0221
 4877W        W20771   1.090  16.254   5.963  0.0395 -0.1819 -0.0589
 4878W        W20772  14.802   3.059   4.229  0.0276 -0.0820 -0.0268
 4879W        W20773   0.489  14.067   5.831  0.1988 -0.3410 -0.2108
 4880W        W20774  11.672  11.541   5.650  0.0195  0.4382  0.0885
 4881W        W20775   6.939   9.876   1.960  0.2099  0.1606 -0.1406
 4882W        W20776  11.159   6.996   2.358 -0.0865 -0.1628  0.0425
 4883W        W20777  16.984  16.297   5.362  0.0729  0.3049 -0.0408
 4884W        W20778  13.464   0.478   1.551 -0.4470 -0.1602 -0.1346
 4885W        W20779  15.682   7.156   6.016  0.0666 -0.0882  0.0652
 4886W        W20780  13.274   7.218  13.118 -0.0009  0.0669  0.1234
 4887W        W20781  13.630   3.667  13.475 -0.0186  0.0716  0.1177
 4888W        W20782   3.369  14.859   5.905  0.0785  0.0242 -0.2919
 4889W        W20783  14.464   1.955   3.222  0.0959  0.1284  0.0201
 4890W        W20784  14.401   8.670   3.459 -0.1889 -0.0632 -0.1842
 4891W        W20785  16.160   1.082  15.929  0.0438 -0.0856  0.1484
 4892W        W20786   1.400   0.326   4.120  0.2531 -0.1814 -0.1398
 4893W        W20787   6.250  17.196   1.942  0.1677  0.5274  0.0557
 4894W        W20788   6.897   0.499  12.075  0.0821 -0.0478  0.0294
 4895W        W20789  16.804   5.312  13.136  0.1263 -0.1297  0.1662
 4896W        W20790   1.194   1.873   0.900 -0.2019 -0.0309  0.2322
 4897W        W20791  14.525  10.492   4.441 -0.2048 -0.2921 -0.0150
 4898W        W20792   0.476   5.894   3.583 -0.1137 -0.1578  0.0423
 4899W        W20793  12.599   8.481   4.025 -0.1670 -0.0927  0.1504
 4900W        W20794   7.405  10.167   1.403  0.1557 -0.0744 -0.1460
 4901W        W20795  15.564   3.123  13.534  0.0458  0.1185  0.1531
 4902W        W20796   2.089   7.982  16.702 -0.1129  0.2046 -0.0524
 4903W        W20797   9.814  14.681  11.239 -0.3201 -0.0263 -0.2599
 4904W        W20798   1.092   9.659  16.916 -0.3390 -0.0820 -0.0601
 4905W        W20799   4.919   6.987   0.927 -0.0365  0.1793  0.2441
 4906W        W20800   2.741   6.379   1.627 -0.1003  0.1387  0.2421
 4907W        W20801   5.561  15.294  17.074  0.3170  0.2179  0.0813
 4908W        W20802   6.767  12.428  16.058 -0.1862  0.1356 -0.4053
 4909W        W20803  14.735  13.019   2.461  0.0171  0.0894  0.0055
 4910W        W20804  15.717   7.134  12.708 -0.0011 -0.4552 -0.0503
 4911W        W20805  11.395  13.375   4.724  0.0383 -0.0330  0.2037
 4912W        W20806  15.878   9.802  15.089  0.3037 -0.1695  0.2094
 4913W        W20807   0.809  13.827  17.056  0.1513  0.1026  0.1211
 4914W        W20808   3.003   9.811  15.552 -0.3498 -0.0138  0.3503
 4915W        W20809   9.709   9.773  15.931  0.0020  0.1226  0.0754
 4916W        W20810   5.795   7.829  16.211  0.1667  0.1455 -0.1252
 4917W        W20811   5.193  15.052   1.263 -0.0627  0.1940  0.1739
 4918W        W20812   0.197  10.234  12.830 -0.1439 -0.1782 -0.2509
 4919W        W20813   7.629  17.509  11.976 -0.1381 -0.0012  0.3521
 4920W        W20814   7.655   7.288  12.140  0.2675 -0.2458 -0.2246
 4921W        W20815   6.527  16.552  16.462  0.2114  0.1562  0.1155
 4922W        W20816  11.082  14.304  15.160  0.2794 -0.0274  0.2560
 4923W        W20817  16.890   6.002  15.678  0.1060  0.1542 -0.1620
 4924W        W20818   2.861   8.846   2.754  0.1264 -0.2929 -0.0326
 4925W        W20819  11.057  12.610  12.338 -0.2786 -0.2383  0.0451
 4926W        W20820  15.919  12.524   1.954 -0.0590  0.0430 -0.2351
 4927W        W20821  15.056   5.541   6.340  0.2290  0.3522 -0.0902
 4928W        W20822  14.775   7.921  16.618 -0.1130 -0.1478  0.2240
 4929W        W20823  15.948   5.296  15.093 -0.3536  0.1223 -0.0287
 4930W        W20824   1.044   0.968   2.442 -0.0199  0.2425  0.1665
 4931W        W20825   5.620   5.561   3.815  0.2447  0.1124 -0.1568
 4932W        W20826   4.224  15.023  17.113  0.2166 -0.1629  0.1565
 4933W        W20827  16.930   5.403   5.192  0.0379 -0.0298 -0.0179
 4934W        W20828   5.470  12.953  12.357  0.0631 -0.4815  0.0204
 4935W        W20829   5.038   3.145   2.679 -0.1003 -0.1848 -0.2280
 4936W        W20830   9.377  17.372  12.680 -0.0657  0.5184  0.1555
 4937W        W20831   9.306   6.549   3.627 -0.1573  0.0466  0.0432
 4938W        W20832   5.721  14.440  16.858  0.0866  0.0332  0.3437
 4939W        W20833  14.141   5.931  11.598  0.0147 -0.1412 -0.1580
 4940W        W20834   9.501   1.963  12.399  0.0077 -0.2061  0.1106
 4941W        W20835   3.814  15.609  15.757  0.0617 -0.0069  0.3192
 4942W        W20836   4.362   9.325  12.322 -0.3947 -0.0377  0.1735
 4943W        W20837   7.877   2.458   1.550 -0.1045 -0.0351  0.2289
 4944W        W20838   9.587  11.779   3.310 -0.1270  0.0564  0.0834
 4945W        W20839  11.312  12.777  14.928 -0.1413  0.2214  0.0665
 4946W        W20840   0.652  15.813   2.916  0.1926  0.0469  0.0662
 4947W        W20841   5.504  12.615  14.232 -0.1268 -0.0877 -0.1033
 4948W        W20842   0.470  10.337  13.212 -0.0987 -0.0903 -0.2952
 4949W        W20843   8.076   1.270  13.021 -0.1567 -0.2976  0.0847
 4950W        W20844  17.487  14.812   3.858 -0.3122  0.1328  0.0593
 4951W        W20845   2.737  17.250  13.181 -0.1381 -0.2892  0.2678
 4952W        W20846   3.745   3.250  15.535  0.0060 -0.1733  0.2998
 4953W        W20847   4.868   8.470   0.799 -0.0217  0.0182  0.1006
 4954W        W20848  10.011   6.000  15.793 -0.1188  0.3272  0.1740
 4955W        W20849  14.611  12.339   5.009  0.1747  0.0267  0.0066
 4956W        W20850   7.730  13.822  16.121 -0.1750  0.0347  0.1384
 4957W        W20851   4.807   8.917  14.674 -0.0460  0.1289 -0.0646
 4958W        W20852  16.392  10.042  13.737 -0.1117 -0.1538  0.0069
 4959W        W20853   2.353  13.419  13.712 -0.0968  0.0906 -0.1112
 4960W        W20854  10.595  13.195   2.484 -0.0098 -0.1765  0.0876
 4961W        W20855   7.069   8.900   5.449 -0.1695  0.1322 -0.0393
 4962W        W20856   0.616  13.868   1.902 -0.0306 -0.1234 -0.1173
 4963W        W20857  11.057   6.603   3.959 -0.0727  0.1918  0.0231
 4964W        W20858   0.786   0.593  13.717  0.1424 -0.1873 -0.0244
 4965W        W20859   9.172   8.938  16.878 -0.1474 -0.1802 -0.0929
 4966W        W20860   2.189   0.006   4.790  0.0672  0.2345 -0.0399
 4967W        W20861   9.153   3.789  13.203  0.1187 -0.1867 -0.0907
 4968W        W20862  10.347   0.612  16.383  0.1435 -0.0874 -0.1706
 4969W        W20863   9.469   5.833  12.481  0.1476 -0.1718 -0.1526
 4970W        W20864  15.686   7.733   0.624 -0.2185  0.2562 -0.2263
 4971W        W20865  12.350   1.058  15.231  0.1057 -0.2046  0.0377
 4972W        W20866  16.295  10.963   0.372 -0.0789 -0.3643  0.0926
 4973W        W20867  12.709  15.765  14.815 -0.1062  0.1844  0.2006
 4974W        W20868   7.720   5.444   2.846  0.0518  0.1723 -0.1162
 4975W        W20869   0.933  13.900   3.868  0.1669 -0.1778 -0.3258
 4976W        W20870  15.799  17.094  16.627 -0.4526 -0.0260  0.4031
 4977W        W20871   2.650   2.526   3.562  0.3037 -0.1362  0.2692
 4978W        W20872  14.421  12.636   5.703 -0.1087  0.3200 -0.1717
 4979W        W20873   2.429  12.157   0.171  0.1369  0.4081  0.1683
 4980W        W20874   4.772   8.210   2.467 -0.1118 -0.1602 -0.1760
 4981W        W20875  16.884  13.857  13.007  0.3070 -0.1805  0.0561
 4982W        W20876   1.315  17.372  13.076  0.2157 -0.1232  0.1105
 4983W        W20877   3.639   0.707  16.088  0.0701 -0.0149  0.0892
 4984W        W20878   5.290   4.211   6.167 -0.1739  0.3137  0.3195
 4985W        W20879   8.077   0.157   3.606 -0.1246  0.2315  0.1955
 4986W        W20880   7.649  14.056   5.099  0.0386 -0.1650 -0.0479
 4987W        W20881   3.668  13.906   1.918 -0.0432 -0.2747  0.1496
 4988W        W20882   2.705   5.006   1.121 -0.1269  0.2026 -0.0787
 4989W        W20883  11.120   4.196  11.720 -0.1112 -0.1661 -0.0386
 4990W        W20884   6.316  11.652   2.378 -0.3012  0.1477  0.1690
 4991W        W20885   5.189   9.994   6.344 -0.1297 -0.0726  0.3661
 4992W        W20886   0.461   4.079   1.769 -0.0443 -0.0529 -0.1933
 4993W        W20887   7.947   7.449  15.122  0.2880 -0.0742  0.0634
 4994W        W20888   7.668  10.813   3.319 -0.1249 -0.1326  0.5178
 4995W        W20889  16.925   0.510  16.418  0.0453  0.2633  0.2921
 4996W        W20890   1.349   3.496  13.245  0.1537  0.0242  0.1658
 4997W        W20891  12.716   2.415   3.805  0.0967  0.0823 -0.0754
 4998W        W20892  10.273   6.138   4.156  0.1075 -0.2354  0.0015
 4999W        W20893   6.884  15.209  14.917  0.2896 -0.2170  0.1697
 5000W        W20894  17.452   8.064   4.040  0.0477  0.1905 -0.0245
 5001W        W20895  13.953   8.243   1.030 -0.1280 -0.1498 -0.1970
 5002W        W20896  10.347   1.520   5.212 -0.5396 -0.1117 -0.3067
 5003W        W20897  14.704  17.002  13.148  0.1765 -0.1317 -0.0369
 5004W        W20898   4.542   1.927   2.719 -0.2810  0.0891  0.0952
 5005W        W20899   6.133  11.334   5.870  0.1870  0.2118 -0.1037
 5006W        W20900  11.115  17.233  15.315 -0.1451  0.2275  0.0716
 5007W        W20901  11.896  13.204   0.930 -0.3154 -0.0132 -0.2802
 5008W        W20902   6.804  10.521  15.122  0.0379  0.3042 -0.1855
 5009W        W20903   8.525  10.173   0.101  0.0747  0.0255 -0.0295
 5010W        W20904  12.254  12.025   2.963  0.1394  0.0580 -0.0516
 5011W        W20905   7.023   9.584   0.623 -0.0465  0.0195 -0.0227
 5012W        W20906   2.077  16.989   1.656 -0.4503  0.0406 -0.3023
 5013W        W20907  13.447  14.470  14.981  0.1112 -0.4725  0.0800
 5014W        W20908  16.071  11.712  14.375  0.2313 -0.0645 -0.3735
 5015W        W20909   6.634   6.488   4.671  0.2087  0.1198 -0.0758
 5016W        W20910  10.648  14.537   5.421  0.0102 -0.2167 -0.1620
 5017W        W20911  13.715  16.522   0.254 -0.2066 -0.1468 -0.0661
 5018W        W20912   6.005   1.407   5.594  0.0424  0.0587  0.2302
 5019W        W20913   0.842   3.292  13.378  0.0673 -0.1107 -0.1053
 5020W        W20914  11.356  17.477   1.710  0.0324 -0.0710  0.1122
 5021W        W20915   2.433   3.494   5.217 -0.0627 -0.0535 -0.1597
 5022W        W20916   6.231   1.856  14.713 -0.0622  0.0525 -0.1546
 5023W        W20917   7.034   2.002   3.466  0.4624 -0.0208  0.2224
 5024W        W20918   9.046   9.750   0.720 -0.3267  0.2081 -0.1739
 5025W        W20919   1.188   7.418   5.657  0.2305  0.4660 -0.1252
 5026W        W20920  16.305   9.508   6.000 -0.0173  0.2857  0.0469
 5027W        W20921   9.140   6.120  14.671 -0.0486 -0.1559 -0.0278
 5028W        W20922   4.862   2.461   3.338 -0.0681  0.0816 -0.1676
 5029W        W20923   2.955  15.732  13.694  0.3666  0.1413 -0.0876
 5030W        W20924  13.918   6.127  13.120 -0.0530  0.3989  0.0636
 5031W        W20925   2.245  11.341  13.093  0.0171 -0.0835 -0.1448
 5032W        W20926  13.650   4.267   2.158  0.0713  0.2506 -0.0613
 5033W        W20927   7.595  17.197   5.691 -0.0063 -0.0946 -0.0212
 5034W        W20928   6.333  14.961  15.494 -0.2948 -0.2323  0.0915
 5035W        W20929   3.951  12.545   6.501 -0.0935  0.0389  0.1795
 5036W        W20930   2.541  14.052  14.749  0.1918 -0.2794  0.1074
 5037W        W20931   9.757   5.506   3.427  0.2549 -0.0383  0.1134
 5038W        W20932   0.821  14.506   0.934  0.0277 -0.0929 -0.0877
 5039W        W20933  15.729  17.419   4.686  0.0331 -0.0344 -0.1509
 5040W        W20934  16.368  10.914  14.755  0.2539 -0.1894  0.1546
 5041W        W20935   0.143  14.324   5.528  0.0280 -0.3164  0.0765
 5042W        W20936   9.968  10.076  12.621 -0.0085 -0.2013 -0.2035
 5043W        W20937   9.212   3.425  12.526 -0.1057 -0.0949 -0.0263
 5044W        W20938   5.225   9.691  16.832  0.0635  0.3942  0.0184
 5045W        W20939  14.587   4.725   5.893  0.0180 -0.0134 -0.1385
 5046W        W20940   8.950  15.154   0.191 -0.0080  0.0189  0.2798
 5047W        W20941   7.645  13.586  13.151  0.1849  0.2297  0.2964
 5048W        W20942   9.094   7.907  16.504 -0.2537  0.2572 -0.2308
 5049W        W20943  14.042   9.625  15.550  0.2312 -0.0918 -0.5294
 5050W        W20944  15.905   0.221   0.584  0.0694  0.1097 -0.1313
 5051W        W20945   4.105   1.897  16.157 -0.0736  0.2500  0.0732
 5052W        W20946  14.576   8.417   2.432  0.1241  0.0247 -0.0862
 5053W        W20947   9.741   2.374  14.415  0.2827  0.0556 -0.0188
 5054W        W20948  11.872   0.791  13.327 -0.1761  0.2235  0.1408
 5055W        W20949  13.835   5.655   3.512 -0.1017 -0.0744  0.0344
 5056W        W20950  11.010   3.854  15.223  0.0064  0.0426  0.0908
 5057W        W20951  15.751   5.358   0.372 -0.1088 -0.0051  0.3786
 5058W        W20952   3.879   9.683   1.134 -0.3567  0.1039  0.0217
 5059W        W20953   3.812   5.272   2.953 -0.4061 -0.0391 -0.3063
 5060W        W20954   1.637   2.339   0.045 -0.0186  0.3216 -0.1968
 5061W        W20955   5.008  17.518   3.123 -0.2463 -0.3052 -0.0358
 5062W        W20956   2.105  16.352  16.870 -0.0856 -0.2233  0.3013
 5063W        W20957  10.257  10.057  13.119  0.0214  0.2478  0.0164
 5064W        W20958   6.390  10.139   4.574  0.0069  0.1664  0.1877
 5065W        W20959   9.752  14.345   1.493 -0.0257  0.1413  0.1893
 5066W        W20960  16.027   3.416   1.788 -0.1990 -0.3458 -0.3542
 5067W        W20961   1.659  12.221  16.985 -0.0144  0.0412 -0.3827
 5068W        W20962   2.569  10.436   1.005  0.1423  0.1254  0.1619
 5069W        W20963  15.200  11.528  14.767  0.1321 -0.2102  0.1524
 5070W        W20964   5.751  15.204   2.693 -0.1587  0.1434  0.2894
 5071W        W20965   4.580   6.604   1.967  0.1112  0.2123  0.0348
 5072W        W20966   6.178   6.226  12.094  0.3595 -0.0458 -0.0540
 5073W        W20967  14.336  11.377  12.096 -0.3038  0.2142 -0.2360
 5074W        W20968  10.388   9.193   5.955  0.0536  0.0866 -0.2873
 5075W        W20969   1.297  16.784  14.578  0.0499 -0.1444  0.2248
 5076W        W20970   2.917  13.981   1.658 -0.1860 -0.1260  0.1247
 5077W        W20971  17.051   6.563   2.822 -0.0977  0.3343  0.2206
 5078W        W20972   0.078   3.040  12.858 -0.1166  0.3023  0.1504
 5079W        W20973  10.496   9.209  11.168 -0.2504 -0.1013 -0.2365
 5080W        W20974  16.955  16.206  15.356  0.1514  0.0130  0.2138
 5081W        W20975  11.969  12.194  10.360  0.0565  0.2361  0.3709
 5082W        W20976   0.403   1.579   4.540  0.0400  0.0585 -0.2462
 5083W        W20977   3.019  13.890   2.540  0.1034 -0.1678 -0.0640
 5084W        W20978   3.337  11.852   4.268  0.1454 -0.0934 -0.2412
 5085W        W20979   3.447  16.062   4.816  0.0243 -0.0341  0.4871
 5086W        W20980   3.436  15.504  12.317  0.2004 -0.3472 -0.0627
 5087W        W20981   6.123   8.764  11.848  0.2138  0.1117 -0.2181
 5088W        W20982   1.957  14.163   1.908  0.0060  0.1786 -0.1272
 5089W        W20983  16.877  11.967   0.152  0.0296 -0.0331 -0.2277
 5090W        W20984   4.775  15.036   6.342 -0.0787  0.4243  0.1723
 5091W        W20985  16.307   1.378  15.499 -0.1216 -0.2080  0.0620
 5092W        W20986   2.295   4.815  14.828  0.0513 -0.2235 -0.2012
 5093W        W20987   2.209  16.666   5.505 -0.0465 -0.1436  0.1091
 5094W        W20988  14.066  15.585   2.039 -0.1390 -0.2243 -0.0365
 5095W        W20989  16.301  10.827   2.969  0.0997 -0.0522  0.1045
 5096W        W20990   4.870  10.655  12.102 -0.3478 -0.2585  0.2624
 5097W        W20991  13.872   7.936   0.137  0.0124  0.0736 -0.0016
 5098W        W20992   9.530  17.344   4.531 -0.2188 -0.1339 -0.1683
 5099W        W20993  17.217   9.590  16.273  0.1098  0.1098 -0.1055
 5100W        W20994  15.698   9.041   0.298  0.1471  0.2916 -0.2381
 5101W        W20995  15.439  17.200   1.155  0.0680  0.0879  0.0281
 5102W        W20996   9.019   8.949  14.421  0.3225 -0.2662  0.0405
 5103W        W20997   1.672  12.754  13.937  0.0848 -0.0491 -0.1588
 5104W        W20998   5.253  10.130   2.915  0.0880 -0.1558  0.0801
 5105W        W20999  10.581  14.851   3.840  0.0540  0.2123  0.0029
 5106W        W21000  10.033  14.754  16.812  0.0200 -0.2878  0.0690
 5107W        W21001  13.136   7.990   2.719 -0.0963  0.2393  0.0953
 5108W        W21002   0.791   7.813   4.660 -0.1366 -0.4305 -0.1447
 5109W        W21003   8.909   2.486   2.735 -0.2322  0.0520 -0.2072
 5110W        W21004  12.183  12.899   4.988  0.1384 -0.0688  0.1917
 5111W        W21005   5.839   2.457   3.430  0.0549  0.0325  0.1680
 5112W        W21006   1.962  16.281  11.053  0.3479  0.1959 -0.0739
 5113W        W21007  11.776  15.616  16.125  0.1540 -0.0280  0.0443
 5114W        W21008   9.175  10.921  14.049 -0.2183 -0.2827  0.1937
 5115W        W21009   8.498   7.965   0.957  0.0793  0.4387  0.1603
 5116W        W21010  11.196   4.664   1.448  0.0156  0.2397  0.0831
 5117W        W21011   1.936  12.235   1.631 -0.1568 -0.1142  0.2269
 5118W        W21012   0.277   9.511   2.408  0.1337  0.0956  0.2296
 5119W        W21013  14.448  12.889  11.810  0.2096  0.0348  0.4180
 5120W        W21014   3.801   1.862  14.213  0.1347  0.0465 -0.0513
 5121W        W21015  10.479  13.817  13.190  0.5317  0.2049 -0.1705
 5122W        W21016  11.287   5.719   1.243 -0.0179 -0.0837  0.0195
 5123W        W21017  11.719   8.182  13.036  0.0422  0.0519  0.0729
 5124W        W21018  13.979  10.545  16.651 -0.0485  0.0203  0.1621
 5125W        W21019  12.446   7.832  17.262  0.1789  0.5122  0.1499
 5126W        W21020   7.713   1.118   1.787 -0.0477  0.1723  0.0094
 5127W        W21021   0.013  13.296   2.861  0.1786  0.3897 -0.0467
 5128W        W21022   5.932   3.845   4.636 -0.2037  0.3759  0.1232
 5129W        W21023   0.034   4.868   6.132  0.0255  0.1385  0.2782
 5130W        W21024   0.348   5.766   2.300 -0.0725 -0.4855 -0.2283
 5131W        W21025  17.223   7.194  16.656 -0.1402 -0.4417  0.2368
 5132W        W21026   4.185   7.971  12.355 -0.2899  0.5551 -0.1542
 5133W        W21027   2.674   5.852   2.998 -0.0371  0.4194  0.0929
 5134W        W21028  10.187   1.439  12.446  0.0865  0.2434 -0.0518
 5135W        W21029  10.686   3.864  16.111 -0.0894  0.0288 -0.1027
 5136W        W21030  13.243   4.860  15.877  0.5917  0.2583 -0.0163
 5137W        W21031   3.219   0.517   1.014 -0.0884 -0.2797 -0.1526
 5138W        W21032   1.089   7.399   4.019  0.2627  0.0062 -0.1497
 5139W        W21033   2.544  11.447   3.249  0.2981 -0.2056 -0.0983
 5140W        W21034  16.741   3.088  16.000  0.2188 -0.0006 -0.0321
 5141W        W21035   1.741   1.600   2.131  0.0332 -0.1430  0.0046
 5142W        W21036   8.913  10.198   1.774 -0.3883  0.2763 -0.0876
 5143W        W21037  11.372  16.236   6.145 -0.1665  0.1907 -0.1479
 5144W        W21038   6.392   8.210  15.292 -0.0276  0.1629 -0.1219
 5145W        W21039   2.745   2.154  16.873  0.1689 -0.4660 -0.0584
 5146W        W21040   2.926  13.275   4.473  0.0486  0.1229  0.0795
 5147W        W21041   6.796   6.226   5.623  0.0244 -0.2714  0.0343
 5148W        W21042  11.966  11.374  14.772  0.1056 -0.2468 -0.0456
 5149W        W21043   9.404  14.070  11.803 -0.3206  0.0276 -0.3090
 5150W        W21044   5.534   4.149  16.442  0.1390 -0.1433  0.3822
 5151W        W21045  16.915   8.685  16.910  0.0532  0.1109 -0.0645
 5152W        W21046  10.063  17.475  14.812 -0.0808 -0.0828 -0.3588
 5153W        W21047  16.149  10.245  14.765  0.1893  0.0298  0.2239
 5154W        W21048   4.673  16.810  12.673 -0.1069  0.4662  0.0299
 5155W        W21049   5.448   5.398   1.056  0.0808 -0.1690 -0.1149
 5156W        W21050   6.415   4.006   5.621  0.1461 -0.1160  0.1715
 5157W        W21051  15.801   0.634  15.306 -0.2115  0.0077 -0.0372
 5158W        W21052   3.272   1.093   2.352  0.3961  0.2160  0.0003
 5159W        W21053   7.473   6.435  13.251  0.1353  0.0581 -0.1849
 5160W        W21054   4.928   4.420   5.891 -0.1844  0.2153 -0.2673
 5161W        W21055   7.383   9.930   0.558 -0.2292  0.0338 -0.1522
 5162W        W21056  10.131   4.773   2.374  0.1502 -0.1220  0.0550
 5163W        W21057   6.823  10.099   6.100 -0.1944 -0.0031  0.1557
 5164W        W21058   8.482  10.431   2.976  0.0431  0.0707  0.0472
 5165W        W21059   6.780  12.866   4.866 -0.0637  0.2682  0.0132
 5166W        W21060   1.179   1.496  15.476 -0.1272 -0.1113  0.0591
 5167W        W21061   3.097  11.554   5.150 -0.0337  0.0059  0.1801
 5168W        W21062   2.888  17.388  13.732 -0.1937  0.0433 -0.2328
 5169W        W21063  17.598   1.562   4.432 -0.1368  0.0546  0.2202
 5170W        W21064  13.226  17.061  14.357 -0.1604 -0.0153  0.0429
 5171W        W21065   2.969  17.090   3.780  0.1804  0.0180  0.0575
 5172W        W21066   7.243  11.923   5.147  0.1339  0.1511  0.3020
 5173W        W21067  12.372   3.655  16.207 -0.2700  0.0635  0.0215
 5174W        W21068   3.946  11.282   2.840 -0.1612  0.0364  0.0541
 5175W        W21069   1.280   4.524  14.514  0.2456 -0.0508 -0.0342
 5176W        W21070   5.173  14.276  15.822  0.0977  0.0950 -0.0554
 5177W        W21071   4.047   1.727   4.001 -0.0842 -0.0450 -0.1329
 5178W        W21072   7.075  10.289  16.178 -0.1616  0.0561  0.1786
 5179W        W21073   1.281   6.075  13.527  0.1233 -0.2619 -0.1301
 5180W        W21074   9.165  12.347   1.334  0.0635 -0.1741 -0.1060
 5181W        W21075   1.279  14.311   5.580 -0.0835 -0.0544  0.1573
 5182W        W21076  17.211  14.294   5.598  0.0964  0.1057 -0.0910
 5183W        W21077  16.028   4.578  17.175  0.2852  0.0213 -0.1027
 5184W        W21078  10.550   2.862  12.399  0.0871 -0.0812 -0.1017
 5185W        W21079   4.948   9.393  15.755  0.0066  0.1498  0.0815
 5186W        W21080   5.939  11.215  12.924  0.0575  0.1130  0.0328
 5187W        W21081   2.174   8.943   1.363  0.0517 -0.1386 -0.4404
 5188W        W21082   7.035   4.470   1.848  0.1170 -0.1305  0.2460
 5189W        W21083   4.596  13.585   1.378  0.3012 -0.0124 -0.0552
 5190W        W21084  11.180  16.922  12.309  0.2385 -0.3035  0.2313
 5191W        W21085  11.892   1.245  14.596  0.0140 -0.0586 -0.2685
 5192W        W21086   2.143   8.546   6.380  0.0700 -0.1003 -0.2584
 5193W        W21087   8.672   8.340   2.495  0.0522  0.0255 -0.0956
 5194W        W21088   3.854   9.466   6.018 -0.0662  0.0741 -0.1484
 5195W        W21089   2.806  11.763  12.347  0.3611 -0.2744 -0.0970
 5196W        W21090  14.027  13.764  12.144 -0.2001  0.2456  0.2509
 5197W        W21091   6.061   1.113   2.846  0.0818  0.2782  0.2256
 5198W        W21092  14.417  12.242   4.251  0.1402  0.1232 -0.3032
 5199W        W21093   7.030   7.340   3.460  0.1776  0.0363  0.0304
 5200W        W21094  17.341  12.778   3.356 -0.0574  0.1988 -0.0110
 5201W        W21095  11.756  12.318  13.884  0.2488  0.1833  0.0230
 5202W        W21096   8.648  15.358  15.604  0.0351  0.0978 -0.1207
 5203W        W21097  15.004   9.259   3.404 -0.0078  0.0018  0.4191
 5204W        W21098  12.242   1.666  11.699 -0.0993 -0.1570 -0.2489
 5205W        W21099   1.919   8.493  16.932  0.3462 -0.0203  0.0876
 5206W        W21100   7.501   9.320  15.612 -0.2249 -0.1818  0.4749
 5207W        W21101  15.042   3.205  15.041  0.1611  0.0484 -0.1743
 5208W        W21102   5.975   1.090   2.267  0.1333 -0.2712 -0.0665
 5209W        W21103   4.185  16.427   5.055  0.0544  0.3237  0.3656
 5210W        W21104   3.003  14.633   0.819 -0.2069  0.0107 -0.0218
 5211W        W21105   1.648   9.231   3.196  0.0929  0.0391 -0.2389
 5212W        W21106  14.021   1.272  11.599  0.0890 -0.2813  0.0461
 5213W        W21107   6.817   4.725   5.469 -0.6052  0.1698 -0.0063
 5214W        W21108   5.746   7.423   5.053  0.1625 -0.2001 -0.3062
 5215W        W21109   5.638   5.861   1.280  0.6369 -0.0080 -0.2089
 5216W        W21110   5.770  15.404   0.220 -0.1403  0.3752 -0.3020
 5217W        W21111  17.051  12.231  13.566 -0.1501 -0.0138 -0.0839
 5218W        W21112   2.761   2.059  12.782  0.3835 -0.1239  0.0311
 5219W        W21113   3.922  14.667  13.462 -0.0216 -0.1042  0.1545
 5220W        W21114  11.066   2.806  15.472  0.0333 -0.0728 -0.0312
 5221W        W21115   3.985   4.250   1.674  0.3120  0.0131 -0.0226
 5222W        W21116   8.909  11.895  13.381  0.1159  0.2657 -0.3054
 5223W        W21117  14.237  11.851   3.234  0.2416  0.3612 -0.0378
 5224W        W21118  10.741  11.157  16.851 -0.2255 -0.0681 -0.0019
 5225W        W21119   0.072   7.445   2.426 -0.0504 -0.3108 -0.1737
 5226W        W21120   7.249   8.596  15.807  0.1270  0.0274 -0.1700
 5227W        W21121  11.109   1.124  16.638  0.1602  0.3337  0.2930
 5228W        W21122  13.959   8.765   5.101  0.2036 -0.2930  0.1072
 5229W        W21123   4.744   7.061   5.182  0.4133  0.1509 -0.2000
 5230W        W21124  14.555   2.839   0.616 -0.0243 -0.0829  0.1985
 5231W        W21125   8.127  13.253  14.304 -0.1473 -0.1741 -0.0580
 5232W        W21126   9.188  11.311   1.147  0.2216 -0.2657  0.1428
 5233W        W21127  17.552   1.436   0.479  0.0752  0.3897 -0.0845
 5234W        W21128   3.782   7.880   5.372  0.2612  0.0034 -0.0752
 5235W        W21129  13.142  14.347  14.113 -0.0493  0.1225 -0.2986
 5236W        W21130  10.364  15.897   4.967  0.0584  0.1111 -0.2460
 5237W        W21131  16.814   0.569  12.687  0.0134  0.0061 -0.0006
 5238W        W21132   0.250   1.750   5.953  0.0847  0.1178  0.0105
 5239W        W21133   9.839   8.518  11.321 -0.3025  0.0966 -0.0504
 5240W        W21134   2.680  16.366  16.108 -0.1139 -0.4846  0.1417
 5241W        W21135   4.130  14.884  13.917  0.3545 -0.0171 -0.1211
 5242W        W21136   8.353   3.128  16.501 -0.1873  0.2047 -0.0406
 5243W        W21137   5.262  16.778  15.827 -0.1511 -0.2344 -0.4854
 5244W        W21138   2.068  17.420   0.102 -0.1632 -0.0722 -0.0577
 5245W        W21139  13.457   4.924   0.414 -0.2101  0.2555  0.0207
 5246W        W21140   7.044   7.345   5.547  0.1511 -0.1856 -0.0032
 5247W        W21141  12.595   6.964   4.293  0.0390 -0.0922 -0.0171
 5248W        W21142   8.222   4.761  12.726  0.1232  0.1763  0.0093
 5249W        W21143   3.841  10.357  13.856  0.1628  0.0406 -0.2780
 5250W        W21144   8.226   8.472  15.841  0.3838 -0.2461 -0.3875
 5251W        W21145  10.671   6.883   1.261  0.2156 -0.0200  0.0488
 5252W        W21146   9.180  12.976   0.244 -0.0968 -0.1670 -0.2040
 5253W        W21147  16.738   6.349   3.932 -0.0426 -0.0738 -0.1312
 5254W        W21148   2.380   8.132   0.321  0.1360 -0.0677 -0.1010
 5255W        W21149  15.516   1.550  14.416 -0.1551  0.2648  0.2816
 5256W        W21150  13.563   9.562  15.417  0.2912  0.1346  0.2724
 5257W        W21151   2.534  11.339   2.549  0.2944 -0.0047 -0.1326
 5258W        W21152   3.128  12.292   5.359 -0.1011 -0.1590  0.0498
 5259W        W21153   9.351   4.432  17.271 -0.1784  0.0110 -0.2082
 5260W        W21154   5.761  15.227   2.159 -0.0311  0.0819 -0.3029
 5261W        W21155   4.285   9.222   5.610 -0.1672 -0.0274 -0.0365
 5262W        W21156   9.332  13.896   3.336 -0.1189 -0.0970 -0.0163
 5263W        W21157  10.841  13.755   0.244  0.3811 -0.2735 -0.0976
 5264W        W21158  15.670  13.578   0.954 -0.3144  0.0832  0.1152
 5265W        W21159   3.560   0.335  14.861  0.1255 -0.2191  0.2072
 5266W        W21160  11.379  17.357  12.116 -0.4362  0.2635  0.0202
 5267W        W21161   2.468   4.933   4.108  0.2663 -0.0735  0.1435
 5268W        W21162  14.460   7.821   2.257 -0.2104  0.2528  0.0486
 5269W        W21163  10.638   3.981  16.867 -0.4410  0.0349  0.2274
 5270W        W21164   4.004   8.006  16.238 -0.1774  0.2808  0.0688
 5271W        W21165   4.006   0.703  14.916  0.3196 -0.0610 -0.3190
 5272W        W21166   1.380   1.315   0.194 -0.1213 -0.3501 -0.0032
 5273W        W21167  15.358   7.624   1.430  0.0615 -0.2962 -0.2658
 5274W        W21168   1.600  16.250  17.228 -0.0416  0.1714  0.3454
 5275W        W21169  14.063  14.477  13.147 -0.0857  0.0209 -0.2347
 5276W        W21170   7.092  13.132   1.384 -0.0273 -0.1832  0.0080
 5277W        W21171  13.110  12.275  13.828  0.0503  0.2798  0.4545
 5278W        W21172  11.193   5.178  14.288 -0.1073 -0.0552  0.0798
 5279W        W21173  17.464   1.912   1.128  0.3122  0.1911 -0.0987
 5280W        W21174   3.801  15.673  14.402 -0.3113  0.0475 -0.1456
 5281W        W21175   0.078   2.266  13.475  0.0781  0.0209  0.3547
 5282W        W21176  15.263   3.689  15.167 -0.0800  0.0598  0.1519
 5283W        W21177  16.207  17.020   4.189 -0.0405 -0.1218  0.0917
 5284W        W21178   1.358   8.225  15.168  0.0540  0.3875  0.5227
 5285W        W21179   7.523   2.282   0.902 -0.1828  0.4114  0.1118
 5286W        W21180   3.350  16.907   4.552 -0.1750 -0.2352 -0.4442
 5287W        W21181   4.726   5.168   2.029 -0.1023 -0.1286  0.2664
 5288W        W21182  16.644  10.878  14.179  0.1599  0.0044 -0.0352
 5289W        W21183  11.143  10.083  10.895  0.1962 -0.0523  0.0043
 5290W        W21184  16.507   2.957  17.003  0.2984 -0.1164 -0.2176
 5291W        W21185   9.864  11.673  11.582 -0.0957 -0.0852  0.0354
 5292W        W21186  10.539  16.537  15.200  0.0792 -0.2029  0.0793
 5293W        W21187  13.022   4.060  15.968  0.5055  0.2336  0.1058
 5294W        W21188   2.205   9.028  13.581  0.2233 -0.0041  0.1028
 5295W        W21189   3.243   9.125  15.548 -0.0605  0.1824 -0.0760
 5296W        W21190  10.158   9.779   1.018 -0.1414  0.2752  0.3029
 5297W        W21191  13.898   7.686  13.971 -0.0273 -0.2445 -0.1495
 5298W        W21192   0.349  14.388   2.160 -0.0092  0.1638 -0.0551
 5299W        W21193  12.097  17.299   4.199  0.0867 -0.1719 -0.1573
 5300W        W21194  11.433  12.796  12.691  0.5702  0.1429  0.2504
 5301W        W21195  14.360   1.098  17.028  0.0990 -0.3146 -0.1311
 5302W        W21196   2.937   9.202   5.421  0.0013  0.0266 -0.0886
 5303W        W21197  12.721   9.329  15.811 -0.0126 -0.0669  0.0776
 5304W        W21198   7.398  11.952   0.880 -0.1679 -0.2067  0.0656
 5305W        W21199  14.980  10.599   0.131  0.0256  0.2518  0.0475
 5306W        W21200   1.012   4.453   5.106  0.0300  0.1277  0.0228
 5307W        W21201  14.765  17.044   3.757 -0.0508  0.0379 -0.3120
 5308W        W21202  15.137  13.775   0.652  0.1012  0.0790 -0.0029
 5309W        W21203  16.699   8.392  11.005 -0.3155  0.2037 -0.1321
 5310W        W21204  14.194  10.624  15.827 -0.1709 -0.0611 -0.1011
 5311W        W21205   2.916  15.207  16.394 -0.1934  0.0844  0.4483
 5312W        W21206  14.529  14.829  15.909  0.2338  0.1837  0.0130
 5313W        W21207  10.247   2.621   1.778 -0.3434 -0.1466 -0.0220
 5314W        W21208  10.033   3.353   1.843 -0.0086  0.1902  0.0062
 5315W        W21209   4.431  10.729  15.573 -0.0332  0.1772 -0.3144
 5316W        W21210   0.643  14.788   2.267  0.0625  0.0355  0.0629
 5317W        W21211   5.395  12.835   4.933  0.2626 -0.2232 -0.1466
 5318W        W21212   0.914  13.038  13.513  0.1163  0.1539 -0.0971
 5319W        W21213   1.442  16.990  13.684 -0.1490 -0.1653 -0.0982
 5320W        W21214  14.489   2.031   5.524  0.1902 -0.1540  0.2979
 5321W        W21215   7.065   4.089   0.202  0.1727 -0.2813 -0.1152
 5322W        W21216   9.531  13.992  14.160 -0.3973 -0.0221  0.1661
 5323W        W21217  14.435   8.021   1.781  0.1770  0.1366 -0.2507
 5324W        W21218  17.262  12.297  12.969  0.0083 -0.0009 -0.1154
 5325W        W21219   0.691   0.699   2.084 -0.0785  0.0133 -0.0848
 5326W        W21220   3.210   0.032   1.199  0.0412  0.2261  0.1293
 5327W        W21221  16.971  14.995   4.633 -0.2566  0.1000  0.2858
 5328W        W21222   5.596   9.140  12.601  0.1971  0.0232  0.0811
 5329W        W21223  14.730   5.031  17.035  0.0638  0.3128 -0.2876
 5330W        W21224  16.637  13.404  12.235  0.1132 -0.0522  0.1936
 5331W        W21225   1.735   7.923   4.821 -0.0041 -0.1415 -0.0952
 5332W        W21226   3.113   4.824   4.853  0.1570  0.0205  0.1595
 5333W        W21227  14.108   3.854  14.659 -0.0887  0.3125  0.0800
 5334W        W21228  14.407   9.171  11.255 -0.2480 -0.2902 -0.1362
 5335W        W21229  15.173   4.489   2.370 -0.0296 -0.0234 -0.0345
 5336W        W21230  12.095   5.704   3.711  0.0689  0.5905  0.0323
 5337W        W21231   9.659   2.738   0.279  0.3581  0.0181 -0.4025
 5338W        W21232   4.002   7.786  13.616 -0.2777  0.1550 -0.2447
 5339W        W21233   2.098   3.891   3.750  0.0051  0.1767  0.0482
 5340W        W21234  10.367   5.790  13.823 -0.0604 -0.2713  0.1959
 5341W        W21235   7.067  14.893   0.051 -0.1528 -0.0459 -0.3677
 5342W        W21236  11.090   0.684   1.829  0.1543  0.4290  0.0968
 5343W        W21237   9.796   6.306   4.115 -0.0806 -0.0199  0.1741
 5344W        W21238  16.699  13.505   0.607 -0.0065 -0.0074  0.2065
 5345W        W21239   7.823   6.713   1.451  0.2901 -0.0527 -0.1535
 5346W        W21240   0.016   4.076   1.590  0.0568  0.1422  0.0254
 5347W        W21241  13.121   1.857  11.981  0.1521 -0.1484  0.1611
 5348W        W21242   6.018  12.299  16.491  0.2027  0.0537 -0.1998
 5349W        W21243  14.595   4.508  12.688  0.0302 -0.0533 -0.0250
 5350W        W21244  14.685   9.761   3.203  0.0769  0.0607 -0.3856
 5351W        W21245  14.296   2.033  13.261 -0.0517  0.0810 -0.0434
 5352W        W21246   3.074   7.457  12.276  0.0999  0.0447 -0.0835
 5353W        W21247   7.119   8.993  16.280  0.1927 -0.1303 -0.0065
 5354W        W21248   5.027   1.266  16.878 -0.1288 -0.2876 -0.1461
 5355W        W21249  11.377   7.156  13.741 -0.0510 -0.0797  0.0311
 5356W        W21250   5.466   9.734  15.399  0.1555  0.1770  0.0826
 5357W        W21251  15.517  16.963   4.773  0.0711  0.1035 -0.2889
 5358W        W21252  13.746   6.715   3.561  0.1576  0.0492  0.2635
 5359W        W21253   6.916   0.811  15.106  0.3075  0.0353  0.0612
 5360W        W21254  16.948  11.891   4.475 -0.0439 -0.1973  0.1371
 5361W        W21255  11.079  12.963  14.471 -0.4202  0.0678  0.2601
 5362W        W21256   7.139  15.569   5.184  0.3119  0.2019 -0.0276
 5363W        W21257   3.783   5.200   6.217 -0.0517  0.0515  0.2259
 5364W        W21258   6.213  13.215   5.442 -0.1232  0.4050 -0.1228
 5365W        W21259  11.889   0.831  12.792  0.1346 -0.0181 -0.1086
 5366W        W21260   5.307  10.919  12.334 -0.2017 -0.1878  0.1709
 5367W        W21261  13.277   3.297   4.778  0.0053 -0.0734  0.2846
 5368W        W21262   6.104   3.567   3.769 -0.0311  0.2541  0.3570
 5369W        W21263  10.170   5.145  15.255 -0.1629 -0.1285  0.0614
 5370W        W21264  13.738   0.002   1.761 -0.1905  0.2229 -0.3606
 5371W        W21265  14.602   8.578   4.570 -0.1101 -0.0321 -0.1532
 5372W        W21266   3.630   5.737   2.861 -0.1542  0.0568  0.0930
 5373W        W21267   8.531   1.739   4.936 -0.3313 -0.1848  0.1486
 5374W        W21268  14.231   0.481  16.453 -0.0853 -0.0481  0.0929
 5375W        W21269   9.945   8.704   2.023  0.0741 -0.0159  0.1092
 5376W        W21270  11.977  13.731  12.568  0.0329 -0.0049 -0.1188
 5377W        W21271   4.019  16.815  16.807 -0.1949 -0.0321  0.0359
 5378W        W21272   5.305   4.073   6.680  0.1547  0.0271 -0.1579
 5379W        W21273   5.087   9.425   2.578 -0.1081 -0.1424  0.1064
 5380W        W21274  12.663   9.490   0.651  0.1940 -0.1489 -0.2778
 5381W        W21275   8.573  14.354  13.895 -0.1532  0.2400  0.2565
 5382W        W21276  16.434  13.886   0.365  0.0360  0.1581  0.1359
 5383W        W21277  11.452   7.385   5.947 -0.1802 -0.0298 -0.0485
 5384W        W21278   7.794  12.317   2.267 -0.1229  0.2866 -0.0496
 5385W        W21279   2.413   9.044   4.545 -0.0101 -0.0815  0.1444
 5386W        W21280  17.150   4.079   2.994  0.1759  0.0954  0.0895
 5387W        W21281  13.972   4.255  14.458 -0.1608  0.0206 -0.1069
 5388W        W21282   3.762  12.547   2.368  0.2984 -0.1320  0.1069
 5389W        W21283  14.374   2.884  14.339  0.2017 -0.1665  0.0677
 5390W        W21284  12.325  17.327  16.102  0.1156  0.1052 -0.0572
 5391W        W21285  13.543   8.191  17.155  0.4524  0.3221 -0.0384
 5392W        W21286  12.574   6.315   3.700  0.3800 -0.0977  0.0742
 5393W        W21287   0.124  14.929  13.166 -0.0539  0.2912  0.0246
 5394W        W21288  14.068  16.170  12.118 -0.4344 -0.0153  0.1034
 5395W        W21289  17.313   4.789  14.662 -0.1675 -0.0294 -0.0816
 5396W        W21290   2.867  16.983   4.568  0.1612 -0.1546 -0.0108
 5397W        W21291  11.163   5.772   1.796  0.0354 -0.1605 -0.1772
 5398W        W21292  11.616   3.908  11.687  0.2044  0.0081 -0.0364
 5399W        W21293   5.761   1.424   1.524 -0.0751 -0.0048  0.0303
 5400W        W21294  14.752  10.036   2.189 -0.1556  0.0327  0.1516
 5401W        W21295   1.783  12.973   2.357 -0.1290  0.0172  0.3195
 5402W        W21296   1.620  13.875   2.485 -0.2391 -0.0909 -0.6467
 5403W        W21297   4.349   9.805   6.678 -0.0417 -0.1616  0.2387
 5404W        W21298  14.982  17.415   5.453 -0.0037 -0.1169 -0.1362
 5405W        W21299   1.314   1.478   4.855  0.2099 -0.1922 -0.2565
 5406W        W21300  14.327   8.830  12.719  0.0210  0.2850  0.2631
 5407W        W21301   8.019  13.207  13.600  0.0006  0.0398 -0.1257
 5408W        W21302  15.630   4.049  17.143  0.0697 -0.4147  0.0567
 5409W        W21303   9.864  14.157   0.140  0.0733 -0.0365  0.1538
 5410W        W21304  15.154  10.824  16.941 -0.2066  0.1031 -0.0371
 5411W        W21305   2.351  16.088   4.614 -0.0569  0.2169  0.0433
 5412W        W21306  17.184   0.214  13.384 -0.2675  0.0584 -0.0078
 5413W        W21307  15.853   8.918  14.920 -0.0613 -0.3970 -0.0531
 5414W        W21308  15.892   2.237   5.831 -0.2547 -0.1424 -0.1571
 5415W        W21309  12.012  14.132   5.057  0.0255  0.3616  0.3038
 5416W        W21310  12.507   8.888   2.492  0.0688 -0.1052  0.2807
 5417W        W21311   4.715   1.176   4.506 -0.1070 -0.0260  0.1647
 5418W        W21312   3.828   8.857   3.912  0.1711  0.0695 -0.2263
 5419W        W21313  15.307   4.039  13.475  0.1706 -0.0553 -0.1556
 5420W        W21314   1.741  15.870   0.231 -0.1730  0.0017 -0.0464
 5421W        W21315   5.646   2.125   4.276 -0.2364  0.0202  0.0256
 5422W        W21316  15.777  16.377   1.621  0.2047 -0.0923  0.0970
 5423W        W21317  10.956  11.282  16.263 -0.2847  0.4767 -0.0540
 5424W        W21318   2.939  11.172  16.766 -0.2245 -0.1803  0.2431
 5425W        W21319  17.006   1.574   4.658 -0.0715  0.0741  0.1212
 5426W        W21320  15.965   8.088  14.177 -0.0374 -0.0368  0.2689
 5427W        W21321   8.173   7.115  16.225  0.1362 -0.0541 -0.1659
 5428W        W21322   9.802   2.602   5.242 -0.0456  0.2162  0.1885
 5429W        W21323  17.136   1.831  16.341 -0.3419 -0.0244 -0.1573
 5430W        W21324   9.069  15.108   4.833 -0.3517 -0.2778  0.0291
 5431W        W21325   1.202   5.964   1.047 -0.0723 -0.0808 -0.1209
 5432W        W21326  11.117  13.399   4.317  0.0549 -0.2415 -0.0834
 5433W        W21327   5.464   8.874  13.920 -0.2774 -0.2979  0.2675
 5434W        W21328   8.502   3.268  13.688 -0.2147  0.2296  0.3429
 5435W        W21329   4.080  13.066  16.229  0.0061 -0.1554  0.4650
 5436W        W21330   4.961   5.014  13.227  0.2496 -0.0203  0.1131
 5437W        W21331   7.393   1.877   4.034 -0.0386 -0.2056  0.0649
 5438W        W21332  11.686   9.433  12.527 -0.0289 -0.2573  0.1452
 5439W        W21333  11.628  10.736  16.623  0.1972  0.2157 -0.0653
 5440W        W21334   2.778   9.011  15.339 -0.1436  0.0610 -0.0317
 5441W        W21335   1.735  12.090   5.300  0.0217 -0.1407  0.2366
 5442W        W21336  12.606   7.606   4.715  0.1585 -0.1760 -0.2517
 5443W        W21337  17.120   6.089  12.789  0.0006  0.1033 -0.1035
 5444W        W21338   5.097   6.099  14.809 -0.0794  0.2098  0.0077
 5445W        W21339   1.270   5.948  16.755  0.2346  0.1119 -0.1441
 5446W        W21340  16.598  16.038   5.577  0.0553  0.0954 -0.0485
 5447W        W21341   3.400   6.958  14.033 -0.1552 -0.1924 -0.1128
 5448W        W21342   9.649   6.604  17.154  0.1589  0.2121  0.5433
 5449W        W21343  14.635   5.002  15.327 -0.2737 -0.0797 -0.0718
 5450W        W21344   4.513  12.327   1.911 -0.2211 -0.2725 -0.1752
 5451W        W21345   1.415   9.539  13.273 -0.3360 -0.1380  0.3097
 5452W        W21346   7.426  10.235  11.685 -0.4350 -0.1151 -0.0529
 5453W        W21347   5.289  10.533   0.815 -0.0241  0.3207  0.1585
 5454W        W21348   1.444   3.202   3.548  0.1866 -0.0092 -0.0028
 5455W        W21349   5.994  11.991   3.115 -0.0175  0.0190  0.1641
 5456W        W21350   5.591   5.296   4.321  0.0371  0.0125 -0.2182
 5457W        W21351   8.065  14.354   3.161  0.0472 -0.1706  0.0012
 5458W        W21352   3.629   3.705  16.413  0.1254  0.0505  0.1367
 5459W        W21353   2.805   6.903   6.859  0.1096  0.1380  0.2385
 5460W        W21354   6.037   8.232  14.387  0.1478  0.0511 -0.1281
 5461W        W21355  17.249   6.838   5.642 -0.3694  0.0534 -0.0837
 5462W        W21356   4.287   5.483   1.729 -0.1606 -0.2127  0.0824
 5463W        W21357   8.074   7.403   4.776 -0.0529 -0.0383 -0.1860
 5464W        W21358   0.568   5.419  13.908  0.2753  0.1851 -0.0219
 5465W        W21359  17.506   0.984   5.775 -0.1140 -0.3152  0.3427
 5466W        W21360  16.381  13.659  11.831  0.1599  0.2007 -0.0578
 5467W        W21361   0.540   9.610  14.514  0.1376  0.1497  0.0979
 5468W        W21362  13.019   2.362  12.096  0.2559 -0.1725 -0.1626
 5469W        W21363   5.225  13.236  13.523  0.0783 -0.0095  0.0856
 5470W        W21364   4.905   4.720   2.167 -0.2171  0.0364 -0.0538
 5471W        W21365   8.659  10.668   0.530 -0.1074 -0.3674 -0.2207
 5472W        W21366   7.550   1.618  14.741 -0.0638  0.0398 -0.4675
 5473W        W21367   0.509   1.271  14.907  0.2075 -0.1539 -0.3865
 5474W        W21368   2.115   4.416   1.574 -0.4165  0.3061  0.0666
 5475W        W21369  15.641   8.998  11.592  0.0346 -0.2341  0.0715
 5476W        W21370   1.199  16.580   1.499  0.0898  0.2288  0.2105
 5477W        W21371   9.564   0.696  12.712 -0.0623  0.0120  0.0955
 5478W        W21372   3.397  10.073  13.696 -0.0639  0.3134  0.2026
 5479W        W21373   4.943  10.013   1.893 -0.0902 -0.3846  0.1065
 5480W        W21374   8.364  16.075  14.915  0.2385  0.0248  0.0142
 5481W        W21375   9.013  16.330   4.220  0.2658 -0.3247  0.2644
 5482W        W21376   3.419  10.740  15.281 -0.0171  0.0498  0.3788
 5483W        W21377  10.066   4.630   0.967  0.3449 -0.0895 -0.0550
 5484W        W21378   4.539   1.419   4.912 -0.0937 -0.0852 -0.0776
 5485W        W21379   3.328   1.170   0.920  0.1815  0.1749 -0.4519
 5486W        W21380   8.912  15.574  14.363 -0.2707 -0.0032  0.0945
 5487W        W21381   5.793  16.572  16.654 -0.0128 -0.0048  0.2440
 5488W        W21382   1.614   4.474  16.802  0.1239  0.4115 -0.0387
 5489W        W21383  17.387   2.020   3.112  0.1780  0.0760  0.3195
 5490W        W21384   3.865   9.403   4.791  0.1131 -0.1191  0.1089
 5491W        W21385   9.300   7.128   2.487 -0.0579 -0.0974 -0.1005
 5492W        W21386   2.099  11.709  11.769  0.0995  0.1384 -0.2440
 5493W        W21387  13.723   8.836  15.886  0.2513 -0.1335  0.0545
 5494W        W21388   7.078  14.161   5.099 -0.0181  0.1390  0.1326
 5495W        W21389   7.745   3.306  15.638  0.1528  0.3074 -0.0281
 5496W        W21390  16.703   5.763   5.474  0.0482 -0.3314 -0.1484
 5497W        W21391   7.596   2.330   1.969 -0.1067  0.0217  0.1235
 5498W        W21392   6.359   6.661   4.239 -0.1292  0.1883  0.0715
 5499W        W21393  12.337  13.833  16.243 -0.0400 -0.1107  0.2210
 5500W        W21394  14.233   9.405  14.016 -0.3277 -0.1000  0.5210
 5501W        W21395   9.896  11.667   4.670 -0.1025 -0.0299 -0.2649
 5502W        W21396   5.888  13.555  16.281  0.2361  0.2289 -0.4262
 5503W        W21397  15.846  16.043   5.140 -0.0476 -0.0670 -0.4018
 5504W        W21398  10.745   3.171  12.836  0.1756 -0.0207  0.0581
 5505W        W21399  12.466   1.311   2.354 -0.1207  0.3275 -0.2750
 5506W        W21400   6.832  12.322  13.720  0.0953  0.2494  0.2884
 5507W        W21401  15.206  10.618   6.472 -0.1512 -0.1203 -0.2247
 5508W        W21402  13.251  13.516   0.227  0.0211 -0.4171  0.0119
 5509W        W21403   5.821   2.156   5.922  0.0549  0.3483  0.1331
 5510W        W21404   9.569  15.838   1.795 -0.0899  0.0122 -0.1142
 5511W        W21405   5.770   5.153   5.491 -0.0560 -0.2080  0.2138
 5512W        W21406   7.508  13.782   1.930  0.1307 -0.0661 -0.3085
 5513W        W21407  17.578   6.823  16.495 -0.1424 -0.1594 -0.1400
 5514W        W21408  12.496   0.378   2.395 -0.2334  0.3646  0.0794
 5515W        W21409  10.934  12.726  13.615 -0.0290  0.4848  0.0499
 5516W        W21410  12.766  11.156   1.533 -0.0032 -0.2100  0.1858
 5517W        W21411   2.103   6.653  12.319 -0.1461 -0.0045  0.0838
 5518W        W21412  15.545   1.949   4.388  0.1382  0.0182  0.0305
 5519W        W21413  10.635   0.881  15.156 -0.2525 -0.0449  0.3253
 5520W        W21414   4.820  13.956  11.943 -0.0244  0.1835 -0.0397
 5521W        W21415  10.366   8.566   1.623  0.0570 -0.0293 -0.3081
 5522W        W21416   5.994  10.647  17.016 -0.1313  0.3259 -0.4782
 5523W        W21417  14.904   8.808  14.791  0.1523 -0.0171 -0.1648
 5524W        W21418   5.046  13.773  12.373  0.0100 -0.2094 -0.1205
 5525W        W21419  10.600   6.881   5.847  0.0987  0.1353  0.0181
 5526W        W21420   1.828   8.224   0.997 -0.1471  0.0893 -0.0478
 5527W        W21421   0.442  10.415  14.234 -0.4458  0.5561  0.0099
 5528W        W21422   3.555   9.853   5.897 -0.3018 -0.3242  0.2845
 5529W        W21423   8.823  12.296   0.653  0.1045  0.0774  0.1296
 5530W        W21424   3.127  10.340   1.006 -0.2559  0.0268  0.0143
 5531W        W21425   2.818   7.386   2.450  0.1817 -0.0265 -0.0262
 5532W        W21426   1.791  10.122  16.953  0.0862  0.2601 -0.1217
 5533W        W21427   2.563  12.771   4.940  0.2639  0.0929 -0.1039
 5534W        W21428   2.144   6.091   3.119  0.0797  0.1274  0.0835
 5535W        W21429   4.186   1.202   5.579 -0.1131 -0.1875 -0.2562
 5536W        W21430   1.612   6.662   1.538 -0.0472 -0.1819  0.0924
 5537W        W21431  16.817   0.509  12.008 -0.0374  0.0239  0.0232
 5538W        W21432   7.129   4.296  14.014  0.0656 -0.0924  0.4163
 5539W        W21433   3.960   8.108  15.051 -0.4272 -0.1395  0.1508
 5540W        W21434  17.396   2.657   3.712 -0.0866 -0.0602  0.1365
 5541W        W21435  11.684   2.714  17.080 -0.0189 -0.1866 -0.1303
 5542W        W21436  15.520  17.106  13.920 -0.0871 -0.0166 -0.1464
 5543W        W21437  11.038   4.403  13.591  0.1191 -0.2659  0.2211
 5544W        W21438   1.875   3.116   0.916  0.0567 -0.0038 -0.1700
 5545W        W21439  14.904   1.154   0.036  0.0382 -0.0536 -0.1453
 5546W        W21440   8.421   0.115  14.646  0.1918 -0.0068 -0.1633
 5547W        W21441  10.161  11.353  16.173  0.3797  0.0008 -0.2060
 5548W        W21442   7.318  15.876  13.639 -0.2599  0.1122 -0.2405
 5549W        W21443   8.072  10.285  16.542 -0.1316  0.0795  0.0293
 5550W        W21444   2.589   2.065  15.278 -0.0718 -0.1020 -0.0978
 5551W        W21445   5.506  14.607  16.005 -0.0564 -0.0533 -0.0901
 5552W        W21446   6.466  12.838  12.499  0.0281 -0.2187 -0.1636
 5553W        W21447  17.042   0.555   1.869 -0.0366  0.0542  0.0954
 5554W        W21448  11.896  12.680   1.458 -0.0540 -0.0610  0.1933
 5555W        W21449   4.179  17.211   3.098 -0.0788 -0.0121 -0.1011
 5556W        W21450  12.665  10.952  16.424 -0.0676 -0.0962 -0.2294
 5557W        W21451  10.438   8.809  13.661  0.0403 -0.1726  0.0970
 5558W        W21452   8.391   1.046   3.473 -0.1691 -0.0877  0.0720
 5559W        W21453   8.951  15.654   0.079 -0.1843  0.3027 -0.1518
 5560W        W21454   9.483   5.262  17.225 -0.1480 -0.4760 -0.1751
 5561W        W21455   2.131  10.438  16.677 -0.1868 -0.2339 -0.0433
 5562W        W21456   6.611  15.031   4.536  0.2362  0.0452 -0.3018
 5563W        W21457  15.882   9.519   1.645  0.0320 -0.1844  0.0878
 5564W        W21458  10.817   5.213  16.660 -0.3528  0.0914  0.2469
 5565W        W21459   9.719  10.081  13.145 -0.3224  0.2031  0.3417
 5566W        W21460   5.212   3.455   5.274 -0.1397 -0.1171 -0.2702
 5567W        W21461   7.223  14.414  13.787  0.2041 -0.1574 -0.1527
 5568W        W21462   0.892   1.778   5.281 -0.1395  0.2900 -0.0589
 5569W        W21463  16.652   3.394  17.288 -0.1211  0.2805  0.2455
 5570W        W21464  10.716   5.637  17.237  0.1430  0.0994 -0.0869
 5571W        W21465   8.073   3.604   0.884  0.2876  0.1547  0.0061
 5572W        W21466   5.251  10.720   3.583 -0.4466 -0.1131  0.0778
 5573W        W21467   9.294   2.729   2.410 -0.2596 -0.1503 -0.1693
 5574W        W21468   7.661   2.832   4.694 -0.0556 -0.0643  0.0805
 5575W        W21469  16.852   9.363   1.406  0.2815  0.0376  0.1489
 5576W        W21470  13.436   9.103  15.586  0.1914 -0.2247  0.2512
 5577W        W21471   4.506   1.464   1.923  0.1042  0.0656  0.3303
 5578W        W21472  16.681   9.303   0.924 -0.1135  0.1690  0.1928
 5579W        W21473   4.142  16.175   3.397  0.2056 -0.0468 -0.2015
 5580W        W21474   7.760   8.603   0.178 -0.1607 -0.0445  0.0092
 5581W        W21475   8.695  16.596  17.049 -0.2506  0.1455  0.1461
 5582W        W21476   6.834  17.388   0.334  0.1090 -0.0094 -0.2636
 5583W        W21477   0.665  15.339   4.674 -0.0029 -0.2241  0.1618
 5584W        W21478   6.621   5.232  16.265 -0.1307 -0.1849  0.1623
 5585W        W21479  16.905  14.105   0.066  0.3047  0.0069 -0.2239
 5586W        W21480   7.961   2.429  14.910  0.1182  0.3944 -0.2245
 5587W        W21481  14.729  13.292   6.537  0.2139 -0.1711 -0.1191
 5588W        W21482   9.668   1.007  14.509 -0.0909  0.1674 -0.2144
 5589W        W21483   4.203  14.197   5.211  0.2211  0.1495 -0.0236
 5590W        W21484   1.780  15.961  13.784 -0.1550 -0.0965  0.1923
 5591W        W21485   4.538   4.072   0.374  0.0239 -0.0018 -0.2506
 5592W        W21486  10.060   0.865   5.714  0.0355 -0.0670  0.0185
 5593W        W21487  16.784   5.774   0.444  0.1350  0.2882 -0.1869
 5594W        W21488   9.520   4.138   4.452 -0.2963  0.0101 -0.1664
 5595W        W21489   0.544  15.649   2.422  0.1256  0.0976  0.1694
 5596W        W21490   3.919   2.664   1.524  0.2085 -0.1952 -0.0491
 5597W        W21491  10.115  16.132   0.342 -0.1856 -0.0566 -0.0908
 5598W        W21492  15.311   1.051   5.001  0.0953 -0.0077 -0.0305
 5599W        W21493  15.117  12.984  12.992  0.1496  0.4020  0.1083
 5600W        W21494   6.106   0.156   1.578  0.2157 -0.1224  0.1708
 5601W        W21495   8.394  17.218  15.944  0.2042 -0.0984  0.0350
 5602W        W21496  15.057   7.369  12.425 -0.1865 -0.1834 -0.0818
 5603W        W21497  17.471   4.410  13.963 -0.1254  0.3659 -0.1655
 5604W        W21498   2.601   9.749  17.148 -0.1689  0.0283 -0.4156
 5605W        W21499   7.194   8.766  13.421 -0.2442  0.0961  0.3089
 5606W        W21500   7.808  10.492   5.009  0.1141  0.1288  0.0278
 5607W        W21501  16.553  15.700   2.345 -0.0011  0.0505 -0.1484
 5608W        W21502  15.881  10.664   4.727 -0.0621 -0.0488  0.0971
 5609W        W21503  11.836  14.241  11.894 -0.0330 -0.5669  0.2629
 5610W        W21504   1.757   6.460   3.170 -0.1469 -0.0924  0.0016
 5611W        W21505   2.700   3.722  13.281  0.5293  0.0950  0.1536
 5612W        W21506  16.141   7.875   0.921 -0.1637 -0.2355 -0.1328
 5613W        W21507  11.627   6.824  15.515  0.1816 -0.0228  0.0890
 5614W        W21508  14.618  13.314  16.911 -0.4162  0.1459  0.0108
 5615W        W21509   2.884   3.651  12.813 -0.0918  0.1453 -0.0351
 5616W        W21510   9.164   4.851  15.452  0.1885  0.0789 -0.2844
 5617W        W21511  16.902   8.766  11.334  0.0715 -0.0527  0.2650
 5618W        W21512  14.948   1.940   6.242  0.1843  0.1121  0.1850
 5619W        W21513   8.322  10.348   4.891  0.0886  0.0334 -0.0200
 5620W        W21514   3.657   3.597   5.912 -0.0290 -0.0305 -0.0079
 5621W        W21515   2.866   6.417  15.565 -0.1508  0.0728 -0.2479
 5622W        W21516   8.725  12.722   2.732  0.2030  0.0715 -0.1277
 5623W        W21517   0.450  11.045   3.960 -0.2404 -0.2086  0.0297
 5624W        W21518  15.765   3.098  12.318 -0.2313 -0.1823 -0.0502
 5625W        W21519   9.387  10.060   1.715 -0.0357  0.3265  0.0311
 5626W        W21520   0.898  13.999  15.343 -0.2555 -0.0889  0.1601
 5627W        W21521   6.157  13.328  11.930  0.3511  0.4515 -0.0824
 5628W        W21522  16.828   8.591  11.792 -0.0037  0.2928 -0.2720
 5629W        W21523   2.717   8.303   5.809 -0.2951 -0.1640  0.1112
 5630W        W21524   6.974   6.221   1.194 -0.0500 -0.0489 -0.0222
 5631W        W21525  15.225   6.230   4.962  0.1128  0.0251  0.0292
 5632W        W21526  12.107   8.040   1.079  0.0820 -0.1897  0.1169
 5633W        W21527   0.893  15.533   1.646  0.1331 -0.0162 -0.3178
 5634W        W21528   6.590  14.159   4.403 -0.1588  0.2766 -0.2095
 5635W        W21529   7.462  15.537   0.191 -0.0939 -0.0928  0.0061
 5636W        W21530  12.429  15.693   3.181 -0.0338  0.0266  0.1512
 5637W        W21531   7.339   5.787   2.511 -0.0750  0.1768 -0.0339
 5638W        W21532   4.748   4.934  14.165 -0.3065  0.0074 -0.2114
 5639W        W21533  12.035   5.795   4.502  0.1716 -0.2618  0.0664
 5640W        W21534  16.789   9.728   0.154  0.0361  0.1492 -0.1257
 5641W        W21535   7.120  10.286   5.744 -0.0660  0.0435 -0.1272
 5642W        W21536   6.240   2.850  14.495  0.2165 -0.4935 -0.2163
 5643W        W21537   4.255   1.956   6.042  0.4253 -0.0960 -0.2208
 5644W        W21538  10.049   3.245  16.722  0.1026  0.0866  0.0699
 5645W        W21539   9.302  16.593  13.996  0.2924 -0.1737 -0.2752
 5646W        W21540  17.460   4.771  12.538  0.0992  0.1340 -0.1153
 5647W        W21541   4.858   0.637   2.941  0.4161 -0.0644  0.0185
 5648W        W21542  12.517   2.114  11.808  0.1422 -0.1635 -0.0186
 5649W        W21543   0.602   4.432   0.505 -0.3130  0.1580 -0.1105
 5650W        W21544  12.324   9.738   2.861  0.2213  0.1443 -0.4490
 5651W        W21545   1.118   6.809   6.068  0.1029 -0.1472  0.1103
 5652W        W21546   3.333   2.246  15.051 -0.0297 -0.1650 -0.1999
 5653W        W21547   8.166  11.052   0.216 -0.1109  0.2785 -0.1957
 5654W        W21548   3.439   4.901   3.792  0.1462 -0.3985  0.2227
 5655W        W21549  16.601   3.496   1.656  0.1072 -0.1805 -0.1645
 5656W        W21550  13.343  13.084   1.283  0.0815  0.1088  0.0474
 5657W        W21551  13.452  14.134   2.403 -0.0148 -0.0587 -0.1530
 5658W        W21552  12.910   9.747   3.566 -0.0404  0.4262 -0.0175
 5659W        W21553   5.616  13.236  15.582 -0.2468 -0.1290 -0.0644
 5660W        W21554   3.411   4.449   6.965  0.0138  0.2226 -0.0438
 5661W        W21555  12.903   6.627   3.917  0.0711 -0.0512  0.0001
 5662W        W21556   3.773  13.257  15.752  0.0771  0.0941 -0.2161
 5663W        W21557   5.185   4.703  11.640  0.0935 -0.0276  0.0581
 5664W        W21558   2.761   9.790  16.089 -0.0278  0.0175  0.3365
 5665W        W21559  10.073  10.787  12.026  0.1493  0.2245 -0.0939
 5666W        W21560  15.793  16.937   0.884 -0.0265  0.0490 -0.1830
 5667W        W21561  12.785   8.737  16.998  0.0437 -0.0779  0.1450
 5668W        W21562  10.919  10.071  11.872  0.0703 -0.2411  0.0217
 5669W        W21563  11.401   4.238   2.527 -0.0156 -0.0187  0.0858
 5670W        W21564  13.824  10.874   1.463 -0.0140  0.1629  0.1793
 5671W        W21565   0.484  14.548  13.181 -0.1195 -0.3004 -0.0471
 5672W        W21566   2.562   5.630   3.465  0.4383  0.0885  0.1527
 5673W        W21567   9.625  16.491   1.442 -0.2245  0.0475 -0.1974
 5674W        W21568   8.635   9.664  16.204  0.1104 -0.1651 -0.0765
 5675W        W21569   0.234   1.624   5.076  0.1057 -0.0166  0.2600
 5676W        W21570   1.612   1.974   1.832 -0.1805  0.3239 -0.2512
 5677W        W21571   1.451   6.925  16.412 -0.0701  0.1755  0.1006
 5678W        W21572  13.433   7.983  12.481  0.0548  0.1812 -0.0732
 5679W        W21573   5.602  13.403  17.250  0.2354  0.0453 -0.0006
 5680W        W21574  10.267  14.049  12.789  0.4009 -0.1012  0.1348
 5681W        W21575   7.875  15.533  12.859  0.0275 -0.0836  0.0898
 5682W        W21576   1.794  12.696  16.834 -0.2809  0.1785  0.2101
 5683W        W21577  13.379   9.137  11.856 -0.0678  0.0665  0.3246
 5684W        W21578  12.900  11.461  14.507 -0.2858  0.2313 -0.0022
 5685W        W21579   4.013   0.919  12.540  0.1898 -0.0654 -0.0349
 5686W        W21580  10.802  16.961   4.395  0.1471  0.1786 -0.1143
 5687W        W21581  16.969  16.268   0.487  0.0772  0.3167 -0.0328
 5688W        W21582  13.439   6.996  14.788 -0.1035  0.1916 -0.1073
 5689W        W21583  14.524   7.154  12.486  0.1777  0.0192 -0.1756
 5690W        W21584   4.587   8.482   3.438 -0.0536  0.0497 -0.1065
 5691W        W21585   9.759   7.526   4.695  0.0466  0.0532  0.0470
 5692W        W21586   4.711   9.383  14.886 -0.0246 -0.1035 -0.1282
 5693W        W21587  11.294   0.552  16.007 -0.1178 -0.0037 -0.1622
 5694W        W21588  17.103   6.405   5.921  0.3443  0.0919 -0.2359
 5695W        W21589   8.034   0.745   1.130 -0.0193 -0.2025  0.0367
 5696W        W21590   9.284   8.100  14.653  0.2144 -0.1195  0.1090
 5697W        W21591   0.776   6.649   6.946  0.0443 -0.0123 -0.3793
 5698W        W21592  16.366  10.714   4.791 -0.3089 -0.4492 -0.1852
 5699W        W21593  16.606   1.206  16.628 -0.1421 -0.1452  0.0309
 5700W        W21594  17.280   1.184   4.485 -0.2226  0.1665  0.0866
 5701W        W21595  17.358  14.041   0.339 -0.2434  0.1773 -0.1037
 5702W        W21596  11.043  10.093  15.158 -0.2485 -0.0523  0.1664
 5703W        W21597   7.512   5.317  14.758 -0.0067  0.0307  0.1061
 5704W        W21598   0.689  14.314   4.135 -0.0996  0.0303  0.0727
 5705W        W21599   8.785   5.858  15.979  0.3599  0.1041 -0.0023
 5706W        W21600   0.636   8.070  12.452  0.0032 -0.4636  0.0698
 5707W        W21601  13.856   6.338   3.202  0.1721  0.2998 -0.0282
 5708W        W21602  11.922  13.714  13.717  0.0286  0.2402  0.1954
 5709W        W21603   1.039   1.888  13.434 -0.2968 -0.2376 -0.2161
 5710W        W21604   6.348   7.381   5.665  0.5054 -0.0826  0.3805
 5711W        W21605   2.797  15.693   5.658  0.0996  0.4063 -0.0165
 5712W        W21606   0.325   7.565   4.669  0.1022 -0.0177 -0.2605
 5713W        W21607  16.283   2.543   0.712  0.0732 -0.0716 -0.1850
 5714W        W21608   0.590   2.057   4.973  0.1510  0.1799 -0.3096
 5715W        W21609  16.292   7.523   1.269  0.3737 -0.0055  0.3449
 5716W        W21610   3.311  11.380   1.911  0.1157 -0.0127 -0.0428
 5717W        W21611  17.308   7.394   1.340  0.0692  0.3066 -0.2917
 5718W        W21612  10.337   9.838   3.893 -0.1276 -0.4254 -0.0781
 5719W        W21613  16.970   5.522   6.146  0.2267  0.0688  0.2018
 5720W        W21614  11.040  11.298  11.968  0.2438 -0.1245  0.2170
 5721W        W21615   8.885  10.667   2.859  0.1186 -0.0444  0.1093
 5722W        W21616  12.524   7.982  16.020 -0.3436 -0.0931  0.1501
 5723W        W21617  12.882   1.181  12.817  0.1955  0.0043 -0.0810
 5724W        W21618  12.452   7.206  16.517  0.1614 -0.0661 -0.0434
 5725W        W21619  10.141   7.875   0.419 -0.2047 -0.3098 -0.2967
 5726W        W21620  12.385  13.830   3.002 -0.0509 -0.2618 -0.1316
 5727W        W21621   8.734   8.290   4.614  0.1222  0.0836 -0.4553
 5728W        W21622   7.908   4.014  13.910  0.1727  0.1089  0.0014
 5729W        W21623  15.805   1.793  16.273  0.1195  0.0940 -0.1140
 5730W        W21624  12.609   7.833  13.158  0.1840  0.3279  0.2072
 5731W        W21625  11.511  15.067   3.869  0.1380 -0.0790 -0.4204
 5732W        W21626   6.073   5.959   0.901 -0.1230 -0.1751  0.0166
 5733W        W21627   3.064   1.658   5.389 -0.1225 -0.0530  0.1163
 5734W        W21628  17.097   6.764  16.311 -0.0035  0.1338  0.2349
 5735W        W21629   8.747   7.917  16.107  0.0758  0.1728 -0.0170
 5736W        W21630   3.901   5.567  16.955 -0.3421  0.1973  0.1160
 5737W        W21631  17.587   2.235  15.398 -0.0206  0.0847 -0.2807
 5738W        W21632   7.783  16.565   0.926  0.2677  0.0769  0.0013
 5739W        W21633   1.663   4.823   4.922  0.1688 -0.1544  0.1170
 5740W        W21634  11.989   4.591  12.363 -0.0403  0.4168  0.1259
 5741W        W21635  14.666   7.108   1.878 -0.0310 -0.1779  0.0984
 5742W        W21636  12.591   8.902  16.129 -0.2639 -0.3250 -0.3399
 5743W        W21637  11.932  14.963   5.109 -0.3930  0.3318 -0.0804
 5744W        W21638  14.226  15.371   4.017  0.0073  0.2052 -0.1490
 5745W        W21639   4.835  16.409  16.276  0.4986  0.0823  0.1593
 5746W        W21640  14.967   8.934  16.568 -0.1620 -0.0991  0.0246
 5747W        W21641  12.482  12.859   1.351  0.0150  0.1245  0.1597
 5748W        W21642  16.335  13.115  15.354  0.1344 -0.0335 -0.1009
 5749W        W21643  15.619  14.881  12.094  0.1968  0.1091 -0.1288
 5750W        W21644   8.378  15.464  16.659  0.0331  0.0969  0.0779
 5751W        W21645   4.214   5.065   0.704 -0.1269 -0.0773  0.3605
 5752W        W21646  12.751   6.602   2.159 -0.0246  0.1608  0.0079
 5753W        W21647  11.774   2.315  12.901  0.0379 -0.0722  0.1454
 5754W        W21648   0.231   4.104  16.976  0.0224 -0.2966 -0.0639
 5755W        W21649   9.336  12.710  12.394  0.1394 -0.1181  0.0509
 5756W        W21650   5.657  11.318  15.011 -0.0554  0.0054  0.1034
 5757W        W21651   4.333   3.587   2.994  0.1510  0.0824 -0.0028
 5758W        W21652   8.058   8.608  12.897  0.1250  0.1362  0.0430
 5759W        W21653   9.765   1.911   1.416  0.1678 -0.1043 -0.2262
 5760W        W21654  11.368   6.113   3.859 -0.1894 -0.0026 -0.0519
 5761W        W21655   2.251   5.912   2.164  0.0663  0.1175 -0.0971
 5762W        W21656   2.527   3.359   2.485  0.1450 -0.0875 -0.0390
 5763W        W21657  10.362   7.944  11.597 -0.1519 -0.0817  0.2616
 5764W        W21658   6.679   7.340   1.862 -0.0822  0.1788 -0.0852
 5765W        W21659  10.092  17.393  11.727  0.1003  0.0219 -0.0188
 5766W        W21660  12.757   9.604  14.992  0.1096  0.0080  0.0684
 5767W        W21661  16.643   0.159  16.051  0.0449  0.0841  0.0635
 5768W        W21662  11.365   4.748  13.468  0.0444  0.0638  0.2750
 5769W        W21663  11.382  16.776   3.118  0.1039 -0.0602  0.0300
 5770W        W21664  16.629   6.834  12.482  0.2118 -0.0104 -0.0992
 5771W        W21665  10.767  11.702   4.341  0.0261  0.2115  0.2222
 5772W        W21666   9.959  13.058   1.909  0.1424 -0.0091  0.2390
 5773W        W21667  12.314  16.763  16.221 -0.1307  0.1272  0.0614
 5774W        W21668   8.385  15.196  14.450  0.1927  0.3212  0.1921
 5775W        W21669   4.049   0.213   4.655  0.1069 -0.2888  0.1043
 5776W        W21670  16.721   5.331  13.648 -0.2908 -0.1814 -0.0380
 5777W        W21671  13.807   8.336  15.738  0.1356 -0.1528 -0.0503
 5778W        W21672   8.100  12.415  16.636 -0.1174  0.0220 -0.1702
 5779W        W21673  14.719   1.804   1.307 -0.0616 -0.0795  0.2331
 5780W        W21674  16.260  10.743  16.128  0.0009 -0.0761  0.0615
 5781W        W21675  10.536  15.107  15.917 -0.1427 -0.1840 -0.1046
 5782W        W21676   0.294  15.373   3.852  0.0038 -0.0142 -0.0760
 5783W        W21677   5.149  11.635  12.701  0.3916  0.2175  0.0533
 5784W        W21678   6.258  14.012  13.890  0.1787 -0.1494 -0.1979
 5785W        W21679   4.113   7.521  12.565  0.1664 -0.4233 -0.0824
 5786W        W21680   1.702   6.354  14.288 -0.1533 -0.0669 -0.0473
 5787W        W21681   6.708  14.665   4.166  0.4687  0.1904  0.3009
 5788W        W21682   6.195   6.727   3.719 -0.2672  0.0779  0.2083
 5789W        W21683   2.691   8.956  17.259  0.1153  0.1355  0.0130
 5790W        W21684   7.910  10.684  15.720  0.2833 -0.0642  0.1392
 5791W        W21685   1.152  17.242   5.405  0.1904 -0.0023 -0.0454
 5792W        W21686   9.576   2.413   4.358  0.2512  0.2771 -0.1056
 5793W        W21687   5.805   9.378   1.969  0.1520 -0.0571  0.2191
 5794W        W21688  16.368   8.392   1.023  0.0020 -0.0905 -0.1628
 5795W        W21689   0.674   8.865  12.964 -0.2066  0.1507  0.1732
 5796W        W21690   3.241  14.509  12.665 -0.3471  0.1221  0.2610
 5797W        W21691   9.736  10.346   0.486 -0.2126  0.0932 -0.0168
 5798W        W21692  13.862   5.333  12.236 -0.0756  0.2138 -0.0322
 5799W        W21693   5.908  14.339   2.092 -0.0206 -0.0769 -0.0916
 5800W        W21694   0.706   9.119  12.326 -0.3025 -0.1321 -0.0609
 5801W        W21695  17.568  15.229  17.046 -0.1174 -0.0864  0.0400
 5802W        W21696   3.666  14.519   6.327 -0.1855 -0.1611 -0.0142
 5803W        W21697  10.313   1.324   4.026  0.1121 -0.0252  0.2370
 5804W        W21698  10.241  17.050  13.588 -0.1853  0.1754 -0.0222
 5805W        W21699   2.427   4.474  16.297  0.0690  0.2835  0.0077
 5806W        W21700  13.079   0.401   4.632 -0.1752  0.1956 -0.2469
 5807W        W21701   7.370  11.078   0.646  0.0946  0.0491 -0.0179
 5808W        W21702   8.122  14.574  13.734  0.0953  0.0759 -0.4725
 5809W        W21703   5.090   6.588  14.651  0.0591  0.0355 -0.4281
 5810W        W21704   4.014   8.527  16.407 -0.2303 -0.3682 -0.0181
 5811W        W21705   0.319  13.674   6.072 -0.0408  0.2394  0.1425
 5812W        W21706   5.238   7.896  12.066  0.1619 -0.0112  0.2821
 5813W        W21707   7.020   3.469  13.899 -0.2295  0.0818  0.0129
 5814W        W21708  17.594   7.943  16.726  0.2072 -0.1114 -0.0422
 5815W        W21709   3.790   8.837   5.126  0.4378  0.1916 -0.0467
 5816W        W21710  17.025  11.551   1.453  0.1659  0.0559 -0.2624
 5817W        W21711  15.790  10.262  14.280 -0.0634  0.2299  0.4020
 5818W        W21712   2.086   3.046   1.432 -0.0149 -0.0446 -0.3514
 5819W        W21713   7.757  14.604   3.445  0.1933 -0.0780 -0.0036
 5820W        W21714   3.765   6.611   5.907  0.1380  0.0875  0.0207
 5821W        W21715   0.506  12.912   5.681  0.0497  0.0956  0.0938
 5822W        W21716   7.229   6.163   2.764  0.0616 -0.1745 -0.2522
 5823W        W21717  14.594   4.501   3.942 -0.0941 -0.0417 -0.1865
 5824W        W21718  10.608   6.710  17.298  0.3476  0.2902 -0.2886
 5825W        W21719   6.793  12.825   3.689  0.1771 -0.1941  0.0176
 5826W        W21720   5.542  15.653  12.251 -0.2238  0.0428 -0.2225
 5827W        W21721  12.706   4.828  13.227  0.0331  0.1814  0.0763
 5828W        W21722  13.184   8.039   5.225 -0.1220 -0.1118 -0.0344
 5829W        W21723  17.342  13.299   3.321 -0.0268  0.0859 -0.0324
 5830W        W21724  13.706   6.796   5.542 -0.0002  0.1032  0.0650
 5831W        W21725   2.313   7.180   4.493  0.0247 -0.2049  0.0061
 5832W        W21726  13.872  11.568  14.736 -0.1148  0.2725  0.2353
 5833W        W21727  17.039  12.115   3.348 -0.2451 -0.0710  0.0290
 5834W        W21728   3.524  12.452  13.455  0.1728  0.0956 -0.1028
 5835W        W21729   8.728   5.694  16.976  0.0288 -0.0996  0.2046
 5836W        W21730   0.032   3.553  12.992  0.1454  0.2626  0.1708
 5837W        W21731   4.334   2.286  15.626 -0.0127 -0.0410  0.1864
 5838W        W21732  13.726  14.790   2.543 -0.0261 -0.3063 -0.1216
 5839W        W21733  16.546   5.352   4.759  0.2607 -0.0020  0.0042
 5840W        W21734   2.084  10.482   4.388 -0.1951  0.2636  0.0827
 5841W        W21735  14.549  17.104   4.615 -0.0012  0.0166 -0.2831
 5842W        W21736   6.330  14.402  14.810 -0.0461  0.0646 -0.0566
 5843W        W21737  10.858   2.794  12.027 -0.0556  0.0479 -0.0685
 5844W        W21738  17.134  17.173   5.452  0.2458  0.1468  0.1549
 5845W        W21739   7.977   5.166  13.610  0.2182 -0.0922 -0.0566
 5846W        W21740   5.768  11.375   3.585  0.0382  0.0761 -0.0945
 5847W        W21741   4.385   6.612  12.865 -0.0654  0.0188 -0.0250
 5848W        W21742   5.139   6.559   1.226  0.1041  0.0904 -0.4535
 5849W        W21743   4.087  10.572  12.239 -0.0560 -0.0319 -0.3799
 5850W        W21744   8.148   8.507   0.455 -0.0574 -0.0750 -0.0804
 5851W        W21745  10.642   2.411  12.926 -0.0274 -0.0218 -0.1923
 5852W        W21746  16.429   9.860   1.966  0.2648 -0.0299 -0.0748
 5853W        W21747   2.485  13.435  14.175 -0.1160  0.0600 -0.0335
 5854W        W21748   8.585  10.802   0.071  0.0181 -0.0042  0.1539
 5855W        W21749   6.203   8.127   0.928  0.0629 -0.0920 -0.1341
 5856W        W21750   4.594  17.027  12.249  0.1397  0.0580  0.0249
 5857W        W21751  14.151   2.382   2.602 -0.0842 -0.3008 -0.1216
 5858W        W21752   4.140  10.210   4.579  0.1282  0.0674  0.1841
 5859W        W21753   5.511   4.797  13.012 -0.5809 -0.1057 -0.0410
 5860W        W21754  12.706  16.714   4.336 -0.0444 -0.1742 -0.1119
 5861W        W21755   9.370  14.766   1.584  0.1779  0.0232 -0.3080
 5862W        W21756  10.154   7.278   0.455  0.1987  0.4021  0.1963
 5863W        W21757  14.330   1.032  15.198 -0.1822  0.0872 -0.0210
 5864W        W21758  11.361  11.399   3.867  0.0102 -0.1024  0.1431
 5865W        W21759   7.373   9.730   1.036 -0.0475 -0.3166  0.0297
 5866W        W21760   3.549   3.893   4.352  0.1358 -0.2970 -0.3554
 5867W        W21761  11.879   9.539   2.967 -0.1776  0.0648 -0.1558
 5868W        W21762   7.882   9.135  17.134 -0.1585 -0.0067 -0.1228
 5869W        W21763   4.166  14.342  14.775  0.0332 -0.2740  0.0564
 5870W        W21764   7.426   4.894   4.070  0.3159  0.0432  0.1820
 5871W        W21765  12.670  13.591   2.447  0.1454 -0.0692 -0.0701
 5872W        W21766  14.251   0.141   0.923 -0.1200  0.3724 -0.1285
 5873W        W21767   3.682  11.945   3.505 -0.1489 -0.0890  0.0184
 5874W        W21768   6.708  11.226   4.571  0.0468  0.1186  0.1452
 5875W        W21769  17.481   6.331  12.441  0.0937  0.0268  0.0814
 5876W        W21770   8.626  16.427  12.081 -0.1528 -0.0226  0.0701
 5877W        W21771   8.120   1.427   0.760  0.0064 -0.1763  0.3089
 5878W        W21772   6.831   2.682   0.422 -0.2473  0.1891 -0.3991
 5879W        W21773   1.317  14.683  12.390 -0.1130  0.1319  0.0138
 5880W        W21774  10.591  14.608  15.969 -0.2611  0.1291  0.1961
 5881W        W21775   5.230  16.509   2.152 -0.0351 -0.3140 -0.0468
 5882W        W21776   3.758   7.238  12.253 -0.0622 -0.1851  0.1963
 5883W        W21777   8.293   9.695   5.150  0.3220 -0.0268  0.0911
 5884W        W21778   7.581   8.786   3.390  0.5443 -0.1769 -0.0031
 5885W        W21779   2.694  13.566   6.691 -0.2075 -0.0324  0.0198
 5886W        W21780   1.263   4.625   6.192  0.2930 -0.0951  0.0682
 5887W        W21781   0.376  12.728  14.368  0.2042  0.0190 -0.2252
 5888W        W21782   6.832   0.448  12.713 -0.1988 -0.1572 -0.1580
 5889W        W21783  11.755   4.305  12.728  0.0277  0.1755  0.1405
 5890W        W21784   4.331  11.920   4.151 -0.2332 -0.0785 -0.1167
 5891W        W21785   7.445   6.428  12.128 -0.1273  0.2417 -0.0116
 5892W        W21786  11.983  13.434  14.720  0.0696  0.1791  0.1506
 5893W        W21787   7.267  14.324  14.684 -0.0977 -0.2198 -0.0869
 5894W        W21788   7.681   5.266  15.234 -0.2216  0.0015 -0.0040
 5895W        W21789   7.460   3.716   0.072  0.0704  0.0077  0.1043
 5896W        W21790   9.914   3.257   3.339  0.2692  0.1258  0.1275
 5897W        W21791  14.243  13.545  16.751 -0.0129 -0.0637  0.0660
 5898W        W21792  14.417   5.638  12.336  0.1491 -0.4671  0.0052
 5899W        W21793   0.654   2.145  13.654 -0.0646  0.1192  0.2448
 5900W        W21794   5.572  11.477   4.305  0.2076 -0.0400  0.0369
 5901W        W21795   0.137   0.007   2.760 -0.2987  0.2906 -0.4213
 5902W        W21796   2.800  11.795   2.438 -0.1234 -0.0508 -0.1364
 5903W        W21797   4.129   5.715  15.714 -0.1368 -0.1663  0.1609
 5904W        W21798   4.609   2.843   2.677 -0.2071  0.0343 -0.0934
 5905W        W21799  15.018   2.098   2.384  0.2485 -0.1114 -0.3726
 5906W        W21800   3.588   3.376   1.573  0.1397 -0.0210  0.1084
 5907W        W21801  16.469   2.831   3.998  0.1996 -0.1435  0.2757
 5908W        W21802  14.651  10.719  11.623 -0.1551 -0.0921  0.0188
 5909W        W21803  14.501  13.876   5.341  0.0131  0.0231  0.0977
 5910W        W21804  14.913   0.943  14.567 -0.1557 -0.2465 -0.1996
 5911W        W21805  15.389   8.552   1.877 -0.0063 -0.1879  0.0271
 5912W        W21806   6.270   9.461   2.838  0.3459  0.0909  0.1060
 5913W        W21807  11.449  16.342  13.320 -0.0993 -0.0588 -0.0057
 5914W        W21808   6.453  15.920   2.618 -0.1283 -0.0385 -0.1376
 5915W        W21809   9.554  10.295  15.859 -0.0536  0.1861 -0.1699
 5916W        W21810  16.366  13.283   6.563 -0.2820 -0.1407 -0.0284
 5917W        W21811   9.949   6.151  11.314  0.0084 -0.1732 -0.1064
 5918W        W21812  13.774  13.709   2.418  0.0196 -0.0583 -0.2755
 5919W        W21813   7.886  10.339  15.262  0.0706  0.0501 -0.0415
 5920W        W21814   1.537  12.603  15.536 -0.1776  0.0395 -0.1764
 5921W        W21815  15.265   0.987   3.200  0.0501 -0.0853 -0.2171
 5922W        W21816   6.934   6.326  15.994 -0.2088 -0.1544  0.1151
 5923W        W21817   1.036   8.241   6.246  0.1278  0.0545  0.1966
 5924W        W21818  11.625  15.993   4.384 -0.1833  0.1799  0.0261
 5925W        W21819   8.390   4.843   4.408  0.0022  0.3321  0.0542
 5926W        W21820  11.610   5.814  11.817  0.0250 -0.1665 -0.0414
 5927W        W21821  15.888   0.002  17.004 -0.1285  0.2612  0.0932
 5928W        W21822   0.103   6.925   5.348 -0.1006 -0.0344 -0.0621
 5929W        W21823  16.971  11.307  11.923 -0.1167  0.4244 -0.1177
 5930W        W21824   2.686  15.738   4.406 -0.0730  0.1783  0.0649
 5931W        W21825   7.688   0.888  14.283 -0.1745 -0.0701  0.0748
 5932W        W21826  12.056   7.405   3.067  0.0929  0.1155 -0.3883
 5933W        W21827   4.873  15.931  11.768  0.0005 -0.0623 -0.1947
 5934W        W21828  13.108   8.391  16.837 -0.1780 -0.0825 -0.1365
 5935W        W21829  14.103  15.614  12.957 -0.1244  0.0397 -0.0803
 5936W        W21830   5.782   8.174  14.795  0.1891 -0.0927  0.0371
 5937W        W21831   5.587  16.525   1.789 -0.0841 -0.0963  0.0746
 5938W        W21832   5.356  10.117   3.439  0.0825  0.2573 -0.1849
 5939W        W21833   2.991  12.561  12.108 -0.0528  0.4489  0.0076
 5940W        W21834  16.214  17.021  15.674 -0.0870  0.2364 -0.2708
 5941W        W21835   3.035   7.999   6.133  0.1834  0.0199 -0.0783
 5942W        W21836   4.874  17.016  17.086  0.1517  0.1870 -0.0897
 5943W        W21837   4.708  17.550  16.249 -0.1171  0.3468 -0.2190
 5944W        W21838   8.729   6.785  11.335  0.0711 -0.1054 -0.2172
 5945W        W21839   5.391  13.503  16.178 -0.0576 -0.4265 -0.0447
 5946W        W21840   5.876   5.174   2.969  0.0558 -0.2827 -0.2024
 5947W        W21841   4.100   6.071  17.068  0.5498 -0.0543  0.0351
 5948W        W21842   1.775   8.563   6.044  0.0991 -0.0054 -0.2098
 5949W        W21843   5.732  11.966  11.775 -0.0250  0.1772  0.1365
 5950W        W21844  15.381   9.631   4.312 -0.1204 -0.1400 -0.0174
 5951W        W21845  10.666   2.609   3.019 -0.0095 -0.2905  0.1314
 5952W        W21846   3.296  14.572  13.675  0.1973  0.1172 -0.1138
 5953W        W21847   2.927   2.648   3.177  0.2066 -0.0783 -0.0234
 5954W        W21848   7.736   4.325   5.121 -0.1157 -0.2216  0.1052
 5955W        W21849   7.295   4.284  14.908 -0.1387 -0.1834 -0.0785
 5956W        W21850  15.512   0.221   4.429 -0.2783 -0.2945  0.0278
 5957W        W21851  15.768  16.683   5.274 -0.0964 -0.1300  0.3454
 5958W        W21852   6.180  10.566  16.059  0.0212  0.0983 -0.0494
 5959W        W21853  14.341  12.959   5.149 -0.1479  0.0308  0.0829
 5960W        W21854  16.751   4.442   2.036  0.2474 -0.0645  0.3548
 5961W        W21855  16.447   5.247   2.894 -0.1823  0.0307 -0.2103
 5962W        W21856   6.226  10.312   0.993 -0.0270 -0.1992 -0.0028
 5963W        W21857  12.684   5.605  14.305 -0.2892  0.2441  0.0807
 5964W        W21858   9.860  11.369   3.425  0.1021 -0.0504 -0.4321
 5965W        W21859   5.441   0.042   5.199 -0.1068  0.4128  0.1003
 5966W        W21860   1.815   3.713   4.518  0.0250 -0.1569  0.2175
 5967W        W21861  11.067   9.708   4.742  0.2438 -0.2366  0.0087
 5968W        W21862   8.080  11.384   4.807 -0.1738  0.0335 -0.0745
 5969W        W21863  11.420  11.242  14.573 -0.0089 -0.0307  0.1148
 5970W        W21864   5.745   0.362   3.961 -0.1298 -0.2901  0.2742
 5971W        W21865   6.508   6.047   6.105 -0.1711  0.1404  0.0741
 5972W        W21866  13.920  12.431   0.743 -0.1181 -0.1534 -0.3176
 5973W        W21867  14.462  12.799   2.840 -0.1171  0.0974  0.2251
 5974W        W21868   5.095   6.571  12.891 -0.0984  0.0545  0.1687
 5975W        W21869  16.116   1.866  15.476  0.0734 -0.2055  0.1826
 5976W        W21870  17.306   3.216  12.147 -0.0822  0.0751 -0.0128
 5977W        W21871   3.977   5.476   4.850  0.1412 -0.0006  0.1045
 5978W        W21872   1.993   7.705  13.757  0.1952  0.2604 -0.0700
 5979W        W21873   0.109  16.510  13.101  0.2130 -0.5199  0.2154
 5980W        W21874   1.884   3.907   1.991 -0.0365  0.0091 -0.3974
 5981W        W21875   1.105  13.000   3.629  0.3052  0.1356 -0.0623
 5982W        W21876  16.180  14.482   1.495  0.0629 -0.1978  0.0493
 5983W        W21877  15.802   3.912   0.575  0.1160  0.0281  0.0852
 5984W        W21878  16.293   6.129   4.221 -0.1215  0.0436  0.3439
 5985W        W21879   6.567  10.543  15.573  0.1588  0.0216 -0.1035
 5986W        W21880  16.158  12.889   3.476  0.0947  0.1286  0.4368
 5987W        W21881  12.238  14.722   1.743  0.0255  0.0576  0.4589
 5988W        W21882   5.361   7.609  16.034  0.4186  0.0035 -0.0404
 5989W        W21883   8.221  15.635  14.649 -0.3067  0.4269 -0.4494
 5990W        W21884   7.371   8.253  14.270  0.0552 -0.1269 -0.1696
 5991W        W21885   7.998   7.465   2.352  0.0579 -0.0597 -0.1869
 5992W        W21886   6.111  12.654   1.607 -0.2240  0.0648 -0.0925
 5993W        W21887   9.000  12.496  12.926  0.1362 -0.2409  0.1551
 5994W        W21888  15.166   3.770   1.432  0.1557  0.0356  0.0719
 5995W        W21889  14.568   9.081   0.272  0.0683  0.0762  0.2681
 5996W        W21890   8.971   7.368  12.671 -0.0568 -0.2313  0.3560
 5997W        W21891  12.641   4.684   1.405 -0.0479  0.1748 -0.3706
 5998W        W21892   0.545  12.184   0.986  0.0610 -0.2917  0.0336
 5999W        W21893  14.717   7.383  12.034  0.2349  0.4003  0.1972
 6000W        W21894   0.618  12.672   3.114  0.0784 -0.0772  0.1668
 6001W        W21895   1.865  16.914  13.936 -0.1823  0.3737  0.0077
 6002W        W21896  14.516   2.758   5.058  0.0672 -0.0580 -0.0931
 6003W        W21897  15.588   7.177   2.941  0.0768  0.1643 -0.2121
 6004W        W21898  16.080   4.094   0.154 -0.0839 -0.0050 -0.0967
 6005W        W21899   9.940   1.366   5.489 -0.0139  0.2109  0.3145
 6006W        W21900  14.494   0.428   4.706 -0.1220 -0.1456  0.3098
 6007W        W21901  15.891  14.259  17.055  0.3399  0.1255  0.0496
 6008W        W21902   0.791  14.182   2.283 -0.1212  0.2696 -0.0011
 6009W        W21903  13.288  10.423   4.487 -0.0056 -0.1809  0.2101
 6010W        W21904   1.880   6.571  11.892 -0.3336  0.1476  0.3212
 6011W        W21905   6.191  14.870   2.839 -0.2893 -0.0119  0.1452
 6012W        W21906   3.670  16.069  12.282 -0.1062 -0.2449  0.3438
 6013W        W21907   6.263   4.574  13.449  0.0630 -0.1139 -0.1776
 6014W        W21908   7.828   7.852   4.732 -0.1270 -0.0506  0.0264
 6015W        W21909   3.732   8.145  16.675  0.0803 -0.1623 -0.0202
 6016W        W21910   8.423   2.682   4.920 -0.1672  0.1726  0.2151
 6017W        W21911   0.070  17.554   4.091 -0.2651 -0.5172 -0.1442
 6018W        W21912   1.991  16.455   4.461  0.2223 -0.1742  0.1809
 6019W        W21913   8.769   9.915   4.957  0.2929  0.1225  0.0001
 6020W        W21914   9.648   1.907   3.741 -0.4003  0.2227  0.1823
 6021W        W21915   7.469   9.538  12.750  0.2539  0.2530  0.0695
 6022W        W21916   1.039   3.810  17.203 -0.3108  0.1345  0.1141
 6023W        W21917  10.312   6.499  14.235 -0.1207 -0.0868  0.0222
 6024W        W21918   4.741  13.707   3.991 -0.1278 -0.0867 -0.0898
 6025W        W21919  17.593   6.581   5.868 -0.3387 -0.1049 -0.0054
 6026W        W21920  11.246  10.252  16.465  0.1004  0.2428 -0.2805
 6027W        W21921  16.217  13.966   1.830 -0.1184  0.2647 -0.1169
 6028W        W21922   0.400   2.282   0.627  0.1802  0.0783  0.1536
 6029W        W21923   2.539   9.559   5.472  0.0329 -0.0470  0.0750
 6030W        W21924   8.626   3.144  15.522  0.2746  0.2173  0.0071
 6031W        W21925   9.809  14.682  12.122 -0.3109 -0.3254  0.3625
 6032W        W21926   9.786   3.255   0.303 -0.0227  0.0021 -0.3229
 6033W        W21927  13.537   3.696  17.192  0.2357  0.2625 -0.0510
 6034W        W21928   2.782  12.544   1.216  0.0051 -0.0922 -0.0230
 6035W        W21929  13.252   6.914  12.293  0.2172 -0.0826  0.1741
 6036W        W21930  15.273   3.299  12.325 -0.2233  0.0746 -0.1058
 6037W        W21931   7.027   5.548   3.962 -0.1474  0.2021 -0.1830
 6038W        W21932   2.484  12.266  13.499 -0.1138 -0.1116 -0.0050
 6039W        W21933   8.698   7.302  13.568 -0.1656 -0.0488 -0.0511
 6040W        W21934   3.218   5.626   6.469 -0.0316  0.1093 -0.3635
 6041W        W21935  17.351   6.997   2.833  0.1682 -0.2273  0.1397
 6042W        W21936   5.344  15.680   0.178 -0.0084 -0.1067  0.1635
 6043W        W21937   1.751  11.499   0.151 -0.1301 -0.2971  0.0204
 6044W        W21938   6.074   7.471   3.375  0.0556 -0.1464 -0.0482
 6045W        W21939  14.552   9.528  14.425 -0.2861  0.2303 -0.0585
 6046W        W21940  11.412   7.411   0.615 -0.0480 -0.1875 -0.3147
 6047W        W21941  15.253   1.144  11.991 -0.0294 -0.3125  0.2043
 6048W        W21942  13.672  10.927   3.941  0.0189 -0.2850 -0.2576
 6049W        W21943  14.608  10.852  15.599  0.1381 -0.0215 -0.1958
 6050W        W21944  10.571   1.606  15.140  0.1437  0.2078 -0.0903
 6051W        W21945   4.802   0.307   5.157 -0.0597 -0.0418 -0.2406
 6052W        W21946   3.231  16.183  17.272  0.1519  0.0097  0.2791
 6053W        W21947   6.695  13.790   1.373  0.0946  0.0846 -0.0185
 6054W        W21948  16.225  12.160  15.510  0.1168 -0.0605 -0.3103
 6055W        W21949  13.321   5.049   5.245  0.0618 -0.2415  0.0351
 6056W        W21950   5.861  12.201   4.063 -0.1660 -0.2660 -0.0028
 6057W        W21951  12.285   0.026  12.745 -0.3891 -0.1883  0.2403
 6058W        W21952   6.781  11.605   0.480 -0.1535 -0.0678  0.3327
 6059W        W21953  16.288  12.891  14.566 -0.2979 -0.0546  0.0265
 6060W        W21954  10.632  16.008  14.685  0.0136  0.0754 -0.0606
 6061W        W21955  12.349   2.802  13.587  0.1079 -0.1412 -0.0939
 6062W        W21956   5.852   6.654   5.912 -0.1409 -0.1646 -0.2576
 6063W        W21957  12.618   9.904  13.746 -0.1783  0.2178  0.0999
 6064W        W21958  10.345   0.160  15.583 -0.2211 -0.0533 -0.0280
 6065W        W21959   6.695   2.603  15.335 -0.0958  0.0204  0.0579
 6066W        W21960   7.702   3.493   5.444  0.0749  0.2729  0.0627
 6067W        W21961  10.434   3.224  14.144  0.1117 -0.0332 -0.0414
 6068W        W21962   2.459  10.771   1.995  0.2078 -0.2398 -0.0044
 6069W        W21963   4.697  10.308  14.840 -0.1727 -0.1740 -0.3859
 6070W        W21964   1.425  14.843  16.243 -0.1352  0.2942  0.0405
 6071W        W21965  11.704  10.085   1.708 -0.3278 -0.1147 -0.1080
 6072W        W21966  13.337   5.864  15.971  0.2031 -0.1566 -0.1014
 6073W        W21967   1.373  16.140   1.379  0.0578 -0.1456  0.1494
 6074W        W21968  15.516   9.829   1.775  0.0447  0.2553  0.0261
 6075W        W21969   6.240   5.803   4.980 -0.0359 -0.2336 -0.0608
 6076W        W21970  12.686  17.489   5.399  0.0671 -0.0758  0.0576
 6077W        W21971   7.481   7.569   4.439 -0.1955  0.1813  0.2405
 6078W        W21972  15.619   1.324  16.340 -0.0523 -0.0866  0.0281
 6079W        W21973  14.997  10.761  12.609 -0.0163 -0.0688 -0.2255
 6080W        W21974  15.956  10.230   4.413 -0.0149 -0.1652 -0.3001
 6081W        W21975  13.434  15.079   0.655 -0.1948  0.1990 -0.0303
 6082W        W21976  10.405  12.673  13.689 -0.0194  0.1423  0.3193
 6083W        W21977   9.189  14.748   0.470 -0.0913 -0.4054  0.0683
 6084W        W21978   6.454  10.671  13.262  0.0051 -0.0138  0.0324
 6085W        W21979   5.961  12.573   2.178 -0.0461 -0.1858 -0.0436
 6086W        W21980  14.979  11.499   1.992  0.0095  0.0100  0.2079
 6087W        W21981   2.048   9.015   4.933  0.0064 -0.4126 -0.0591
 6088W        W21982   2.137  12.612  13.726 -0.1853 -0.0523  0.0585
 6089W        W21983  13.769   2.462  16.970  0.1216 -0.0507 -0.1332
 6090W        W21984  11.886  17.606   1.397 -0.4416  0.2072  0.0277
 6091W        W21985   3.233   8.039  16.522 -0.0022 -0.1701  0.0685
 6092W        W21986  12.851   8.447  15.946 -0.1540  0.2670 -0.1533
 6093W        W21987  15.325  16.101   4.547  0.2519 -0.0792  0.4277
 6094W        W21988  13.624   3.551  15.337 -0.3201  0.0936 -0.2055
 6095W        W21989  15.572  17.497  12.005  0.2600  0.0158  0.0742
 6096W        W21990  17.578   9.522   0.957  0.1346  0.1360 -0.1071
 6097W        W21991  10.195  12.149   0.704 -0.0221  0.2709 -0.1091
 6098W        W21992   8.510  13.871   1.669 -0.1645  0.1297  0.1403
 6099W        W21993  10.850   9.304  11.955 -0.1680 -0.3789  0.2189
 6100W        W21994   9.373   1.533   2.364 -0.1586  0.1213  0.1019
 6101W        W21995  17.552  17.444  14.642 -0.1562  0.0100  0.3085
 6102W        W21996   9.856  12.023  15.924  0.2270 -0.1775  0.1789
 6103W        W21997   6.836   8.269   1.591 -0.3872  0.1122 -0.1499
 6104W        W21998  10.380  11.232  15.081  0.4577  0.1158  0.1606
 6105W        W21999   4.594  10.759   2.400 -0.0421  0.3178  0.3422
 6106W        W22000  17.452   6.510  13.921 -0.1196  0.0103  0.1033
 6107W        W22001   6.665   0.037  12.053 -0.1732 -0.1214  0.1447
 6108W        W22002   5.923   4.004  13.126 -0.2090  0.2385 -0.1015
 6109W        W22003   0.797  14.126  16.546  0.0265  0.0856  0.0794
 6110W        W22004  13.641  10.539  14.403 -0.2624 -0.0103  0.0721
 6111W        W22005   8.879   0.380  17.233 -0.3446  0.3885 -0.1565
 6112W        W22006   3.271   1.245   5.890 -0.1897 -0.2630 -0.1100
 6113W        W22007  14.198   6.094   5.804 -0.1576 -0.0546  0.2077
 6114W        W22008  10.276   4.484  16.748  0.0547  0.0516 -0.2126
 6115W        W22009   6.606   1.445  16.710  0.2703  0.0703  0.1430
 6116W        W22010   6.458  15.041   3.251 -0.2492  0.1871  0.0247
 6117W        W22011  11.116   2.081  17.019  0.0333 -0.2681 -0.3572
 6118W        W22012  11.576  14.175   4.382  0.1751 -0.0492  0.3363
 6119W        W22013   7.957  10.685   2.426 -0.1186 -0.1457 -0.0941
 6120W        W22014   5.747  10.190   2.881 -0.1751 -0.1031 -0.2155
 6121W        W22015   0.040   8.560  14.585 -0.1714  0.0625  0.3003
 6122W        W22016   2.167   3.490  16.561  0.3567  0.0431 -0.1008
 6123W        W22017   3.909   4.183   2.528  0.1329 -0.3804 -0.0585
 6124W        W22018  10.490   6.052  14.216 -0.0007  0.0855  0.0434
 6125W        W22019  14.294   6.102  15.667  0.1917 -0.1831 -0.0331
 6126W        W22020   9.504  12.824  16.652 -0.1481  0.0456 -0.3643
 6127W        W22021  11.522   2.068   5.671  0.1165 -0.2950 -0.0702
 6128W        W22022   0.055  14.495  16.290  0.0156 -0.1855 -0.0520
 6129W        W22023   0.528  17.004   2.092  0.3767  0.1416 -0.0230
 6130W        W22024  16.981  15.189   2.083 -0.5610  0.0081  0.2383
 6131W        W22025   6.601  16.129  16.123 -0.1812  0.0019  0.2808
 6132W        W22026  10.215  14.142   1.452 -0.0392  0.1176 -0.1120
 6133W        W22027   8.692   0.130   3.645  0.3903  0.2360  0.0972
 6134W        W22028   1.717   8.233   6.441  0.0122  0.1558  0.1135
 6135W        W22029   6.578  14.201   1.094  0.1897 -0.0799 -0.0815
 6136W        W22030   9.883  10.563  14.633  0.1061  0.0332 -0.0773
 6137W        W22031   2.007  10.467  13.101 -0.2309  0.0027 -0.4064
 6138W        W22032  14.880  14.851   3.383  0.2614  0.0234 -0.1010
 6139W        W22033  10.690  13.075   4.392 -0.1539 -0.1794 -0.1552
 6140W        W22034   9.113   6.659  13.998  0.0735 -0.3189 -0.2220
 6141W        W22035   8.093  12.088   2.985  0.1126  0.3691 -0.0119
 6142W        W22036  11.353   9.028   4.164 -0.0093 -0.2601  0.2059
 6143W        W22037  17.440   8.697   5.254 -0.2639  0.0534 -0.1930
 6144W        W22038   8.099  14.612   4.053  0.0954  0.0098 -0.1279
 6145W        W22039   6.259  17.458   4.804  0.0168 -0.0638 -0.0468
 6146W        W22040  10.626   9.831  15.928 -0.1295 -0.0950 -0.0577
 6147W        W22041  11.352  12.594   5.207  0.1790  0.0280  0.0704
 6148W        W22042   2.884   7.278  15.205 -0.1486 -0.3108  0.0983
 6149W        W22043   2.065  16.341  14.093  0.0426  0.1053  0.0207
 6150W        W22044  15.885  14.587   3.000 -0.0590  0.1563  0.2787
 6151W        W22045  16.292  13.443  15.816  0.1554  0.0487 -0.1422
 6152W        W22046   5.513  10.571   3.019  0.2755 -0.1380 -0.2069
 6153W        W22047   2.020  16.915   2.696  0.0561 -0.3037  0.0486
 6154W        W22048   3.629  17.001   1.137 -0.1296 -0.0925  0.0556
 6155W        W22049   0.735   5.224  17.208 -0.0492  0.2677 -0.1439
 6156W        W22050  14.130  13.808  17.205 -0.0419 -0.2126 -0.0953
 6157W        W22051   1.594   2.514   1.919  0.1246  0.0295 -0.2194
 6158W        W22052  10.516   4.793   4.947 -0.1423  0.0476 -0.2112
 6159W        W22053  11.363   9.947   2.993  0.4200  0.0485  0.0448
 6160W        W22054  12.371   2.190   3.058 -0.1084 -0.1092 -0.0615
 6161W        W22055   5.452   3.665   2.654  0.1647 -0.3761  0.0709
 6162W        W22056   7.373   4.446   3.729  0.0978 -0.3313 -0.1017
 6163W        W22057   4.036  12.626  14.394 -0.0275 -0.1813 -0.4002
 6164W        W22058   8.502   8.671   1.471  0.1371 -0.1189  0.1384
 6165W        W22059   8.570  12.932   3.272 -0.2093  0.1440 -0.4017
 6166W        W22060   3.751  17.432   2.580  0.0024  0.5171  0.0118
 6167W        W22061   3.679   0.769   0.754 -0.0470  0.1647 -0.3569
 6168W        W22062  15.221   8.963   0.078 -0.3527  0.1702  0.1218
 6169W        W22063   0.684  16.694   0.640 -0.0121  0.0695  0.0785
 6170W        W22064   1.289  10.491  15.058 -0.1582 -0.1148  0.0712
 6171W        W22065  12.330   7.494  16.119  0.3785 -0.0279  0.0795
 6172W        W22066   0.779   3.573  13.761  0.0950 -0.3050  0.1772
 6173W        W22067   2.810  16.729  13.118  0.3049 -0.0994 -0.0165
 6174W        W22068   5.137  10.235  15.158 -0.1050 -0.1152  0.1567
 6175W        W22069   4.261   6.394   4.565  0.2975  0.2094  0.2151
 6176W        W22070  12.658   6.996  13.868 -0.1115 -0.0170 -0.0503
 6177W        W22071  16.607  17.119   5.531 -0.0202 -0.0890 -0.0652
 6178W        W22072  16.691   2.514   6.077  0.3772 -0.2239 -0.2602
 6179W        W22073   3.512  12.149   1.712 -0.2592  0.0217 -0.1171
 6180W        W22074  16.606   4.024   4.680 -0.0151  0.1398 -0.1478
 6181W        W22075  10.644  10.577   4.509  0.0015  0.0047  0.1524
 6182W        W22076  15.976   8.126   1.383  0.1580 -0.0379  0.3242
 6183W        W22077  15.421  15.691  14.075  0.0017 -0.2361  0.1261
 6184W        W22078   0.418   1.865  13.286  0.0311 -0.2314  0.1547
 6185W        W22079  16.782  17.189   3.438 -0.0973  0.1587 -0.2241
 6186W        W22080   7.930   4.839  11.910 -0.1743 -0.0019  0.1886
 6187W        W22081   9.915  12.791  16.309 -0.0530 -0.0772 -0.0729
 6188W        W22082  14.609  17.518   0.188  0.1167  0.1771  0.0575
 6189W        W22083  13.163  15.790   1.187  0.1470 -0.0478  0.0076
 6190W        W22084   1.932  10.079  13.899 -0.2881  0.1463 -0.3783
 6191W        W22085   8.134   4.353   4.260 -0.2501 -0.1532  0.1625
 6192W        W22086  15.698  14.616   0.191  0.0536 -0.3417 -0.3642
 6193W        W22087  10.433   6.245  11.394 -0.1014 -0.3917 -0.0689
 6194W        W22088  14.108  17.117   5.832  0.0860  0.3416  0.1049
 6195W        W22089   9.196   9.365  13.529 -0.0924  0.2695 -0.2084
 6196W        W22090  17.363   4.482   2.202 -0.0951  0.0828 -0.0633
 6197W        W22091   6.473   6.094  14.781 -0.1145  0.1755 -0.1768
 6198W        W22092  11.100   5.724  16.809  0.0921 -0.1144 -0.1080
 6199W        W22093  14.185  17.604   0.382  0.0199 -0.1549  0.0533
 6200W        W22094   5.212   8.678   1.126  0.2874  0.1181 -0.2651
 6201W        W22095   4.925  17.499  14.277  0.1288  0.0473 -0.1490
 6202W        W22096  15.898   8.668  16.250 -0.1829  0.0657 -0.1253
 6203W        W22097   8.300   5.322  12.859  0.5474 -0.0333 -0.1531
 6204W        W22098  15.254   3.084   6.131  0.0954 -0.0808  0.1461
 6205W        W22099   2.885   7.824  12.539 -0.0658 -0.3328  0.0943
 6206W        W22100  12.199   3.740   2.423  0.1043 -0.0935 -0.0619
 6207W        W22101  16.973   8.551   5.433 -0.0597  0.1140  0.0742
 6208W        W22102   1.730   0.735   5.807  0.3485  0.1848 -0.2053
 6209W        W22103  13.819  12.416  13.244  0.1733  0.3188  0.0572
 6210W        W22104  12.849   5.910   1.051 -0.1530 -0.2307 -0.2967
 6211W        W22105   5.942  11.003   3.922  0.0478 -0.0840 -0.2484
 6212W        W22106   8.242   2.348   0.456  0.0106 -0.0988 -0.0407
 6213W        W22107   3.035  11.031   5.459 -0.1858  0.1555 -0.1210
 6214W        W22108   6.953   7.662   0.268  0.0695  0.0887  0.1730
 6215W        W22109   5.396   9.453  12.215  0.1400 -0.0507 -0.3014
 6216W        W22110   0.394  15.365  14.297 -0.2298 -0.2582 -0.1679
 6217W        W22111   8.210   8.141  16.196  0.2160  0.0625  0.2859
 6218W        W22112   5.096   7.624   2.196 -0.1707  0.0274 -0.2888
 6219W        W22113  11.169  14.281   2.872  0.2338  0.0690  0.0121
 6220W        W22114   2.036   1.795   5.257  0.2060 -0.0477 -0.1369
 6221W        W22115  12.587   5.486   5.377 -0.0317  0.1310 -0.2457
 6222W        W22116  10.517  11.595   4.751  0.0402  0.1324  0.1675
 6223W        W22117   1.744   2.202  15.612  0.0028 -0.1586  0.0803
 6224W        W22118  15.229   2.024  11.914  0.1269  0.1596 -0.0226
 6225W        W22119  13.909  16.851   5.330  0.3118 -0.0379 -0.1302
 6226W        W22120  17.311   6.145  15.985  0.1884  0.1638 -0.1399
 6227W        W22121   2.713   6.625   4.163 -0.3452  0.1047 -0.1660
 6228W        W22122  15.622  13.591  12.860  0.1348 -0.2990  0.1572
 6229W        W22123  14.326  10.612   0.757 -0.1502 -0.0753  0.1020
 6230W        W22124  12.960   6.431   1.569 -0.5016 -0.1444  0.1723
 6231W        W22125  12.711  13.942  11.595  0.0981  0.0709  0.0617
 6232W        W22126  13.738   4.011   3.529 -0.2129 -0.0858  0.0512
 6233W        W22127  14.382   9.410   1.890 -0.2767 -0.0485  0.1059
 6234W        W22128   6.454   8.199   2.004 -0.2797 -0.0423  0.2589
 6235W        W22129  17.467   1.231  11.959  0.0909  0.1886  0.1160
 6236W        W22130  11.638   0.046  13.817  0.3727  0.0171 -0.2601
 6237W        W22131   3.136  12.182  13.822  0.5522  0.2300  0.0738
 6238W        W22132  14.878   3.449   1.167 -0.0883 -0.0416  0.0737
 6239W        W22133   4.089   8.228   2.540  0.1191 -0.0634  0.0227
 6240W        W22134   5.090  13.582   2.248 -0.1988  0.0418  0.2376
 6241W        W22135   5.281   4.091  15.554 -0.1397  0.2860  0.0848
 6242W        W22136   0.445   6.470  12.671 -0.5119 -0.0202 -0.0417
 6243W        W22137  12.022  17.407   4.694  0.3758 -0.1422  0.0075
 6244W        W22138  13.775   3.301   0.104 -0.2353  0.3816 -0.0599
 6245W        W22139   4.508   3.277   1.545 -0.0185 -0.2549 -0.1488
 6246W        W22140   5.020   7.732  13.369  0.2558  0.1166  0.1091
 6247W        W22141  15.595   9.374  13.399 -0.4411 -0.1418  0.1927
 6248W        W22142  17.224   7.128  13.776 -0.0555  0.0385 -0.0814
 6249W        W22143  11.525  12.746   1.023  0.1561  0.0682  0.3106
 6250W        W22144  11.276   7.508   4.395  0.0819  0.2524  0.3816
 6251W        W22145  10.975   8.185   4.385 -0.2312  0.0262  0.3664
 6252W        W22146   0.137   7.350   6.476 -0.3753 -0.1139 -0.0608
 6253W        W22147  14.333   9.638  11.515  0.2124 -0.0538  0.0317
 6254W        W22148   4.467   4.378  13.143 -0.0436  0.0460 -0.0157
 6255W        W22149   3.835   4.918   4.100  0.3093  0.0890  0.2539
 6256W        W22150   3.694   4.818  12.679  0.0862 -0.0496  0.0231
 6257W        W22151  17.614  13.136  12.881 -0.3972 -0.2010  0.1307
 6258W        W22152  10.877   8.055   3.802 -0.0560  0.2520 -0.4415
 6259W        W22153   7.712   0.992  14.769  0.0310  0.0798 -0.2304
 6260W        W22154  12.673   9.217  13.338  0.0144  0.1694 -0.1563
 6261W        W22155  10.519   3.368  12.414 -0.1039  0.0467 -0.0840
 6262W        W22156   5.480  17.051  14.284  0.2341 -0.2236  0.0902
 6263W        W22157   1.357  16.968  17.051 -0.3552 -0.1246 -0.3446
 6264W        W22158   3.744  11.806  15.962 -0.3275  0.3543  0.2199
 6265W        W22159  13.083   9.877  13.926 -0.1626 -0.2223 -0.2163
 6266W        W22160   0.074   8.149   0.974 -0.5471 -0.0119 -0.0291
 6267W        W22161  13.118   7.819  12.068 -0.0597 -0.1518  0.0140
 6268W        W22162  17.249   4.784   6.330 -0.0601  0.0411  0.1047
 6269W        W22163   6.818  11.230   3.547 -0.5361 -0.3251 -0.1869
 6270W        W22164   3.603   4.810  13.485  0.0689  0.1075 -0.0255
 6271W        W22165  16.114   8.529  15.153 -0.2796  0.0471  0.3100
 6272W        W22166  10.986   5.664   3.605 -0.2317 -0.6053  0.1946
 6273W        W22167   3.096  16.057  16.075 -0.0645 -0.1377  0.1717
 6274W        W22168   1.371   9.538  15.307 -0.2107 -0.1474  0.1974
 6275W        W22169   7.325   0.542   3.969 -0.0043  0.1073 -0.1387
 6276W        W22170   7.493  14.565   2.486  0.2102 -0.2639 -0.2283
 6277W        W22171   8.895  10.020  16.998 -0.0668  0.4291 -0.1800
 6278W        W22172  13.145   4.922  13.782 -0.3736  0.2526  0.0903
 6279W        W22173  16.913   9.221  13.498 -0.3366  0.0490  0.1955
 6280W        W22174  15.338   8.077   3.000  0.0633 -0.1194  0.1427
 6281W        W22175   7.952   7.620  13.984 -0.0782  0.2139 -0.0872
 6282W        W22176  10.192   3.178  17.239 -0.0585  0.1657 -0.0064
 6283W        W22177  13.434  15.592   4.623  0.0457 -0.2657  0.1800
 6284W        W22178  14.479  11.230   1.751  0.1635 -0.3941 -0.0299
 6285W        W22179   0.537  12.181   3.280 -0.1532  0.0243  0.2703
 6286W        W22180   1.242   4.192   0.224  0.0355  0.2139  0.1053
 6287W        W22181  16.603   1.892  11.768  0.1325 -0.0677 -0.1147
 6288W        W22182   8.117   6.069  16.336  0.2224 -0.1599 -0.1684
 6289W        W22183  17.181   3.077  15.741 -0.1050 -0.0634  0.1638
 6290W        W22184   9.095  11.369   2.297 -0.2122  0.0455 -0.0058
 6291W        W22185  10.280   7.043   0.014 -0.0108  0.0704 -0.0073
 6292W        W22186   9.089  11.973   1.610 -0.0134  0.0907  0.0692
 6293W        W22187   1.520  13.182   1.316  0.2991 -0.0973 -0.0673
 6294W        W22188   9.308   5.461   5.959  0.3661 -0.1429 -0.2172
 6295W        W22189   1.426   5.672   3.283 -0.0829 -0.1147 -0.2100
 6296W        W22190   3.282  15.109  16.052  0.1413 -0.1229  0.0929
 6297W        W22191   8.260  13.487  16.696  0.3834 -0.2818 -0.0476
 6298W        W22192   6.036   5.222   5.894 -0.1803  0.0594 -0.0352
 6299W        W22193  14.975   4.858  12.407  0.1287 -0.0156  0.0812
 6300W        W22194  15.968   8.428  15.808  0.0111 -0.1469 -0.1089
 6301W        W22195  14.117   3.618  13.494  0.0856  0.6597 -0.3591
 6302W        W22196  10.741   9.736  11.036  0.0566 -0.0117 -0.3461
 6303W        W22197  17.587   5.885   2.798 -0.0776  0.0440  0.1949
 6304W        W22198   5.441   3.914   3.650  0.0188 -0.0199 -0.1914
 6305W        W22199   4.389  17.014   0.592 -0.1471 -0.1435 -0.0150
 6306W        W22200  12.648  15.828  11.716  0.0278  0.2196 -0.1887
 6307W        W22201  11.041   1.936   4.893  0.0117  0.1609  0.0439
 6308W        W22202  13.748  11.012  14.356 -0.2430  0.0941 -0.0866
 6309W        W22203   4.968   5.274  14.601  0.2554 -0.1849  0.1299
 6310W        W22204   0.655   2.360  14.790 -0.0072  0.0284 -0.2023
 6311W        W22205   1.789   1.493   3.084 -0.1499  0.1216 -0.1288
 6312W        W22206  15.566  10.596  13.895  0.0412  0.1583 -0.3510
 6313W        W22207   2.272  14.412   2.396 -0.1647 -0.1597  0.0418
 6314W        W22208  12.425  16.755  12.296 -0.0695 -0.1594  0.2547
 6315W        W22209  10.274   9.744  17.276 -0.0119  0.0954 -0.0288
 6316W        W22210  14.776   5.718   2.497  0.4198  0.0789 -0.0694
 6317W        W22211   6.726   2.659  14.813 -0.3059 -0.0864 -0.0849
 6318W        W22212  15.582   9.080   2.570  0.1239 -0.2467  0.0243
 6319W        W22213   1.757  17.634  15.531 -0.4110  0.2638  0.5145
 6320W        W22214  10.890   0.849  16.186  0.1592  0.1498 -0.1585
 6321W        W22215   1.278   9.549   2.374 -0.2091 -0.2617  0.1146
 6322W        W22216  10.720   9.069  12.884  0.1927  0.1684  0.0075
 6323W        W22217  17.192  10.390  13.744 -0.0202 -0.3708  0.0727
 6324W        W22218  13.286   9.336  16.602 -0.1916  0.0022 -0.3503
 6325W        W22219  14.242   7.531   1.919 -0.1098  0.4159  0.0315
 6326W        W22220   2.262  12.788  16.237 -0.0046  0.0589 -0.1279
 6327W        W22221  10.559  13.133   5.767 -0.1578 -0.1872 -0.1308
 6328W        W22222   4.208   1.710  13.603 -0.2663  0.1630  0.1709
 6329W        W22223   6.571   8.222  13.836  0.1772 -0.1972  0.4452
 6330W        W22224  13.672  16.004  15.326  0.0411  0.0082  0.0971
 6331W        W22225   3.904   3.018   0.075  0.2976  0.1821 -0.1712
 6332W        W22226  13.122  16.062   2.906  0.0630  0.0218 -0.0938
 6333W        W22227   8.413   4.800   3.088 -0.0321 -0.0187 -0.0564
 6334W        W22228  14.541   1.531   3.624  0.0180  0.1241  0.0186
 6335W        W22229   8.059  17.126  13.145  0.0064  0.1606 -0.0746
 6336W        W22230   7.401  14.502  12.193  0.1373 -0.1270  0.0458
 6337W        W22231   0.044  15.604   2.496  0.2247 -0.1245  0.2086
 6338W        W22232  16.120  11.530  13.401  0.1863 -0.1611  0.0420
 6339W        W22233   5.888   5.648   3.075 -0.0243  0.0481 -0.1017
 6340W        W22234   4.588  12.947   0.415  0.0287  0.0545 -0.0877
 6341W        W22235   4.446   5.929   4.660  0.2129  0.1777 -0.2425
 6342W        W22236   6.691  15.330   1.886  0.0299  0.2742  0.0622
 6343W        W22237   2.917  13.122  11.264  0.0992 -0.1606 -0.1556
 6344W        W22238  16.785   6.151  16.966  0.0056  0.2645 -0.2269
 6345W        W22239   8.525  12.460  13.246 -0.0193  0.0745 -0.1921
 6346W        W22240   8.879  17.274   4.598 -0.0997 -0.1387 -0.0543
 6347W        W22241  10.278   1.118   2.629  0.2643  0.2840  0.1867
 6348W        W22242   4.260   3.632  13.287  0.4117 -0.0982 -0.3070
 6349W        W22243   9.786  11.981  13.572  0.0671  0.0638  0.1742
 6350W        W22244  15.979  12.987  13.458  0.1243 -0.1627 -0.0728
 6351W        W22245  16.473  16.247  14.348 -0.1209 -0.1704 -0.0841
 6352W        W22246  12.612   0.799   5.486  0.0579 -0.0611 -0.1055
 6353W        W22247  13.875   4.245   4.044 -0.0688 -0.0375  0.1470
 6354W        W22248   9.993  17.201  14.033 -0.1829  0.0038 -0.2034
 6355W        W22249   3.799  13.200   2.575 -0.1860  0.0415 -0.0146
 6356W        W22250  15.757   4.334   0.906  0.0663  0.3207 -0.1818
 6357W        W22251  14.313  15.646   1.568 -0.4473 -0.0377 -0.0764
 6358W        W22252   2.364  12.721  12.570 -0.2865  0.0058  0.3180
 6359W        W22253   0.231  12.027   3.654  0.0351 -0.2999 -0.1852
 6360W        W22254   2.028  11.749  12.708 -0.1902 -0.1040  0.2979
 6361W        W22255  13.394  13.255   3.520  0.1977  0.0805 -0.2530
 6362W        W22256   2.830  14.762   6.088 -0.1214 -0.1021 -0.0448
 6363W        W22257   4.927   5.322  15.780 -0.3851  0.2106  0.2157
 6364W        W22258   4.940   3.167   0.050 -0.1399 -0.1640  0.2131
 6365W        W22259   1.687  16.463  13.776  0.2253  0.0414  0.1318
 6366W        W22260  12.121   6.899   0.138  0.0849  0.1630  0.1576
 6367W        W22261  11.398  14.254   2.099  0.1105 -0.1503  0.2417
 6368W        W22262  11.889  10.114   2.740 -0.0041 -0.1228 -0.1385
 6369W        W22263   8.012   1.275  12.341 -0.2593 -0.0183  0.2012
 6370W        W22264  15.057   5.980  11.870 -0.0596 -0.0535  0.0306
 6371W        W22265  17.225  16.606   2.191 -0.2360 -0.1792 -0.2576
 6372W        W22266   7.823   5.758  14.465  0.2841 -0.1476  0.1226
 6373W        W22267  11.370  10.368   1.983  0.1175 -0.0346 -0.0550
 6374W        W22268  11.453  10.262  15.493 -0.2038  0.0171 -0.2536
 6375W        W22269   8.697  17.137   0.904 -0.0759  0.0570 -0.1347
 6376W        W22270   1.013   9.417   2.795 -0.2787 -0.1165 -0.1082
 6377W        W22271   6.455  14.936   1.716  0.1525  0.0889  0.0463
 6378W        W22272  15.707   2.057  11.929  0.0782 -0.0384 -0.0700
 6379W        W22273  15.055  11.051   6.226  0.0017 -0.3061  0.1641
 6380W        W22274   6.909   3.680   1.703 -0.0015  0.0711 -0.1031
 6381W        W22275  10.580   3.603   3.862  0.2098  0.0211  0.3059
 6382W        W22276   4.441  10.235  12.003 -0.0365  0.2391 -0.0086
 6383W        W22277   4.415  14.821   5.723 -0.0064  0.1617  0.0236
 6384W        W22278  15.333   3.455  14.690 -0.1708 -0.0345  0.0323
 6385W        W22279   6.750   4.377  13.654  0.1723 -0.4492 -0.2296
 6386W        W22280  15.112  12.883  14.413 -0.4808  0.1349 -0.1646
 6387W        W22281   8.151  12.207  11.978 -0.1481  0.0184 -0.0463
 6388W        W22282  11.675   3.904   0.994  0.1368 -0.1163 -0.2350
 6389W        W22283  17.561   1.273  15.315 -0.0715 -0.0816  0.1431
 6390W        W22284  15.594   5.373   5.027 -0.2711  0.0139  0.3090
 6391W        W22285   8.284  16.683  12.414 -0.0185 -0.0051 -0.0821
 6392W        W22286   3.495  11.783  12.981  0.4276 -0.0673  0.0288
 6393W        W22287  12.989  16.326   1.897  0.2306  0.0335  0.1520
 6394W        W22288   1.800   6.966   3.165  0.2185 -0.0193 -0.2022
 6395W        W22289   6.537   1.027   5.517 -0.0644  0.0275 -0.0863
 6396W        W22290   1.475  13.194  13.925 -0.4434  0.1440 -0.2618
 6397W        W22291   5.180   1.458   3.168  0.1032  0.0344  0.0550
 6398W        W22292   3.114  15.511  13.224  0.0695 -0.2681  0.1182
 6399W        W22293  16.371   7.424   3.743  0.0471 -0.1298  0.1950
 6400W        W22294   9.902   8.051  11.689 -0.0129  0.2449 -0.0571
 6401W        W22295   5.237  13.130  10.760 -0.0045  0.0574  0.0782
 6402W        W22296   6.988   8.974  15.733  0.0376 -0.4459 -0.0835
 6403W        W22297   8.968   0.137   1.549  0.2634 -0.1621 -0.0938
 6404W        W22298   0.783  14.976   0.762 -0.3629  0.0105 -0.0079
 6405W        W22299   4.046   4.035  16.515  0.0298  0.0561  0.0966
 6406W        W22300   4.531   8.696  16.066  0.0722  0.1559 -0.1685
 6407W        W22301   9.038  10.392  12.598  0.0381  0.2582 -0.3783
 6408W        W22302  12.334  10.279  16.026 -0.0765  0.2206 -0.2455
 6409W        W22303  16.544   4.077  12.648  0.2806 -0.2516 -0.2472
 6410W        W22304  10.182  16.107   3.185  0.1946 -0.0439  0.1457
 6411W        W22305  11.384  13.350  14.841 -0.0325 -0.0644  0.0629
 6412W        W22306  15.076  10.276  13.488 -0.2243  0.1702  0.1632
 6413W        W22307   9.136   5.696   2.535  0.0807 -0.1640 -0.1546
 6414W        W22308  14.762  15.439   1.959 -0.0048  0.3086  0.0247
 6415W        W22309   1.502  12.783   3.042  0.0461 -0.5138 -0.2494
 6416W        W22310  13.345  13.069   4.542 -0.0696 -0.2514  0.0434
 6417W        W22311  11.737  15.935  14.617 -0.0085  0.0198 -0.1881
 6418W        W22312   8.012  14.266  16.237  0.0458 -0.1117  0.2064
 6419W        W22313   6.236   7.276   0.478  0.0013  0.1103 -0.1619
 6420W        W22314   3.292  10.320   2.319  0.1891 -0.1969  0.0308
 6421W        W22315   7.363   2.550  15.040 -0.0981 -0.1079 -0.2956
 6422W        W22316  13.264   9.834  15.082  0.0233 -0.3755  0.0077
 6423W        W22317   5.185   3.482   0.567 -0.0815 -0.0223  0.2701
 6424W        W22318   4.073  11.951   1.053 -0.2325  0.0494 -0.1433
 6425W        W22319  16.794   4.015   0.731 -0.2872  0.0762  0.0475
 6426W        W22320   0.356   4.843   0.420 -0.0256  0.1613  0.1889
 6427W        W22321   3.294   2.097  17.177 -0.2691 -0.0416  0.0286
 6428W        W22322   3.522  11.481   3.801 -0.2331 -0.2563 -0.1425
 6429W        W22323  11.132  14.795  15.936  0.1632  0.2187  0.4175
 6430W        W22324  12.319  14.370   0.389  0.2367 -0.0078  0.0652
 6431W        W22325   5.586  17.192   0.095 -0.2932  0.1722  0.1545
 6432W        W22326   8.324   4.952  13.208 -0.0760  0.1704  0.3423
 6433W        W22327   6.604   4.867  16.691  0.1286 -0.0671  0.1184
 6434W        W22328  12.060  13.072  16.553  0.2604  0.1699 -0.0857
 6435W        W22329   0.515   7.026   0.358 -0.0266  0.1104  0.1418
 6436W        W22330  11.485   9.282  15.209 -0.0360  0.1819 -0.1213
 6437W        W22331  13.475  11.719   0.058 -0.0572 -0.0286 -0.0506
 6438W        W22332   2.240   6.484  16.764 -0.0060  0.1565 -0.0677
 6439W        W22333   2.975  12.476  13.396  0.0368 -0.0820 -0.1278
 6440W        W22334  13.933  17.467   3.991 -0.1011 -0.0096 -0.0002
 6441W        W22335   2.211   1.101  13.323  0.2643  0.3640  0.1251
 6442W        W22336   0.147  15.905  15.957  0.2258  0.0391  0.1562
 6443W        W22337  13.475   2.907   3.870 -0.3070  0.0851 -0.1355
 6444W        W22338  16.110   3.604  15.775 -0.0034 -0.0798  0.2011
 6445W        W22339  12.033  15.965  13.278 -0.0161  0.0320 -0.0808
 6446W        W22340   0.921  12.973  12.961  0.4661 -0.1897  0.3859
 6447W        W22341  17.307   9.782   0.241 -0.0085  0.5590 -0.2535
 6448W        W22342  17.237   0.072   1.330 -0.0784  0.2328 -0.3831
 6449W        W22343   0.237   6.731   1.605 -0.1534  0.0752  0.3910
 6450W        W22344   1.306   7.330   6.157  0.0988  0.0507  0.3260
 6451W        W22345   8.422   0.206  13.717 -0.4810 -0.0591 -0.1809
 6452W        W22346  15.932  13.698   3.905 -0.1673  0.2263  0.1846
 6453W        W22347   2.294   1.965   0.397  0.0044 -0.1737 -0.3110
 6454W        W22348   1.805   8.999  12.304 -0.1480  0.1179  0.0114
 6455W        W22349  14.020  14.427   3.082 -0.1050  0.0711  0.0884
 6456W        W22350   5.554  13.896   3.495 -0.0025  0.1715 -0.1152
 6457W        W22351  15.894  10.859   2.090  0.1400 -0.1312  0.0316
 6458W        W22352   5.437  16.169   3.872 -0.0445  0.1622  0.3543
 6459W        W22353   0.965   7.330   0.222  0.0148 -0.1483  0.0927
 6460W        W22354  16.089  15.516   4.794 -0.2389  0.0380  0.0844
 6461W        W22355  13.093  14.018   1.081 -0.2629 -0.0593  0.1663
 6462W        W22356  12.309  13.334   1.268 -0.2333 -0.0649 -0.1475
 6463W        W22357   3.722   5.993  12.690 -0.1790 -0.0375 -0.0402
 6464W        W22358  10.267  16.233  14.957 -0.2572  0.1342  0.1591
 6465W        W22359  15.172  13.236  13.597  0.4695  0.1417 -0.3341
 6466W        W22360   8.836   1.976   1.133 -0.0531  0.5929 -0.0320
 6467W        W22361  16.577  16.387  12.159 -0.0076 -0.1561 -0.0067
 6468W        W22362   6.091  11.579  13.979 -0.1245  0.0372 -0.0559
 6469W        W22363   0.678  17.484  14.122 -0.0105  0.0186 -0.0460
 6470W        W22364  15.621   1.041  13.312  0.3820 -0.1632  0.0440
 6471W        W22365   0.890   4.814   0.614 -0.2536 -0.2504  0.2352
 6472W        W22366   6.297   6.015   3.204  0.1498 -0.0470 -0.1700
 6473W        W22367  12.676  16.364   4.799  0.4305 -0.2874  0.2518
 6474W        W22368   0.840   2.639   0.425 -0.0125  0.0308 -0.1070
 6475W        W22369  12.628  10.963   0.905  0.0786 -0.0125 -0.0156
 6476W        W22370  12.655  13.664   3.996  0.1835 -0.3326 -0.1743
 6477W        W22371  12.199  15.127  13.024  0.0190 -0.0635 -0.1460
 6478W        W22372  11.870  11.696  12.934 -0.0116 -0.1562  0.0048
 6479W        W22373  11.557  12.879  17.300  0.0871 -0.1162 -0.2131
 6480W        W22374   2.084   4.045  14.251  0.0802 -0.1004  0.5666
 6481W        W22375  13.776   4.824   1.983 -0.1496 -0.3072  0.0431
 6482W        W22376  15.915   2.388   4.043  0.1629  0.0820  0.0600
 6483W        W22377  16.242  16.674  11.735 -0.0080 -0.0272  0.1970
 6484W        W22378   2.458  13.721   0.213 -0.1371  0.1369  0.3824
 6485W        W22379  12.598  15.031  17.156 -0.1184  0.1697  0.0574
 6486W        W22380  13.839   6.423   5.172  0.1454  0.0131  0.0347
 6487W        W22381   2.296  15.930   5.532 -0.1273 -0.4612  0.1434
 6488W        W22382  13.714  16.863  15.996  0.1217 -0.2010 -0.0039
 6489W        W22383   6.236  15.434   5.511  0.0085 -0.0779 -0.1349
 6490W        W22384   9.473  13.946   3.853  0.0317 -0.2159 -0.1764
 6491W        W22385   2.503  11.213  13.931 -0.1045 -0.1717  0.0732
 6492W        W22386  10.126   4.592   4.686  0.1543 -0.3840  0.0726
 6493W        W22387  16.572   3.654  14.594  0.0724 -0.0275 -0.2126
 6494W        W22388  17.193  16.512  16.437  0.0069  0.1968  0.0683
 6495W        W22389   4.890   7.160  15.460 -0.1534 -0.0390 -0.0545
 6496W        W22390   4.177   9.192   4.393  0.2085  0.0916 -0.1951
 6497W        W22391  11.825  14.262  17.127 -0.0229 -0.2080 -0.1660
 6498W        W22392  10.480   3.597  12.856  0.1787 -0.0434  0.3171
 6499W        W22393  11.578   3.663  12.640 -0.1936  0.0391  0.0839
 6500W        W22394  10.016   8.811  14.455  0.2990  0.3292  0.0602
 6501W        W22395   6.875   1.008  16.770 -0.2393 -0.0217 -0.0966
 6502W        W22396  16.777  13.572  16.051  0.0764  0.2500  0.3779
 6503W        W22397  10.253   2.712  15.056  0.1386  0.0120  0.0306
 6504W        W22398   4.093   6.226   2.744  0.0616 -0.3114 -0.0488
 6505W        W22399   0.291   5.008   1.313 -0.1991 -0.0865  0.1632
 6506W        W22400  10.856   1.915   2.220  0.2614 -0.1378  0.0661
 6507W        W22401   8.012   0.575   1.621  0.0774  0.0381 -0.0368
 6508W        W22402  16.381  12.880   5.586  0.1099  0.1156  0.0178
 6509W        W22403   8.651  11.123   1.987  0.0196 -0.2679 -0.0606
 6510W        W22404   2.500  10.151   4.316  0.3060 -0.1627  0.1378
 6511W        W22405   0.591  11.376   4.334 -0.0195  0.1858  0.0102
 6512W        W22406   6.125  14.429   0.421 -0.0940  0.0709 -0.1367
 6513W        W22407  16.112  13.319  16.988  0.1457  0.0458 -0.3790
 6514W        W22408  15.466   7.742  13.436  0.3212  0.0356 -0.2013
 6515W        W22409  12.626   7.235  14.306 -0.0949 -0.1511  0.1220
 6516W        W22410   7.555   9.853   1.884 -0.0565 -0.0196 -0.0462
 6517W        W22411  10.621   3.065   0.390  0.3865  0.2478  0.2732
 6518W        W22412  10.155  15.738  14.609  0.1617  0.1102  0.2531
 6519W        W22413  14.404  14.508   4.740  0.0695 -0.2414 -0.0023
 6520W        W22414   2.244   1.711   2.091  0.0747 -0.1855  0.1327
 6521W        W22415  11.426   6.075   2.086  0.2004 -0.1939  0.4037
 6522W        W22416   5.781  12.332  17.261 -0.0148 -0.0586  0.4155
 6523W        W22417  17.131  17.314  16.902 -0.1131  0.0052  0.2120
 6524W        W22418   8.382  10.222   2.060 -0.2191  0.2043  0.1112
 6525W        W22419   2.175  10.890   5.489 -0.3987 -0.0145 -0.0720
 6526W        W22420   5.430   4.121   5.682  0.0910  0.2622 -0.1169
 6527W        W22421   0.102   4.970  16.628  0.1235  0.3005  0.1949
 6528W        W22422  12.159   6.113   3.417 -0.1478 -0.0480 -0.0716
 6529W        W22423   5.395   7.402  12.002  0.1915 -0.1282 -0.2142
 6530W        W22424   2.315   0.632   3.093 -0.0416  0.1753  0.3240
 6531W        W22425  16.066   4.985  16.367  0.0253  0.2003  0.2361
 6532W        W22426   5.648   7.388  12.805  0.1879  0.1020  0.0060
 6533W        W22427   4.990  16.796  15.370 -0.1889  0.1227 -0.2249
 6534W        W22428   1.774  16.408   6.797 -0.0140 -0.0744 -0.1593
 6535W        W22429  16.846  16.259  16.260 -0.2367  0.0458 -0.1292
 6536W        W22430   2.770  13.032  14.297  0.1205 -0.1382 -0.0818
 6537W        W22431  15.653  14.086   4.114 -0.0186  0.4096 -0.0892
 6538W        W22432   8.162   4.114   5.889 -0.0067  0.1768 -0.1838
 6539W        W22433   0.204   5.128   3.114 -0.0019  0.1555  0.1003
 6540W        W22434  13.060   6.364   1.003  0.1467 -0.3685 -0.0877
 6541W        W22435   4.693   7.921  16.787 -0.1054  0.1213 -0.0966
 6542W        W22436  12.138  16.255   4.965  0.0662  0.0008  0.2238
 6543W        W22437   9.957   8.923  12.181 -0.0088  0.0755  0.1431
 6544W        W22438   8.211  10.547   5.364  0.0169  0.0322  0.2725
 6545W        W22439   0.650  14.868  12.324 -0.0184  0.0280 -0.1618
 6546W        W22440  12.762  12.034   2.549  0.4144 -0.2988  0.3282
 6547W        W22441   0.457  17.268   5.353  0.1509  0.3383  0.0253
 6548W        W22442   5.590  14.076   4.435 -0.1445  0.2208  0.2214
 6549W        W22443   3.253   6.339   2.347  0.0682  0.1339  0.1791
 6550W        W22444   1.243   6.576   2.954 -0.1228  0.4525 -0.0025
 6551W        W22445  13.042  15.510  16.482  0.2439 -0.1281 -0.1038
 6552W        W22446  11.224   4.989  16.367 -0.1729  0.0003 -0.0446
 6553W        W22447   7.486  13.329   1.099  0.1691  0.1341  0.0846
 6554W        W22448  12.067   0.966  16.685 -0.1614  0.1893 -0.1670
 6555W        W22449   7.490   4.625   3.268 -0.0588 -0.1932  0.0136
 6556W        W22450   2.469  17.318   5.752 -0.1314 -0.1683  0.2051
 6557W        W22451   3.718  10.363   5.047  0.0814 -0.1552 -0.0488
 6558W        W22452  10.225   4.375   5.117 -0.1661 -0.2332  0.1661
 6559W        W22453  14.185  17.107   5.028 -0.0340  0.1164 -0.2748
 6560W        W22454  16.213  16.213  16.221 -0.1640  0.0002  0.0990
 6561W        W22455  17.050  11.904  16.985  0.0306  0.0498 -0.0338
 6562W        W22456  11.513   3.945  13.074 -0.1306 -0.0346 -0.3072
 6563W        W22457  14.591   1.642   6.434 -0.2625 -0.3019  0.0731
 6564W        W22458  11.662   4.850  12.660 -0.1725 -0.0261 -0.0893
 6565W        W22459  17.520  16.881   3.046  0.1324 -0.3008 -0.3968
 6566W        W22460  13.276   2.212   5.411  0.0998  0.2138  0.0863
 6567W        W22461   3.548   5.619   4.611 -0.3125  0.0415 -0.0074
 6568W        W22462  12.047  11.903   5.932 -0.2021  0.0372 -0.1116
 6569W        W22463   4.717   1.767   3.193 -0.0340  0.0514  0.0710
 6570W        W22464  13.265   4.071   1.623  0.1689 -0.3017  0.0953
 6571W        W22465   4.527   2.589  13.450 -0.0428 -0.0084  0.2571
 6572W        W22466   0.271  12.344   6.441  0.0036 -0.2735  0.0437
 6573W        W22467   6.660  12.399  12.462  0.1645 -0.0950  0.0040
 6574W        W22468  15.433   5.584   3.903  0.1308  0.3020 -0.2190
 6575W        W22469  14.825  14.927  12.994 -0.0569 -0.0131 -0.0287
 6576W        W22470  16.679   2.888  13.245 -0.2843 -0.1740  0.0328
 6577W        W22471  13.889  12.805   3.929 -0.0111 -0.1930 -0.1784
 6578W        W22472   3.013  16.565  13.820 -0.1500 -0.4652 -0.0512
 6579W        W22473  15.880  11.725   4.957 -0.0739 -0.0707 -0.3314
 6580W        W22474   1.739   9.513   3.604  0.1157  0.1082  0.0343
 6581W        W22475  12.017  12.062   3.961 -0.2027  0.1347  0.3340
 6582W        W22476   1.656   6.003  13.242 -0.2330 -0.0754 -0.0600
 6583W        W22477   7.184   1.495  13.296  0.2338 -0.0337 -0.1730
 6584W        W22478   4.254   8.150  16.694  0.2294 -0.0085  0.1931
 6585W        W22479  12.470   2.626   0.096 -0.1018  0.0311  0.1781
 6586W        W22480   9.288   7.607  16.042 -0.2466 -0.1092 -0.0635
 6587W        W22481   5.806   8.360   4.204 -0.3906  0.1005  0.0304
 6588W        W22482  12.118   7.835   4.648  0.0886 -0.0961 -0.1643
 6589W        W22483   6.369   6.835   1.755 -0.1799  0.0620  0.0099
 6590W        W22484   5.923  13.799  13.496 -0.2030 -0.0540  0.2227
 6591W        W22485   3.054   8.080   3.719  0.0082  0.0993  0.0978
 6592W        W22486   9.173   4.850   3.628 -0.2936 -0.2504  0.1192
 6593W        W22487   2.161  14.237  13.508 -0.4005 -0.1881  0.1792
 6594W        W22488  16.116   9.440   2.052  0.0064 -0.2531 -0.2896
 6595W        W22489   1.796  14.373  12.448 -0.3914  0.2170 -0.1269
 6596W        W22490   1.301  13.992  15.633 -0.0577  0.2357  0.1661
 6597W        W22491   6.065   1.661   5.070  0.1509  0.0447 -0.2053
 6598W        W22492   4.758  16.328  13.492  0.0016 -0.4047  0.1040
 6599W        W22493  17.290  15.241   2.870  0.0419 -0.1656  0.0861
 6600W        W22494   7.507   8.040   4.382  0.1835 -0.0840  0.1355
 6601W        W22495  13.883   1.942  17.252  0.1058 -0.2302  0.0043
 6602W        W22496   0.362   8.070  13.760  0.0717 -0.1097 -0.0069
 6603W        W22497   9.642   0.262   3.205 -0.0047 -0.1372 -0.2959
 6604W        W22498   1.286  12.887   4.159  0.1146  0.0912  0.3908
 6605W        W22499  12.740   8.678  11.606 -0.3150  0.1275  0.0958
 6606W        W22500   7.251  12.231  15.810 -0.2702  0.0263  0.0389
 6607W        W22501  15.133   8.976  13.625  0.0980  0.0875 -0.2124
 6608W        W22502  13.210   7.925   2.173  0.4339  0.2667 -0.2000
 6609W        W22503   9.809  10.091   0.026 -0.1002  0.1689  0.1968
 6610W        W22504   3.507  13.488  14.607 -0.1009  0.1248  0.0384
 6611W        W22505   1.595  14.965  14.755  0.2929  0.4266 -0.0068
 6612W        W22506  14.514  11.509   1.253 -0.3901  0.0141  0.3392
 6613W        W22507  14.615  12.528   0.175 -0.0128  0.3252  0.2189
 6614W        W22508   2.358   2.818   4.404  0.0165  0.1833 -0.0949
 6615W        W22509   2.336   4.303   0.490  0.2051  0.0672  0.1371
 6616W        W22510  13.978  10.440   5.303  0.4180 -0.0559 -0.5245
 6617W        W22511   1.866  11.825  13.188 -0.2650 -0.0102  0.0200
 6618W        W22512  15.055   9.599   2.089 -0.1478 -0.0776  0.2354
 6619W        W22513   1.565   2.152  13.170 -0.1952 -0.4250 -0.0872
 6620W        W22514   6.955   6.905  12.759 -0.0890  0.2693 -0.0201
 6621W        W22515   3.443   6.170  13.281 -0.1638 -0.0106 -0.1369
 6622W        W22516  10.533   5.337   5.028 -0.1566  0.1776  0.0756
 6623W        W22517   8.393  12.491   3.058  0.0976 -0.1992 -0.0695
 6624W        W22518   5.792  17.582  15.751  0.1291 -0.0845 -0.2703
 6625W        W22519  12.558   5.907  11.722 -0.0794  0.0938 -0.1503
 6626W        W22520   4.803   3.675   1.841 -0.0400 -0.0649  0.1167
 6627W        W22521   3.109  15.369  16.895  0.0028  0.3229  0.0426
 6628W        W22522   7.323  15.128   5.235  0.1589  0.1124 -0.2044
 6629W        W22523   9.575  10.358  11.748  0.1753 -0.0565 -0.0623
 6630W        W22524   7.087  15.045  15.430  0.2881 -0.1580  0.0349
 6631W        W22525   2.981  13.825  15.904  0.0555  0.1957  0.0092
 6632W        W22526  14.021   9.003  13.146 -0.0400  0.0454  0.1282
 6633W        W22527  16.156  16.349  13.913 -0.0860  0.0742  0.0943
 6634W        W22528   5.466   3.114  16.559 -0.4264  0.4255 -0.1205
 6635W        W22529   5.244  10.215   5.455 -0.0263  0.0825  0.2549
 6636W        W22530  13.193   0.880   1.348  0.1856 -0.3166 -0.0601
 6637W        W22531  10.900   6.608  16.789 -0.0874 -0.1004 -0.1749
 6638W        W22532  14.681   4.708  13.698 -0.2092 -0.2203  0.1416
 6639W        W22533  12.400   9.607   3.325 -0.0321  0.2903 -0.0103
 6640W        W22534   5.574  15.897   2.701 -0.2244 -0.1113 -0.0320
 6641W        W22535   4.466  13.309   0.102 -0.1601 -0.1774 -0.0333
 6642W        W22536   0.560  10.735  11.950 -0.1561  0.0281 -0.2422
 6643W        W22537   9.173  15.551   3.968 -0.0579  0.1608  0.0112
 6644W        W22538   0.447  12.097   2.369  0.2144 -0.3060  0.0339
 6645W        W22539  13.042   3.371   2.524  0.2580 -0.0168  0.1125
 6646W        W22540   4.049  13.593  14.617  0.0614  0.0316  0.2256
 6647W        W22541   6.449  17.600   4.311  0.2280  0.1533  0.2120
 6648W        W22542  15.763   1.869   1.804 -0.0647 -0.0055 -0.1674
 6649W        W22543   8.471  16.690  11.683 -0.3276 -0.4105  0.2279
 6650W        W22544   5.293   4.551  15.813  0.2566  0.0102 -0.1223
 6651W        W22545   2.246   6.858  14.685  0.0774 -0.0823  0.0505
 6652W        W22546   3.822   7.255   0.058  0.1482 -0.0505 -0.0906
 6653W        W22547  13.802  10.881  13.845  0.0239  0.0543 -0.5523
 6654W        W22548   4.124   2.779  17.038 -0.0989  0.1507 -0.1386
 6655W        W22549  10.238   3.450  14.591  0.2597 -0.3040  0.3098
 6656W        W22550   4.252   9.369   2.107  0.2756 -0.3082  0.0699
 6657W        W22551  17.302  12.102  11.909  0.2773  0.2192 -0.3132
 6658W        W22552  17.460  11.897  14.819  0.1367 -0.0641 -0.4718
 6659W        W22553  15.166   5.339  17.042  0.1814 -0.2798  0.0362
 6660W        W22554   0.964  14.989  16.366 -0.0052 -0.1648 -0.1350
 6661W        W22555   8.343   0.852   6.072 -0.0171  0.1942 -0.0229
 6662W        W22556  15.535   1.935   0.088 -0.0690  0.1095  0.6044
 6663W        W22557  16.506   6.406   1.519  0.2838  0.0923 -0.1794
 6664W        W22558  10.524  10.189   0.014  0.1706  0.0808  0.0700
 6665W        W22559   2.055  12.711  12.115 -0.1836  0.0459  0.2653
 6666W        W22560  12.436   9.583  16.853  0.0451 -0.0054 -0.0979
 6667W        W22561  13.669  17.388  17.107  0.1155  0.0807 -0.0986
 6668W        W22562  12.535  11.883  11.648 -0.1608 -0.0698 -0.2690
 6669W        W22563   2.491  17.302  12.330  0.0737  0.0312  0.0150
 6670W        W22564  11.905   3.658  14.828 -0.1840 -0.0185 -0.0024
 6671W        W22565   9.441  12.538   3.111  0.3484  0.0063  0.2089
 6672W        W22566  16.907   8.038   5.307  0.1977 -0.1449 -0.2615
 6673W        W22567  12.736  15.424  13.059  0.0215  0.0336  0.1662
 6674W        W22568  16.737   3.527  14.149  0.3281  0.0522  0.2499
 6675W        W22569   5.945  12.242  12.135 -0.0934  0.1310  0.2841
 6676W        W22570   7.726   5.714  16.933  0.1905 -0.1449 -0.3471
 6677W        W22571   9.811   7.410   1.314 -0.0370  0.2007 -0.5007
 6678W        W22572   1.037  15.278   5.811  0.0264  0.3673  0.1751
 6679W        W22573   7.875   2.171   3.061  0.0355  0.4161 -0.1513
 6680W        W22574   1.115   9.311   1.359 -0.2171 -0.0741 -0.0361
 6681W        W22575   2.793   0.160   0.608  0.2432  0.1824 -0.1409
 6682W        W22576   3.354  16.938  16.257 -0.0785  0.1454  0.0658
 6683W        W22577  11.324  12.623  15.475 -0.2793  0.1770 -0.2489
 6684W        W22578   8.797  17.454  16.176  0.0418  0.1051 -0.1245
 6685W        W22579   0.175  16.967  15.820 -0.0681 -0.2002 -0.3265
 6686W        W22580   8.420   5.529   3.808 -0.1038 -0.1417 -0.0233
 6687W        W22581   5.239  10.537  16.189  0.0709 -0.2165 -0.0108
 6688W        W22582  10.216  14.931   0.374 -0.0110 -0.0436 -0.1703
 6689W        W22583  15.674   4.708  14.154 -0.2887  0.0124  0.3082
 6690W        W22584   0.966   2.303   4.678 -0.1798 -0.0972  0.4424
 6691W        W22585   0.855  17.589   5.293  0.0588  0.1848  0.5647
 6692W        W22586   3.825   6.311   4.317  0.1281  0.1048 -0.0601
 6693W        W22587  12.820  10.394   4.189  0.1457 -0.1118  0.0398
 6694W        W22588   2.896  12.505  15.600  0.1742  0.2198 -0.0583
 6695W        W22589  11.029   5.127   1.517  0.1422  0.0822  0.0742
 6696W        W22590   1.968   2.834  14.621 -0.0754 -0.0385 -0.1169
 6697W        W22591   8.139  17.181  12.613 -0.0635  0.2738  0.0780
 6698W        W22592   4.303   0.605  15.309  0.2478  0.1641  0.2604
 6699W        W22593  13.783  13.694   1.372 -0.1452  0.0363 -0.0696
 6700W        W22594  12.730   0.779  15.285  0.0122  0.0585 -0.1561
 6701W        W22595   5.474   2.221   3.731 -0.0583  0.0679 -0.3402
 6702W        W22596  16.011   3.390  13.672  0.0555 -0.1369  0.0350
 6703W        W22597   9.693   8.666  17.161  0.0634  0.0149  0.0259
 6704W        W22598   9.092   5.772  16.571 -0.1526 -0.0368 -0.2036
 6705W        W22599   4.944  13.743  14.750 -0.1491  0.2371  0.1501
 6706W        W22600   1.378  16.358   5.270  0.1999 -0.0020  0.0030
 6707W        W22601  15.387  13.185  11.641 -0.0294 -0.1171  0.1259
 6708W        W22602   7.350  17.071  13.235  0.1530  0.2313 -0.1015
 6709W        W22603  16.921   3.624   0.397  0.0341  0.2505 -0.0270
 6710W        W22604  17.390  13.650   1.189  0.0510  0.0869  0.0459
 6711W        W22605   7.285   8.516   4.364  0.1609 -0.1149  0.0692
 6712W        W22606  16.397  11.657   2.791  0.2103  0.1255 -0.0491
 6713W        W22607   0.597  17.186  13.615  0.2899  0.0226  0.2197
 6714W        W22608  17.038  13.002  17.258  0.0740  0.3239 -0.0652
 6715W        W22609   4.855  10.050   0.169 -0.3581  0.1841 -0.4016
 6716W        W22610   4.208   3.729   1.088  0.0541 -0.1062 -0.1402
 6717W        W22611  15.050  10.579  11.963 -0.0038 -0.1107  0.2788
 6718W        W22612   1.010  11.123   2.140 -0.3683 -0.1606  0.1006
 6719W        W22613   5.681  14.828  12.958  0.3033 -0.1021  0.0658
 6720W        W22614   9.950   1.828  12.682  0.2285 -0.0403 -0.1805
 6721W        W22615   6.574  15.900   4.726 -0.3243 -0.2954  0.1034
 6722W        W22616  11.587   8.118  14.621 -0.0528 -0.0545  0.0990
 6723W        W22617   8.042   8.067   5.644  0.0503 -0.0148 -0.1205
 6724W        W22618  11.203  10.479   0.255  0.0962  0.0780 -0.1914
 6725W        W22619   7.076   9.699   4.120  0.1987  0.1466  0.2528
 6726W        W22620  13.985  12.386  16.055 -0.1493  0.0096  0.0886
 6727W        W22621  10.213  10.770   4.677  0.3263  0.3020  0.1496
 6728W        W22622   9.117  14.591   2.052  0.0194 -0.0743 -0.1132
 6729W        W22623  10.970  14.705   5.014  0.3412 -0.0977 -0.2453
 6730W        W22624   7.955  13.058   0.479  0.1437 -0.3083  0.3531
 6731W        W22625   3.258  12.331   2.456  0.0725  0.1153 -0.1573
 6732W        W22626  12.306  11.674   3.845  0.2055 -0.3709  0.0891
 6733W        W22627  10.988   3.256  14.121  0.0278  0.2361  0.3903
 6734W        W22628  16.599   9.157  15.344 -0.0656  0.1082  0.2503
 6735W        W22629  15.454   9.606  16.827 -0.0494 -0.1548  0.1143
 6736W        W22630  14.026   4.480  14.898  0.2681  0.0914  0.3930
 6737W        W22631   5.137  13.279  12.430  0.2024  0.0960  0.1499
 6738W        W22632   4.342   2.500  16.541 -0.0402  0.2233  0.1376
 6739W        W22633   6.387  13.028   4.012 -0.1399  0.1925  0.2228
 6740W        W22634  14.757  16.143  15.486  0.0550  0.1023 -0.0918
 6741W        W22635  12.857  12.977   3.047 -0.3618  0.1032 -0.1057
 6742W        W22636   7.804   4.990   3.079 -0.0837 -0.2386  0.1278
 6743W        W22637  14.776  10.350   4.014  0.1749  0.1801 -0.1852
 6744W        W22638  17.311  10.607   4.602  0.1389 -0.0363 -0.0157
 6745W        W22639   7.707   8.696  10.454  0.1332  0.2028 -0.0176
 6746W        W22640   8.578  16.873   1.892  0.4491  0.1599  0.0284
 6747W        W22641  17.322  13.912  12.837  0.1705 -0.0652 -0.0057
 6748W        W22642   5.551   8.502   3.302  0.1912  0.0358 -0.0427
 6749W        W22643  12.823   0.663  13.013 -0.2253 -0.0792 -0.2936
 6750W        W22644   4.896   3.656  17.018  0.0734 -0.3063 -0.0189
 6751W        W22645   8.701   6.938  14.228  0.0828 -0.0555 -0.2496
 6752W        W22646  15.010  11.520  12.084 -0.1256 -0.1833  0.1046
 6753W        W22647  14.001   8.479  17.271  0.0043 -0.1130  0.0330
 6754W        W22648   6.824  11.154  16.775  0.0198  0.0862 -0.0294
 6755W        W22649   1.122   9.573   5.248 -0.0246  0.2003 -0.0945
 6756W        W22650  12.483   2.253  15.215 -0.2976  0.0397  0.1588
 6757W        W22651   9.159   3.334   4.435 -0.0788 -0.1660  0.0206
 6758W        W22652   0.495  13.421   3.798 -0.0511 -0.0416  0.1561
 6759W        W22653  10.999   3.215  13.369  0.1370 -0.1833 -0.0127
 6760W        W22654  16.731  15.309  15.175  0.1225  0.3114 -0.0987
 6761W        W22655  10.021  15.524   2.705  0.2028  0.2978 -0.1216
 6762W        W22656  12.595   5.906  14.636 -0.0051 -0.1198 -0.0350
 6763W        W22657  12.931   2.821  13.066 -0.3242  0.0675  0.1637
 6764W        W22658   2.772  17.557  12.692  0.0923 -0.2741  0.1553
 6765W        W22659  12.307  10.667   2.987 -0.0283 -0.2384 -0.1040
 6766W        W22660   0.756   1.774   5.781  0.1725  0.1422  0.1620
 6767W        W22661  17.523  10.173  17.259 -0.1652 -0.0969  0.3388
 6768W        W22662   9.987   9.933   0.584  0.2515 -0.0277  0.0091
 6769W        W22663   6.640  16.049   3.849 -0.7167  0.0157 -0.0283
 6770W        W22664  11.650   1.894  12.651  0.2579  0.0537  0.1402
 6771W        W22665   0.434  12.774  12.043  0.1587 -0.0490 -0.1044
 6772W        W22666   0.364  17.573  11.887 -0.1012 -0.0332 -0.2177
 6773W        W22667   2.471   2.511  14.914  0.1227  0.1716  0.1825
 6774W        W22668   3.527  17.583   1.625  0.1229  0.1657  0.2174
 6775W        W22669   4.493   8.025   4.633  0.1691  0.1664  0.2467
 6776W        W22670  14.226  17.026   3.657 -0.1120 -0.2703 -0.3362
 6777W        W22671  10.031  15.602   3.485 -0.0154 -0.0787  0.0188
 6778W        W22672   2.147   9.736   3.831 -0.1913  0.3633 -0.1110
 6779W        W22673   1.399   0.646   3.285  0.2304  0.0669  0.0063
 6780W        W22674   3.973  11.106   4.613 -0.0513  0.2400  0.0159
 6781W        W22675  12.504  11.651   2.790 -0.1341  0.0632 -0.3544
 6782W        W22676  11.315  12.531  16.752  0.2364  0.3480 -0.0954
 6783W        W22677  15.495   4.900  12.171 -0.3319  0.0573  0.2690
 6784W        W22678  16.751  10.317  11.854  0.1165  0.0480 -0.2394
 6785W        W22679  15.202   6.589   4.000  0.1093  0.0585  0.0117
 6786W        W22680   6.054   7.418   4.601  0.1854 -0.2290 -0.3999
 6787W        W22681  15.227   3.120   2.058  0.1966  0.1398 -0.1701
 6788W        W22682  14.030   6.912   5.017  0.2924 -0.0343 -0.0842
 6789W        W22683   9.332  14.004  13.332 -0.0491 -0.0979 -0.2237
 6790W        W22684   8.394   8.261  15.293 -0.2463 -0.0852  0.1344
 6791W        W22685  16.591  11.606  13.643  0.0939  0.0628 -0.0522
 6792W        W22686   6.089  16.544   3.257 -0.1559 -0.1819 -0.0136
 6793W        W22687  10.948  11.255   4.585 -0.1297 -0.4935 -0.0306
 6794W        W22688   1.592   1.789  16.428  0.1381  0.1246  0.1995
 6795W        W22689  10.232   5.309  13.996 -0.0938 -0.0625 -0.1462
 6796W        W22690  10.498  16.623  16.769  0.1096 -0.0399 -0.1873
 6797W        W22691  11.944   5.380  16.456  0.0981  0.2291  0.3201
 6798W        W22692   3.917  15.572  13.086  0.2332  0.1508 -0.0838
 6799W        W22693   3.225   8.467   0.419 -0.2523  0.3279 -0.0004
 6800W        W22694   9.107   3.299   4.980 -0.0004 -0.1759  0.3063
 6801W        W22695  12.873  16.120  15.329  0.1087 -0.0113 -0.0988
 6802W        W22696   4.202  14.410  13.866  0.4187 -0.2966 -0.0315
 6803W        W22697   0.098   8.378  15.868 -0.3993  0.0203 -0.0251
 6804W        W22698  16.911  12.976   4.572  0.0700  0.4395 -0.1116
 6805W        W22699  17.261  14.966  13.175 -0.1840  0.0679 -0.2409
 6806W        W22700   8.273   6.173  15.348  0.0055  0.0165  0.1166
 6807W        W22701  11.925  10.336   5.622  0.1254 -0.0975  0.0640
 6808W        W22702  17.578  14.828  12.658  0.2833 -0.2218 -0.0847
 6809W        W22703   5.639  16.408  15.853  0.1080  0.1802  0.2694
 6810W        W22704  16.890  13.050  13.652  0.0224  0.0152  0.2904
 6811W        W22705   5.547   8.832   0.013 -0.1855 -0.1678 -0.2673
 6812W        W22706   0.798   5.897   4.548  0.0831 -0.2529  0.3333
 6813W        W22707   3.846  13.074  12.235  0.0674 -0.3321  0.2209
 6814W        W22708  10.079   6.057  14.955 -0.1199  0.1231  0.0562
 6815W        W22709  13.502   8.388   5.352  0.0627 -0.2106 -0.1213
 6816W        W22710  11.738  14.541  14.180 -0.1528  0.0470 -0.1149
 6817W        W22711  10.173   7.783   2.644  0.0986  0.2216 -0.0232
 6818W        W22712   8.227  10.766  15.295  0.2503  0.2489 -0.2155
 6819W        W22713  14.177  14.344   3.554 -0.2180 -0.0241 -0.1085
 6820W        W22714  12.090   9.786   1.926 -0.2059 -0.0121  0.1554
 6821W        W22715  16.692  17.600   4.746  0.0256 -0.1262  0.1487
 6822W        W22716  15.383   0.819  15.465  0.0352  0.1989 -0.2491
 6823W        W22717  14.529   0.736  15.532  0.1025  0.0800 -0.0430
 6824W        W22718   5.171   7.945   0.202 -0.4030  0.0363  0.0193
 6825W        W22719  11.068   4.810   3.702  0.3261 -0.2983 -0.2722
 6826W        W22720   2.058  14.013   0.319 -0.1347 -0.2682 -0.1487
 6827W        W22721   4.720   1.663  12.602  0.0617  0.2187  0.1787
 6828W        W22722   9.376   2.252   1.510 -0.0728  0.0006 -0.0175
 6829W        W22723   7.305   8.283   0.709  0.0357  0.4505  0.0940
 6830W        W22724   7.959  15.132  16.718 -0.0769  0.1481  0.1851
 6831W        W22725  12.964  14.518  14.694 -0.0441  0.0607 -0.2021
 6832W        W22726   1.636  13.125   1.871  0.0310  0.1842  0.1309
 6833W        W22727  13.480  16.362   1.800  0.3456 -0.1684  0.1528
 6834W        W22728   7.489   1.684   5.331 -0.1167  0.1182  0.0708
 6835W        W22729   7.987  15.387   0.308  0.0409  0.2583  0.1109
 6836W        W22730   0.005   2.427   0.974  0.4152 -0.0133 -0.0912
 6837W        W22731   2.114   4.910   4.666  0.2912  0.1385 -0.0587
 6838W        W22732   2.555  11.534   4.961 -0.0951  0.1728 -0.0439
 6839W        W22733   5.843  16.634   3.870 -0.1537 -0.3809  0.2423
 6840W        W22734  12.583  15.089  15.372 -0.0153 -0.1041  0.0169
 6841W        W22735   6.220   7.318   5.208 -0.2660 -0.0686 -0.0082
 6842W        W22736   2.542   3.422   1.083 -0.0083  0.0333  0.3085
 6843W        W22737  15.882   7.409  16.004  0.3809 -0.1501  0.4282
 6844W        W22738  14.764   8.791   1.479 -0.0010 -0.2047  0.0773
 6845W        W22739   4.934   4.679   1.217  0.0567  0.1392 -0.0642
 6846W        W22740  11.519   2.665  15.266  0.0389  0.0842 -0.0240
 6847W        W22741  13.132   1.722  15.251  0.1663 -0.1745 -0.1035
 6848W        W22742   9.163   9.192   0.458  0.3597 -0.2385  0.1829
 6849W        W22743   9.344  14.939  12.077 -0.2288 -0.3527 -0.1023
 6850W        W22744  12.920   0.293  14.376 -0.1253 -0.0955 -0.0412
 6851W        W22745   7.816   4.237   6.219 -0.3322  0.1511  0.0992
 6852W        W22746   6.826  11.813  15.097 -0.0623 -0.1517 -0.0108
 6853W        W22747  16.575   1.310   5.527  0.1498 -0.1705  0.0266
 6854W        W22748  13.034   2.248  15.134  0.2496  0.1048  0.2552
 6855W        W22749  12.941  17.157   4.157 -0.2309  0.2096  0.0396
 6856W        W22750   3.333  15.350   0.610  0.2434 -0.1780  0.1214
 6857W        W22751  15.475  10.506  17.281 -0.3416  0.0525 -0.1833
 6858W        W22752  11.198   9.618  11.779 -0.4772 -0.2197 -0.0825
 6859W        W22753  15.908   1.384   3.909 -0.2242 -0.0900 -0.0049
 6860W        W22754   9.225  11.995   2.957  0.0201 -0.1365 -0.2283
 6861W        W22755  10.215  16.788  12.379  0.2474 -0.4672 -0.1701
 6862W        W22756   2.072   6.162  14.554 -0.1817  0.2567 -0.0734
 6863W        W22757  11.061  11.796  11.698 -0.0068 -0.2091 -0.0519
 6864W        W22758  15.160  13.317   2.839  0.0776 -0.1926  0.3270
 6865W        W22759   1.695   2.213   5.219 -0.2087 -0.0230 -0.0131
 6866W        W22760  11.822   7.738  15.343  0.0833 -0.0848  0.1445
 6867W        W22761   4.512   3.126   6.367 -0.1572  0.3329  0.0380
 6868W        W22762  10.051  13.394  15.921 -0.0778  0.1280 -0.0144
 6869W        W22763   0.904  14.038  16.070 -0.2348 -0.2272  0.3493
 6870W        W22764  16.036  13.549  13.324  0.0973  0.1055 -0.3202
 6871W        W22765   4.505  12.309  16.122  0.0288 -0.0678  0.1484
 6872W        W22766  15.449   6.458   2.654  0.0682 -0.0331 -0.0505
 6873W        W22767   2.243  13.818  12.114 -0.2160 -0.0175  0.0514
 6874W        W22768  14.826  10.365  16.620  0.1245 -0.0746  0.2003
 6875W        W22769   9.184  11.082   0.709  0.3561  0.1055 -0.0208
 6876W        W22770   3.109   5.784   4.314  0.1276 -0.1133  0.0384
 6877W        W22771   5.626   3.493   0.888  0.0166 -0.1682  0.2815
 6878W        W22772   3.786   9.281  14.811 -0.0513 -0.0661 -0.0235
 6879W        W22773   5.293   2.261   4.685  0.0773  0.0111  0.1315
 6880W        W22774  15.164   4.686   5.235 -0.0313  0.2678  0.2770
 6881W        W22775   1.289   9.614   3.471 -0.3371  0.0244  0.1049
 6882W        W22776   7.188   6.432  16.970  0.2274  0.3767 -0.0329
 6883W        W22777  13.977   7.377  15.836 -0.2218 -0.1822 -0.4225
 6884W        W22778   5.669   0.450  16.438 -0.1389 -0.3213  0.0531
 6885W        W22779  16.518   6.609  16.992  0.0749 -0.2330  0.3758
 6886W        W22780   7.451   1.984  12.344  0.2829 -0.1152 -0.0215
 6887W        W22781  13.976  11.903   2.416 -0.1977 -0.1331 -0.4104
 6888W        W22782  11.646   5.593   5.593 -0.2105 -0.2374  0.0408
 6889W        W22783  11.673   5.784  12.758  0.0855  0.1696  0.2128
 6890W        W22784  17.014  15.416  13.879 -0.0727  0.3512  0.0689
 6891W        W22785   8.878   9.661  15.756 -0.1068  0.1007 -0.3093
 6892W        W22786   7.861   3.148  11.225 -0.1507  0.0328  0.2165
 6893W        W22787  15.768  12.095  10.921 -0.2513 -0.1690  0.3555
 6894W        W22788  10.291   8.250   4.937  0.0999  0.2850  0.0616
 6895W        W22789   9.122  14.818   3.286  0.0135  0.3057 -0.4401
 6896W        W22790   2.240  13.574   1.076  0.1942  0.2389 -0.0981
 6897W        W22791   4.849   5.648   2.091 -0.4637 -0.3258 -0.0827
 6898W        W22792   3.913   8.170   6.447 -0.1023 -0.2229 -0.1393
 6899W        W22793  12.592  11.956  12.525 -0.2077 -0.0288  0.0248
 6900W        W22794   0.359   4.850   3.667 -0.2724  0.2031 -0.0910
 6901W        W22795   9.508   7.917  12.507 -0.0658 -0.0974  0.0309
 6902W        W22796   4.593  17.130  13.072 -0.0759  0.3217  0.2336
 6903W        W22797   1.994   0.366  15.303  0.1858  0.0119  0.1306
 6904W        W22798   0.714  16.288   0.218 -0.1626 -0.0877  0.3711
 6905W        W22799   6.082   5.934  13.963  0.2536  0.2214  0.1622
 6906W        W22800   5.010  15.316   0.322 -0.1253  0.0334 -0.0481
 6907W        W22801   8.105  16.890   2.592  0.0548 -0.0876  0.0578
 6908W        W22802   7.901   8.956  12.641  0.1885  0.0264 -0.2784
 6909W        W22803   1.996   1.016  14.675  0.2892 -0.0564  0.1683
 6910W        W22804   4.849   1.118  14.744 -0.1593 -0.0431 -0.0578
 6911W        W22805  15.089  11.081   5.604 -0.1275 -0.0752  0.1008
 6912W        W22806   1.056  11.724  12.683  0.0926  0.4499 -0.0982
 6913W        W22807  16.553  14.748   2.451  0.2977 -0.1222 -0.1820
 6914W        W22808   4.382  14.774   4.607  0.2659 -0.0989 -0.2334
 6915W        W22809   1.657   7.204   5.432 -0.1979 -0.0646  0.1979
 6916W        W22810  13.797  11.658   3.380  0.1893 -0.1138 -0.1147
 6917W        W22811   7.149  13.044   2.366  0.0120 -0.1029 -0.0200
 6918W        W22812   8.594   0.389   0.713  0.0505 -0.0086 -0.0215
 6919W        W22813  10.174  16.251   6.344 -0.0816  0.0507  0.0261
 6920W        W22814  10.311   2.634   4.861  0.1853 -0.2029  0.0987
 6921W        W22815   3.268  13.954  14.495 -0.1510  0.1172  0.0382
 6922W        W22816  10.344   4.464   1.334  0.2602 -0.0000 -0.0760
 6923W        W22817   2.768   3.724  12.237  0.0226  0.2078  0.1227
 6924W        W22818   7.557   4.417   4.309 -0.0022  0.2720  0.0703
 6925W        W22819  17.316   0.308   3.942 -0.0993 -0.0698 -0.5988
 6926W        W22820   5.275   8.552  12.551 -0.1041 -0.0848  0.0131
 6927W        W22821  16.699   4.267  15.805 -0.0800  0.2102 -0.0550
 6928W        W22822   5.024   3.541   4.796 -0.2244 -0.2512 -0.0108
 6929W        W22823   6.014   6.378   0.071 -0.0639  0.0676 -0.1172
 6930W        W22824   4.764   9.180  16.253 -0.0903 -0.2109  0.0576
 6931W        W22825   0.036   9.543  14.759  0.1475  0.1597  0.1630
 6932W        W22826   4.824   8.406   2.946  0.2542 -0.1455  0.0218
 6933W        W22827  12.667   1.758  16.415 -0.0682 -0.1641  0.0259
 6934W        W22828  11.179   2.368  16.564 -0.3313 -0.2179  0.1896
 6935W        W22829   9.348   3.540   2.280 -0.0836 -0.1047 -0.3282
 6936W        W22830  13.851  15.360  13.419 -0.0322 -0.0360  0.1619
 6937W        W22831   4.442  13.965  14.036 -0.0696 -0.0970 -0.0222
 6938W        W22832   3.429   4.696  16.108 -0.3213  0.0538  0.0752
 6939W        W22833   3.196  13.689  17.228  0.0453 -0.1531 -0.0571
 6940W        W22834  11.295  10.291  12.454 -0.0612  0.0575  0.0927
 6941W        W22835   1.416   1.508   1.654  0.2715 -0.3197  0.0587
 6942W        W22836   7.664   3.593   0.519  0.0709  0.0461  0.2059
 6943W        W22837   3.094   1.528   2.176 -0.0964 -0.0576 -0.3755
 6944W        W22838   5.560   6.335  14.709  0.0224 -0.1877 -0.1103
 6945W        W22839  13.467  12.672   1.540 -0.2311  0.1924 -0.0520
 6946W        W22840   4.853   0.067   0.837 -0.0069  0.0408 -0.1316
 6947W        W22841   7.866  13.213   5.065  0.3044  0.1190 -0.1853
 6948W        W22842   4.601  13.617  15.684 -0.0099 -0.1784 -0.1945
 6949W        W22843   5.848   3.457  13.013  0.1787 -0.0597 -0.0981
 6950W        W22844   6.656   9.199   2.495 -0.0444  0.0889  0.0023
 6951W        W22845  14.023   7.073  13.490  0.1537  0.0563  0.0912
 6952W        W22846   0.812   6.149  13.898  0.0032 -0.2383  0.0229
 6953W        W22847   4.694   2.865  14.884 -0.1137 -0.1705 -0.0819
 6954W        W22848   0.538   9.594   2.940  0.1027 -0.0529  0.2984
 6955W        W22849  16.114   0.996  16.410 -0.2064  0.4679 -0.1364
 6956W        W22850   9.338  14.317   0.105 -0.1456  0.1869 -0.1270
 6957W        W22851  10.949   2.185   2.851  0.0819 -0.0597  0.0085
 6958W        W22852  15.298  11.524  12.990  0.1519 -0.3091 -0.0232
 6959W        W22853   7.271   5.827   4.332 -0.1570  0.2314  0.0392
 6960W        W22854   4.902   3.331   5.661  0.0259  0.3006  0.2723
 6961W        W22855  11.521   1.419  15.268  0.0800  0.1343  0.1264
 6962W        W22856   1.491   1.586   5.872  0.1743 -0.0845 -0.0023
 6963W        W22857  13.386  13.037  13.674  0.0070 -0.1856  0.1391
 6964W        W22858   1.489   2.744   1.162  0.3571 -0.1549 -0.1654
 6965W        W22859   2.365   2.029  13.228  0.1134  0.2247 -0.2174
 6966W        W22860  10.864   4.527  16.827 -0.0264 -0.0085  0.1360
 6967W        W22861   8.440  13.080  13.893  0.2250  0.1609 -0.1000
 6968W        W22862   8.156  14.537   5.586 -0.1081 -0.1425 -0.0941
 6969W        W22863   3.624  15.824   0.275 -0.0813 -0.0049 -0.1219
 6970W        W22864  10.875   8.538  14.582 -0.0095 -0.0665  0.2207
 6971W        W22865  14.276  14.655   0.735 -0.1664 -0.1746 -0.0951
 6972W        W22866   9.943  14.891   1.580  0.3573  0.0691  0.0594
 6973W        W22867   0.776   1.644  14.810  0.0780 -0.0484  0.1810
 6974W        W22868   7.692   7.892   3.856 -0.0639 -0.3257 -0.1435
 6975W        W22869   8.948  11.692  13.843  0.0038 -0.1775  0.1537
 6976W        W22870   9.697   2.256  17.209  0.0967 -0.0369 -0.1125
 6977W        W22871  15.984  13.529   5.281 -0.3448  0.2109 -0.0110
 6978W        W22872  12.821  15.822  15.817 -0.1248 -0.0415 -0.1933
 6979W        W22873  15.179  17.575   0.456 -0.0033  0.1214  0.0595
 6980W        W22874  10.692  16.009   5.408 -0.3058  0.0739  0.4697
 6981W        W22875   9.236   6.305  12.523  0.0931  0.2118 -0.0591
 6982W        W22876  13.489  15.689  16.452  0.1451 -0.0189  0.1843
 6983W        W22877  15.417   9.161   4.362 -0.0057 -0.0685 -0.0584
 6984W        W22878  12.036   2.270  14.350 -0.1885 -0.2349 -0.0887
 6985W        W22879  16.458   9.421   5.500 -0.2959  0.1947 -0.0743
 6986W        W22880   5.604  11.771   4.841  0.2260  0.3238 -0.2131
 6987W        W22881  10.994  15.780  12.292  0.0085  0.2970  0.1803
 6988W        W22882  15.664   6.321  15.413 -0.0828  0.2705  0.0687
 6989W        W22883  10.706   8.006   4.870 -0.1653 -0.2788 -0.2745
 6990W        W22884   1.054  13.821   5.653  0.3458  0.1169  0.0893
 6991W        W22885   6.358  15.792  14.918  0.1055 -0.2357  0.1981
 6992W        W22886  13.833   1.309   0.630  0.3908  0.0219  0.0975
 6993W        W22887  17.325  13.636  13.637 -0.0038 -0.1149  0.1163
 6994W        W22888  15.179   7.459   2.868  0.0785 -0.1859 -0.0032
 6995W        W22889   4.653  11.971  15.600 -0.0065 -0.0522  0.0140
 6996W        W22890   5.059  16.241  14.561  0.0010  0.1101  0.0229
 6997W        W22891   5.759  13.887  14.362 -0.0486  0.2598 -0.2108
 6998W        W22892  16.259   0.579   3.438 -0.2603 -0.2200 -0.1366
 6999W        W22893  10.215   8.802   2.557  0.0408 -0.2213 -0.2809
 7000W        W22894   3.745   5.870  14.746  0.1981 -0.0412 -0.0391
 7001W        W22895   6.051   9.332   4.103  0.1867  0.2011  0.0182
 7002W        W22896  13.161  16.719   1.593  0.0235  0.0587  0.0904
 7003W        W22897  12.597  11.603   5.164  0.3246 -0.1403  0.0625
 7004W        W22898  11.518  11.984   4.565 -0.2676 -0.0321 -0.1512
 7005W        W22899   2.147  10.109  15.443 -0.3075 -0.0136 -0.0583
 7006W        W22900  15.245  15.734   4.853 -0.1420  0.1932 -0.0456
 7007W        W22901  15.852  12.227  16.634  0.1998  0.1061 -0.0676
 7008W        W22902   3.281   6.810  14.917  0.5626 -0.0574  0.1352
 7009W        W22903   0.995  16.882  12.897  0.0670  0.0757  0.1232
 7010W        W22904  14.466   6.870  14.564  0.1507  0.1299 -0.1692
 7011W        W22905  10.215   4.902  14.790 -0.0883  0.0958  0.1437
 7012W        W22906   9.624   0.655   5.600  0.1433  0.2566  0.1375
 7013W        W22907  16.124   6.830  14.666 -0.0314  0.3227 -0.0661
 7014W        W22908   3.291  17.206   1.406 -0.0457 -0.1470 -0.1233
 7015W        W22909   3.069   9.918  16.836 -0.1013 -0.1038 -0.0055
 7016W        W22910   0.420   4.885  17.104 -0.0394  0.0213 -0.3242
 7017W        W22911  12.265   2.325   1.045 -0.0253  0.1252 -0.0094
 7018W        W22912   9.419   8.765   3.404 -0.0579 -0.1519 -0.1188
 7019W        W22913   8.265  16.296  16.330 -0.1494  0.0977  0.0747
 7020W        W22914  14.808   1.297   1.033  0.0578 -0.1480  0.0159
 7021W        W22915   6.151   0.289  13.391 -0.2366  0.1829 -0.2678
 7022W        W22916   2.712   6.695  17.125  0.1098 -0.2143  0.1574
 7023W        W22917   6.908   1.027   4.701  0.0304 -0.2349  0.0774
 7024W        W22918  16.181   5.716   0.855  0.1838  0.0411  0.1445
 7025W        W22919   2.400   7.719   6.281 -0.1138  0.4659  0.1159
 7026W        W22920   6.712   3.934  15.949 -0.4922 -0.0043  0.2291
 7027W        W22921   7.833   4.531   4.700  0.0381 -0.2142  0.0516
 7028W        W22922   8.619   0.277  14.257  0.0823  0.4126  0.3423
 7029W        W22923  11.879   4.623   5.263 -0.0031  0.3172  0.0007
 7030W        W22924   0.396  14.238   3.148 -0.0933 -0.3105 -0.1976
 7031W        W22925   1.221   3.313   4.016  0.0026  0.0068  0.0312
 7032W        W22926  17.268   0.704   4.270  0.0082 -0.0537 -0.0734
 7033W        W22927  10.277   8.615  15.426  0.2011 -0.1073 -0.1376
 7034W        W22928  16.049   5.362  12.559  0.2732  0.0419  0.0093
 7035W        W22929   8.817   5.173   6.080 -0.1913  0.0004  0.0737
 7036W        W22930   5.534   7.276   4.662  0.0426  0.0161 -0.2556
 7037W        W22931  10.850  14.212   6.241  0.1810  0.1232 -0.1397
 7038W        W22932  10.555  16.181  13.728 -0.0914  0.0759 -0.1796
 7039W        W22933  12.089   5.104   2.514 -0.2258  0.1156  0.1034
 7040W        W22934   9.933  15.949  13.665 -0.1237  0.0704 -0.0904
 7041W        W22935   6.794   9.122   3.015 -0.0229  0.2837  0.0463
 7042W        W22936   8.402   1.827  16.195  0.2030  0.0336 -0.1939
 7043W        W22937  16.282   7.639   2.137  0.2920 -0.0927 -0.1656
 7044W        W22938   4.474   0.728   4.638 -0.0213 -0.1556  0.1271
 7045W        W22939   4.011  11.711   4.454 -0.0694  0.1856  0.2931
 7046W        W22940  17.627   4.274   2.994  0.3698 -0.1243  0.1750
 7047W        W22941   5.988  10.154  16.248 -0.1180 -0.1287 -0.0053
 7048W        W22942   8.141   5.691   0.717  0.2926 -0.2956 -0.2936
 7049W        W22943   5.085  10.403  14.052 -0.1550 -0.0495  0.0426
 7050W        W22944  16.900  17.556  13.736  0.0534  0.0056  0.0493
 7051W        W22945  12.443   9.655   4.865 -0.3182  0.1969  0.1161
 7052W        W22946   3.438  11.050   4.511  0.0157  0.2691 -0.1789
 7053W        W22947   6.662   2.050   2.241  0.3460  0.0567 -0.2105
 7054W        W22948  13.635   6.628  12.422 -0.2907  0.0411 -0.0482
 7055W        W22949  16.695   5.815   3.122  0.1559 -0.1669 -0.0151
 7056W        W22950   4.953   5.753   2.576 -0.4067  0.0041  0.2448
 7057W        W22951  10.648   9.946  14.601 -0.3343 -0.0005  0.1269
 7058W        W22952  11.050   8.592  12.121 -0.0450  0.0515  0.1984
 7059W        W22953  17.278   6.052  13.258 -0.2125 -0.1787  0.2188
 7060W        W22954  16.737   6.109  15.072  0.3094  0.1347 -0.0995
 7061W        W22955  13.554  13.646  15.585  0.0652 -0.0285 -0.1459
 7062W        W22956  16.458   3.510  12.459  0.1362  0.0503 -0.0661
 7063W        W22957  14.745   2.923  15.388 -0.2534 -0.1208  0.2861
 7064W        W22958   4.652   7.464   1.688 -0.0251 -0.0876 -0.1126
 7065W        W22959  10.639  14.085   3.497  0.1908  0.0947  0.0714
 7066W        W22960   6.449  10.959   5.626 -0.0908 -0.0590  0.2845
 7067W        W22961   5.123  10.660  16.694  0.1247  0.1552  0.1852
 7068W        W22962  15.687  10.201   2.898 -0.0031  0.0676 -0.0222
 7069W        W22963   3.599  12.240   5.278  0.0858  0.2334 -0.0816
 7070W        W22964   1.820   2.027   3.492  0.0444 -0.0694 -0.0372
 7071W        W22965  11.348   9.698   0.285 -0.2945 -0.0703 -0.3811
 7072W        W22966   8.936   0.456  15.202  0.1566 -0.0595  0.0205
 7073W        W22967   1.477   3.390   1.910  0.0332 -0.3131 -0.1433
 7074W        W22968   8.261  11.369   2.699 -0.3395  0.0171 -0.2331
 7075W        W22969   8.374  16.944  13.942 -0.1332 -0.3110  0.0599
 7076W        W22970  17.520  11.843  15.447 -0.0643  0.1242 -0.2657
 7077W        W22971   5.665  10.409  14.496  0.1980  0.1019 -0.0703
 7078W        W22972  15.186   4.807  16.704 -0.0458  0.1518  0.3073
 7079W        W22973   3.850  13.286   1.085  0.1462 -0.0835  0.0884
 7080W        W22974   3.423  13.730  12.869 -0.1095 -0.1436 -0.0815
 7081W        W22975   5.978   8.866   3.188  0.3017 -0.0236 -0.0387
 7082W        W22976   2.578   9.058   4.044 -0.1822  0.0877  0.1329
 7083W        W22977   7.915  15.866   0.226 -0.0477 -0.0051 -0.2219
 7084W        W22978  14.371  15.827  14.179  0.1713  0.0070 -0.1623
 7085W        W22979  12.891   1.126   5.253  0.0182  0.1133  0.2032
 7086W        W22980   6.805   7.374  12.700 -0.2343  0.2545 -0.0026
 7087W        W22981   0.151  14.038  12.645 -0.0683  0.1627  0.0038
 7088W        W22982  11.169  10.543  11.158 -0.1527  0.1139  0.0283
 7089W        W22983  17.448   4.070   3.426 -0.2300  0.2558 -0.1623
 7090W        W22984  10.241   0.034   1.800 -0.4671 -0.1654  0.1668
 7091W        W22985  13.138  10.038   0.867 -0.1366 -0.3164  0.1780
 7092W        W22986   2.426  10.439  13.383 -0.0568  0.0045  0.0980
 7093W        W22987  11.695  15.144   0.903  0.0340 -0.0588  0.2244
 7094W        W22988  12.094  12.752  17.235 -0.0962 -0.2779  0.1406
 7095W        W22989   2.640  13.352   0.506  0.1270 -0.1440 -0.0836
 7096W        W22990  12.070   4.527   4.333  0.1600 -0.0812  0.1119
 7097W        W22991  15.240  16.880  12.566  0.2942 -0.0593  0.0543
 7098W        W22992  14.160   8.927   3.128 -0.0721  0.0145 -0.0334
 7099W        W22993  14.506  11.225  12.680  0.0888  0.0852 -0.0788
 7100W        W22994   3.180  16.856  15.459 -0.6514  0.2984  0.2125
 7101W        W22995  16.632   2.783  14.106 -0.0256  0.1179  0.1079
 7102W        W22996   5.853   6.468  15.983  0.2578 -0.2165  0.2131
 7103W        W22997   3.098   3.609  15.160  0.2622 -0.0209 -0.0326
 7104W        W22998   2.771   8.995  13.089  0.1864  0.3276 -0.4258
 7105W        W22999  11.121  10.802   5.849  0.1463 -0.3455  0.1174
 7106W        W23000   3.916  15.170  13.353 -0.0216  0.0176 -0.4225
 7107W        W23001  17.176   2.798  13.397 -0.3319 -0.0270 -0.7034
 7108W        W23002  10.552   8.718  12.212  0.0803 -0.1000  0.1505
 7109W        W23003   0.603  11.644   4.893 -0.0043 -0.3444 -0.2173
 7110W        W23004   1.388  13.916  16.161 -0.1310  0.0698  0.2925
 7111W        W23005   7.664   3.417  15.152  0.1750  0.2053 -0.3049
 7112W        W23006  14.687  13.452   3.456 -0.1036  0.0081 -0.1906
 7113W        W23007  12.917   6.579  16.139  0.2402 -0.3261  0.0304
 7114W        W23008  16.407   1.389  11.468  0.3004 -0.1572 -0.2611
 7115W        W23009  13.702   0.222   3.345 -0.0271  0.1584  0.1949
 7116W        W23010   7.553   7.665   2.509 -0.2361  0.0944 -0.1060
 7117W        W23011   6.371   7.705   0.235 -0.1328  0.0804 -0.1535
 7118W        W23012  17.520   9.823   5.762  0.3484 -0.1556  0.3212
 7119W        W23013   7.208   7.448  14.667 -0.0020  0.0082  0.0268
 7120W        W23014  14.985   6.594   5.163  0.3670 -0.3069 -0.0357
 7121W        W23015  12.600  14.448  12.922  0.2282  0.0951 -0.0608
 7122W        W23016  11.779   5.960  14.042  0.1416  0.0282  0.1747
 7123W        W23017  11.627  15.030  16.727 -0.0251 -0.3041 -0.0748
 7124W        W23018  13.835   9.769  14.890  0.0472 -0.0114 -0.6066
 7125W        W23019   4.154   5.197  15.010  0.0252 -0.0279 -0.1385
 7126W        W23020   3.479   4.728   2.065  0.1464  0.2652  0.0429
 7127W        W23021  15.966   1.536   5.183 -0.0168  0.1748  0.3678
 7128W        W23022   1.894  11.445   0.895 -0.0470 -0.0297 -0.0789
 7129W        W23023  12.015  12.033   4.512  0.1339  0.1296  0.0828
 7130W        W23024  16.280  17.013   1.038 -0.0561  0.0110 -0.0068
 7131W        W23025  13.700   4.633  12.118 -0.1296  0.1318 -0.2847
 7132W        W23026  10.455   0.859  13.736  0.2123  0.1577  0.2348
 7133W        W23027   2.795  12.263   3.858  0.0832  0.1335 -0.0683
 7134W        W23028  10.333  11.587   0.825 -0.0142 -0.2264 -0.1011
 7135W        W23029  12.816  12.078  15.540  0.0625 -0.0294 -0.1597
 7136W        W23030   6.316   3.619  16.920  0.1728  0.0246 -0.1339
 7137W        W23031   1.978   0.836  13.636 -0.0161 -0.0354  0.1307
 7138W        W23032   2.298  12.312   1.106 -0.0363  0.0599 -0.3071
 7139W        W23033   5.809   1.043   1.788  0.1690  0.1133 -0.1392
 7140W        W23034  14.980  12.159   0.113 -0.1947  0.1806  0.1357
 7141W        W23035  14.498  17.118  16.580 -0.2184 -0.0245  0.2177
 7142W        W23036  16.863  13.435  13.378  0.2399 -0.3043  0.2150
 7143W        W23037  16.243  14.282  12.045  0.0337 -0.0792 -0.2855
 7144W        W23038  10.083   4.911  14.298  0.1810 -0.0452 -0.0014
 7145W        W23039   4.277   8.235  13.538 -0.2363  0.0135  0.0285
 7146W        W23040   5.272   8.592   4.216 -0.1209  0.2290 -0.0609
 7147W        W23041   1.019  15.556  15.624 -0.1332 -0.1815  0.1942
 7148W        W23042   8.406  16.241  16.814 -0.0167 -0.1723 -0.0769
 7149W        W23043   0.801   9.243  17.070  0.1185 -0.4285  0.0645
 7150W        W23044   4.072   9.885  17.093  0.0677  0.1103  0.0012
 7151W        W23045  12.237   6.706   1.080  0.3469 -0.1464  0.1395
 7152W        W23046   0.989   2.003  13.956 -0.1731 -0.1603  0.3043
 7153W        W23047   6.943  17.354   4.365  0.3408  0.0930 -0.3259
 7154W        W23048  17.594  11.735   0.529  0.0844 -0.0981  0.2981
 7155W        W23049  14.689  14.794   0.991 -0.1136  0.1335  0.0405
 7156W        W23050   6.358   8.497   0.564 -0.0319 -0.3491  0.0853
 7157W        W23051  17.160   3.565   3.220  0.0955 -0.1191 -0.2567
 7158W        W23052   5.737  10.982   2.118 -0.0261  0.3560  0.0688
 7159W        W23053  13.236   6.589  12.749 -0.3065  0.1479  0.3341
 7160W        W23054   4.820   0.884  12.887 -0.1086  0.3047  0.1063
 7161W        W23055   3.299  12.052   4.883  0.0385  0.3317  0.0617
 7162W        W23056   8.413   4.242  15.415  0.3352 -0.0431  0.1074
 7163W        W23057  12.805  13.822  12.102  0.2294  0.0422 -0.2810
 7164W        W23058   0.907  17.275   1.401  0.1412 -0.0637  0.0145
 7165W        W23059   5.190   3.881   1.560  0.0288 -0.1217  0.0936
 7166W        W23060   4.008   8.588  15.113 -0.1921 -0.0494 -0.2251
 7167W        W23061  13.798  10.508   1.130 -0.0464 -0.1066 -0.1996
 7168W        W23062   3.472   2.183  15.798  0.2307 -0.0052  0.0117
 7169W        W23063   3.150  17.178  12.855 -0.2937  0.2243 -0.0422
 7170W        W23064   0.776  10.185   0.328 -0.0897  0.1265 -0.1742
 7171W        W23065   4.041   6.721  17.095 -0.0420  0.0960  0.1327
 7172W        W23066  10.084   8.276   2.866 -0.0448  0.0194 -0.0947
 7173W        W23067  13.430  14.509  11.923  0.0531  0.0595 -0.1811
 7174W        W23068   2.769   5.807   3.908  0.1369  0.0565  0.1420
 7175W        W23069  10.285  12.662  17.112 -0.3916  0.0940 -0.0105
 7176W        W23070  16.342  12.030   2.414 -0.3412 -0.1294  0.1378
 7177W        W23071   1.997  10.155  15.905  0.1825  0.0515  0.1459
 7178W        W23072   7.263  13.259  17.007  0.1774 -0.0331  0.0911
 7179W        W23073  13.911  14.916   3.976  0.1075  0.1168 -0.4015
 7180W        W23074   3.436  13.974  11.992  0.1387  0.0845  0.0770
 7181W        W23075  13.082   2.195   0.517 -0.2448 -0.0202 -0.4006
 7182W        W23076   5.066   8.635  15.060 -0.0111  0.2954 -0.1411
 7183W        W23077  15.518   5.228  14.122 -0.0091  0.1921  0.2989
 7184W        W23078   1.460   2.737   6.124 -0.1208  0.0352  0.0254
 7185W        W23079   6.882   1.650   0.627 -0.0389 -0.2426 -0.4312
 7186W        W23080  12.710  17.090   3.708  0.4597  0.2062 -0.0541
 7187W        W23081  10.794   7.809  12.672 -0.0661  0.1149  0.1864
 7188W        W23082  16.084   9.894   0.746 -0.0537  0.0005 -0.1085
 7189W        W23083   3.857   7.642   6.426 -0.3464 -0.1271  0.0122
 7190W        W23084   0.861   2.032   3.736 -0.0641 -0.0257 -0.1230
 7191W        W23085  14.821   7.092   2.903  0.6801  0.0454 -0.0559
 7192W        W23086   5.467   0.259   2.463  0.2776 -0.2379 -0.0070
 7193W        W23087  10.771  14.905   2.391 -0.1086  0.2195 -0.2153
 7194W        W23088   1.162   2.850  14.099  0.0210 -0.2271  0.0628
 7195W        W23089   1.361  10.822   5.489  0.1818 -0.0983 -0.2906
 7196W        W23090  15.000   7.786  15.740  0.0913  0.1425 -0.0504
 7197W        W23091   6.272  16.424  16.856 -0.2473  0.0399 -0.0394
 7198W        W23092   5.038   1.185   0.546  0.1403 -0.1075 -0.1320
 7199W        W23093   8.446  16.970   4.617  0.2548  0.0203  0.0489
 7200W        W23094  17.172   4.459  16.024  0.2364 -0.1363 -0.1296
 7201W        W23095   4.803   0.714   0.214  0.0712 -0.1988 -0.1245
 7202W        W23096  17.429  13.500   0.207 -0.3547  0.0644  0.1274
 7203W        W23097   5.110  14.924  12.931 -0.1011  0.0196  0.0934
 7204W        W23098   9.776  16.074   3.549  0.0356 -0.0361 -0.1385
 7205W        W23099   6.600   6.666  12.261 -0.0084  0.1860  0.5092
 7206W        W23100   9.871   1.240  16.141  0.1014  0.0271 -0.0343
 7207W        W23101  16.838  16.829  12.029  0.1666 -0.2308 -0.4049
 7208W        W23102   4.241   7.333   2.057 -0.1071  0.0436  0.0558
 7209W        W23103  14.447   8.054   1.007 -0.0491  0.1834  0.0987
 7210W        W23104   1.862  12.318  15.865 -0.0025  0.1497 -0.0915
 7211W        W23105  10.598  15.000  15.178 -0.1352 -0.1995 -0.2783
 7212W        W23106   9.822   9.184   1.828 -0.2393 -0.0835 -0.2409
 7213W        W23107   6.857  11.111   2.974  0.1188  0.1773 -0.0180
 7214W        W23108   8.505   9.213  17.062  0.0403  0.0759  0.0526
 7215W        W23109  17.163   1.546  15.070  0.2886  0.0625  0.3079
 7216W        W23110   0.102   0.941  12.562  0.1324 -0.3426 -0.2014
 7217W        W23111  15.404  14.395  17.055  0.0558 -0.1490 -0.1162
 7218W        W23112  11.502  10.781  12.473  0.0094 -0.1057 -0.4187
 7219W        W23113   9.996   5.766   2.515 -0.2170 -0.0040  0.0499
 7220W        W23114   4.340  12.774  13.359  0.2422 -0.1607  0.1201
 7221W        W23115  16.271   8.506   1.615 -0.5975 -0.0128 -0.2178
 7222W        W23116   5.424   3.533  16.937  0.3065 -0.0837  0.2933
 7223W        W23117  11.345   7.785  15.096 -0.1287 -0.0739  0.0130
 7224W        W23118  14.125   2.636   3.880 -0.0160  0.4124  0.2137
 7225W        W23119  15.128  14.449   3.555 -0.0740 -0.0897 -0.3578
 7226W        W23120   6.065   7.168   2.081  0.0436 -0.3591  0.1879
 7227W        W23121   7.765   5.894  12.178  0.1262  0.0387 -0.0407
 7228W        W23122   9.751  12.566  12.178 -0.0041  0.0042 -0.0617
 7229W        W23123  15.686  10.623  12.041  0.2898  0.2088  0.0487
 7230W        W23124  16.954   7.684   1.610 -0.1883 -0.0082 -0.0638
 7231W        W23125   2.876  12.364   4.896 -0.0828 -0.0297 -0.0740
 7232W        W23126  11.485  12.512  11.902 -0.0032 -0.1053 -0.1476
 7233W        W23127   0.449   2.440   1.395 -0.0244  0.1730  0.1421
 7234W        W23128   2.820   4.976  15.432 -0.1102 -0.1194 -0.3413
 7235W        W23129   9.243  14.130   2.308 -0.1191 -0.3086 -0.2213
 7236W        W23130  16.167   4.817   3.531  0.1733  0.3368 -0.1268
 7237W        W23131   3.538   0.308   3.203 -0.2103  0.2008  0.1480
 7238W        W23132  14.906  11.736  15.599  0.1985  0.1581  0.3224
 7239W        W23133  13.858  12.927  14.043  0.0011  0.1157  0.1550
 7240W        W23134  16.922  17.142  12.874  0.2731  0.1140  0.0186
 7241W        W23135   2.922   9.947  15.040  0.0699 -0.0081 -0.0801
 7242W        W23136   4.737   3.586   0.273  0.0551  0.0054 -0.0764
 7243W        W23137   7.284   9.684   1.556 -0.1942  0.0981 -0.3088
 7244W        W23138   9.959   3.418   0.768  0.0776 -0.2112 -0.1673
 7245W        W23139  15.072   2.835   2.989  0.2279  0.2355 -0.1678
 7246W        W23140  12.853   1.284  12.242 -0.1234  0.0624 -0.2384
 7247W        W23141  11.797  10.509   0.620  0.0683  0.0468 -0.3021
 7248W        W23142   8.051  11.942   2.503 -0.0515 -0.1850 -0.2118
 7249W        W23143   4.898   6.010  13.523 -0.0136 -0.3080  0.0011
 7250W        W23144   1.728  11.294   5.703 -0.1510 -0.0202 -0.2621
 7251W        W23145   3.231  11.217   5.884 -0.0472  0.0857  0.1722
 7252W        W23146  14.794   4.854   0.247  0.1639  0.0637 -0.0432
 7253W        W23147  13.270  11.177   5.327 -0.1830  0.4141 -0.0443
 7254W        W23148  11.609  15.660   3.508  0.0709 -0.0870  0.1300
 7255W        W23149   7.294  17.626   5.713 -0.0500 -0.1327 -0.1032
 7256W        W23150   1.672   0.632  11.946 -0.2931 -0.0193 -0.0165
 7257W        W23151  12.222  16.519  16.760  0.1090 -0.1207  0.0798
 7258W        W23152  13.418   7.639  12.873 -0.1240  0.2100 -0.0654
 7259W        W23153  14.610   5.076   4.098 -0.1313 -0.0921  0.0403
 7260W        W23154  17.500  15.951   1.209  0.0566  0.3603  0.2175
 7261W        W23155   4.988  14.778  12.399 -0.2642 -0.1065 -0.1785
 7262W        W23156  17.122   7.777  16.741 -0.0832 -0.0193 -0.1965
 7263W        W23157  12.576  12.896  14.572 -0.1896 -0.0296  0.0751
 7264W        W23158   6.553   6.960  13.145  0.0289 -0.1223  0.0136
 7265W        W23159   6.727   1.457  15.981 -0.3984  0.2872 -0.0634
 7266W        W23160   4.847  17.056   0.627 -0.1323  0.1416 -0.1073
 7267W        W23161   7.176   7.487   3.023 -0.2795  0.2233 -0.0066
 7268W        W23162  16.659  12.892   3.631 -0.0971  0.0998  0.1428
 7269W        W23163   2.355   3.898   1.094 -0.2559 -0.0825 -0.2132
 7270W        W23164   9.043  12.463   5.966 -0.2016 -0.0314 -0.0695
 7271W        W23165   0.513   8.541  12.191  0.1583 -0.3062 -0.1680
 7272W        W23166   0.321  13.561  14.823  0.2555 -0.0802 -0.2665
 7273W        W23167   1.183  15.260  16.805  0.2067 -0.2983  0.0271
 7274W        W23168  10.217   7.471   3.374 -0.3945 -0.1379  0.3214
 7275W        W23169   5.990  17.050   2.559  0.2862 -0.0450 -0.0550
 7276W        W23170  17.282   9.024   4.446 -0.1016  0.0855  0.0115
 7277W        W23171  15.561   8.136   4.488  0.0428  0.0420  0.0142
 7278W        W23172   0.222   8.268   2.855 -0.0598 -0.0784 -0.2102
 7279W        W23173   2.923  10.726   3.910  0.1624  0.0116 -0.1396
 7280W        W23174  11.367   6.417   1.708 -0.1910 -0.1376 -0.1058
 7281W        W23175  10.526   1.813  16.240  0.2642  0.3635  0.4359
 7282W        W23176   3.701  13.049  14.427  0.0596 -0.2637  0.0852
 7283W        W23177   0.129   2.048  15.855 -0.1561 -0.2195 -0.0131
 7284W        W23178   8.826   8.101  11.806 -0.1550 -0.2585 -0.3413
 7285W        W23179   3.965   5.329  16.039  0.2196 -0.1239 -0.0716
 7286W        W23180   3.461   1.452  14.276 -0.0436 -0.0777 -0.0764
 7287W        W23181   9.204   5.661  17.071  0.1511 -0.3013 -0.1068
 7288W        W23182   2.026  13.538  16.497  0.1831 -0.0708  0.2017
 7289W        W23183  13.997  11.936  16.422  0.1369  0.0137 -0.2436
 7290W        W23184   5.216  16.681  14.432 -0.1993  0.1134 -0.2910
 7291W        W23185   3.807   5.882   0.108 -0.0559 -0.0441 -0.0825
 7292W        W23186   5.253   7.835   5.241 -0.0267  0.0687  0.0400
 7293W        W23187  12.417   3.373  13.685 -0.0668  0.0057  0.2033
 7294W        W23188   6.116  15.441  17.143  0.0746 -0.0256  0.1286
 7295W        W23189  15.562  15.126  14.443 -0.0116  0.0367 -0.0154
 7296W        W23190  14.825   6.067   1.680  0.1034 -0.0721  0.0008
 7297W        W23191   9.815  11.924   1.711  0.1837 -0.0094  0.0687
 7298W        W23192   8.110   7.204  17.109 -0.2133  0.2681 -0.1291
 7299W        W23193  17.131  12.661  13.270 -0.1137  0.3069 -0.2855
 7300W        W23194   4.683  15.131  15.953  0.0223  0.1402  0.1874
 7301W        W23195   3.658   6.973  14.489 -0.0129 -0.1577 -0.0297
 7302W        W23196   8.588   6.582  16.762  0.1223  0.3769  0.0204
 7303W        W23197   7.572   8.920   1.536 -0.2223 -0.0004 -0.2565
 7304W        W23198   7.048  16.073  15.302 -0.0186  0.1577  0.1081
 7305W        W23199  13.630  14.277   3.320 -0.0165 -0.0608 -0.1894
 7306W        W23200   0.751   2.053  12.658  0.1523 -0.1555 -0.1685
 7307W        W23201   1.218   9.104   3.610 -0.1255  0.1780  0.2900
 7308W        W23202  16.932  13.610   0.187  0.0132 -0.0598  0.3402
 7309W        W23203   0.467   7.456  12.846 -0.1141  0.2016 -0.1213
 7310W        W23204   2.790  11.844   1.910 -0.0456  0.2666  0.3270
 7311W        W23205   7.317   4.185   2.178 -0.1652 -0.0963 -0.3343
 7312W        W23206   9.202   9.204  13.042  0.2824  0.0347 -0.0236
 7313W        W23207  16.885  13.962  13.484  0.0433  0.2689 -0.2188
 7314W        W23208   8.847  16.797   3.870  0.0964  0.1919  0.0855
 7315W        W23209   9.151  14.543   4.729 -0.3190  0.1209 -0.1000
 7316W        W23210  17.531   0.387   3.456 -0.5840 -0.1066  0.0825
 7317W        W23211  14.845  10.387   4.878  0.2269 -0.2568 -0.0908
 7318W        W23212  14.909  11.165  13.725  0.1490  0.0136 -0.0482
 7319W        W23213  10.507   2.123   0.063  0.0718  0.1352 -0.0960
 7320W        W23214  13.870   7.427  11.744 -0.0244 -0.1742  0.0206
 7321W        W23215   9.006  10.838   3.954 -0.1944  0.0349 -0.0675
 7322W        W23216  14.287  17.026  14.501  0.0398 -0.0991 -0.0600
 7323W        W23217   5.026   2.514  15.662 -0.0514 -0.1884  0.2144
 7324W        W23218   9.666   2.908  13.440 -0.0301 -0.1276 -0.2470
 7325W        W23219  14.577  10.306  13.614  0.1175 -0.3077  0.2100
 7326W        W23220   1.826   4.749  13.123 -0.3277 -0.2106  0.2223
 7327W        W23221  15.526  13.162   4.504 -0.1296 -0.3195  0.0456
 7328W        W23222   6.085   0.699  16.281 -0.3816 -0.1868  0.0926
 7329W        W23223   6.698   5.827   0.214 -0.1098  0.1515 -0.0060
 7330W        W23224   0.492  16.016   3.365  0.0451 -0.1043  0.1654
 7331W        W23225   6.623   5.430   1.381 -0.1029  0.4306 -0.0074
 7332W        W23226  17.202  11.436  16.852 -0.3050  0.1771 -0.2682
 7333W        W23227   1.319   0.695  15.888 -0.1875 -0.0667  0.1073
 7334W        W23228   5.510   6.793   0.863  0.3218 -0.2612  0.0552
 7335W        W23229  14.019   1.807  13.769 -0.0640  0.0835 -0.1690
 7336W        W23230   2.681   1.112   0.987  0.0388  0.2322 -0.1682
 7337W        W23231  15.047   6.249  16.741 -0.2038 -0.3259 -0.0098
 7338W        W23232   2.732  13.961   5.937  0.3092  0.0690 -0.1407
 7339W        W23233  10.371   6.959  12.878  0.0221 -0.0116  0.1698
 7340W        W23234   6.513  15.241   4.039  0.1407  0.1132  0.0256
 7341W        W23235  10.357   5.350  17.072 -0.1765  0.2419  0.0557
 7342W        W23236  15.436   4.749  15.375 -0.1285 -0.3024  0.2052
 7343W        W23237  14.835  14.552  14.892  0.2908 -0.0207  0.1525
 7344W        W23238   7.550  16.433  12.607  0.1933  0.2486 -0.0850
 7345W        W23239  11.812  12.732  16.867  0.0646  0.0914 -0.0751
 7346W        W23240   4.142   9.974   0.787  0.0820  0.2672 -0.0741
 7347W        W23241  16.086   8.417  14.558  0.4472  0.0643  0.4383
 7348W        W23242  16.890   6.445  15.930 -0.2651 -0.0417  0.1866
 7349W        W23243  14.211  12.961  17.020  0.1440 -0.0436 -0.4119
 7350W        W23244   3.702  17.162  16.595  0.2008  0.0147  0.1546
 7351W        W23245  14.989  10.896   2.455  0.1037  0.0437 -0.2663
 7352W        W23246   1.444   1.501  16.989  0.1095  0.1397  0.0651
 7353W        W23247  14.190  16.691  16.841 -0.1650  0.0725 -0.1479
 7354W        W23248   5.368   3.267  14.843  0.0081 -0.4025 -0.1888
 7355W        W23249   7.653   7.223  16.904  0.2199 -0.0837  0.1350
 7356W        W23250   2.111   8.967  15.310 -0.0817 -0.3392  0.3673
 7357W        W23251   0.085  15.481  13.002 -0.5307 -0.1987  0.1729
 7358W        W23252   0.482  17.370   4.384 -0.0418 -0.0440  0.2214
 7359W        W23253   5.463   5.237  12.469 -0.0519  0.1467 -0.4104
 7360W        W23254  13.257  11.703   4.636 -0.2642  0.2129  0.0861
 7361W        W23255  14.648  17.569   0.660  0.1056 -0.2778 -0.0496
 7362W        W23256   4.997   2.295   5.289  0.0728  0.0092 -0.4224
 7363W        W23257  10.143  16.714   5.497  0.0432 -0.1911 -0.2756
 7364W        W23258  15.373  13.414   6.357 -0.1497  0.3564 -0.1087
 7365W        W23259   7.560  15.638  14.414 -0.2666  0.2102 -0.1442
 7366W        W23260  12.908  10.545  14.462  0.1480  0.1276  0.0501
 7367W        W23261   4.922   8.063  12.961 -0.2204  0.4173 -0.2576
 7368W        W23262  15.696   6.663   0.619  0.0955 -0.0289  0.0481
 7369W        W23263  14.657   4.228   3.060  0.3736  0.2623 -0.0464
 7370W        W23264  10.647  12.673   2.793 -0.2199  0.0326 -0.1665
 7371W        W23265  11.147   0.023   5.515  0.2669 -0.0663 -0.0611
 7372W        W23266   8.077   4.244  15.048 -0.1318 -0.1536 -0.0677
 7373W        W23267   7.532   9.671  13.241 -0.2819 -0.0700 -0.0909
 7374W        W23268   2.581  10.464   5.944 -0.1092  0.0471 -0.1922
 7375W        W23269  15.931   7.205  16.807 -0.1413  0.0067 -0.2924
 7376W        W23270  15.531  10.519  12.881  0.0751 -0.0241  0.0086
 7377W        W23271  14.630   3.107  13.306  0.0560  0.0346 -0.1791
 7378W        W23272   8.958   8.345  16.779 -0.1039 -0.0473 -0.0668
 7379W        W23273  14.413  16.593  14.780  0.0189  0.0221  0.2737
 7380W        W23274  12.222  12.267   1.486  0.2289 -0.0268  0.2049
 7381W        W23275  11.436  15.461   2.934  0.1406 -0.0350 -0.0099
 7382W        W23276   7.405  10.632  10.622 -0.0919 -0.0241 -0.0373
 7383W        W23277   0.165   4.705  13.795  0.1394  0.1747  0.0079
 7384W        W23278   0.688   7.737   2.332  0.1106  0.1619  0.0082
 7385W        W23279  10.883   6.250   1.674 -0.1481 -0.1401 -0.0420
 7386W        W23280   7.351   4.387  15.664 -0.3598  0.3582  0.1615
 7387W        W23281  10.446  12.164  14.644 -0.0182 -0.2579 -0.0656
 7388W        W23282   8.134   8.698  15.399 -0.1315 -0.1542 -0.3344
 7389W        W23283   5.465   1.017   6.416  0.1336  0.3528  0.2347
 7390W        W23284  12.634   5.618   3.997  0.0367 -0.0757  0.3126
 7391W        W23285   7.977  17.317   6.647  0.1187  0.0189  0.0643
 7392W        W23286  14.263   0.715  15.982  0.2472 -0.2884  0.3743
 7393W        W23287   2.959  12.785   4.644 -0.4410  0.1530  0.2194
 7394W        W23288   1.376  14.386  15.980  0.0637 -0.0294  0.2120
 7395W        W23289  15.872   8.548   1.944  0.1214 -0.0329 -0.0009
 7396W        W23290  13.365   4.271   3.902 -0.0399 -0.1189 -0.1648
 7397W        W23291  12.950  17.408   2.859  0.2334  0.1567  0.2790
 7398W        W23292  11.375  12.491  13.579 -0.0196  0.1501 -0.0883
 7399W        W23293  12.644   4.114  16.345  0.0088  0.1110  0.2852
 7400W        W23294   8.058   6.774  11.919  0.1063 -0.0890  0.2118
 7401W        W23295  12.499  15.282   4.476  0.0295  0.2157 -0.0717
 7402W        W23296   6.774  13.241  17.138 -0.2174 -0.0260  0.2235
 7403W        W23297  14.362   3.575   3.116 -0.2125 -0.0819  0.0511
 7404W        W23298   8.973  14.016  15.084  0.3243  0.1685 -0.0626
 7405W        W23299  13.399  15.663  17.260  0.0876  0.0233 -0.1965
 7406W        W23300   8.208   4.526   5.248  0.0585  0.1560  0.2374
 7407W        W23301  17.582   5.763   0.430  0.0478 -0.3028 -0.0068
 7408W        W23302  13.944  12.354  16.728  0.0396  0.0868  0.2788
 7409W        W23303  12.516   5.134  17.234  0.1068 -0.0410 -0.1609
 7410W        W23304  13.298  11.594  11.286 -0.1650 -0.3203 -0.2432
 7411W        W23305   0.828   3.875   5.755 -0.1444 -0.1795  0.1615
 7412W        W23306  16.323   0.734  15.000  0.2957  0.3718  0.0113
 7413W        W23307   0.082   1.542   5.557 -0.1395  0.3293  0.1269
 7414W        W23308   8.553   7.898  16.547 -0.3750  0.1098 -0.1642
 7415W        W23309   0.222   1.378  13.417  0.0200 -0.2627 -0.1704
 7416W        W23310  12.321   4.205   4.037  0.2241  0.2612  0.1194
 7417W        W23311  17.515   4.967   2.215  0.0643  0.3570 -0.3100
 7418W        W23312   2.854   0.096  14.670 -0.1392 -0.0365  0.0580
 7419W        W23313   5.157   1.351  13.648 -0.0246 -0.0953 -0.0751
 7420W        W23314  13.985   7.881   4.647 -0.0677 -0.0261 -0.1583
 7421W        W23315  16.078   8.758   1.037 -0.0571 -0.3892  0.0272
 7422W        W23316   2.824  10.987   0.466 -0.0656 -0.0900  0.3507
 7423W        W23317   5.041  11.176   4.295  0.0732  0.1067  0.2802
 7424W        W23318   1.916   0.797   3.348  0.1060 -0.0125 -0.0247
 7425W        W23319  13.073   5.626  13.703  0.1984 -0.1569  0.4211
 7426W        W23320  13.196   9.392  14.873  0.0082 -0.2584  0.1171
 7427W        W23321  10.748  13.051  16.209 -0.0308 -0.1519  0.1287
 7428W        W23322  16.725  15.752  13.137  0.3334 -0.1042  0.0717
 7429W        W23323  10.964  12.766  15.817  0.1811  0.0129 -0.1875
 7430W        W23324   5.739   0.373  17.080  0.2066  0.0721 -0.1938
 7431W        W23325   0.925   5.185  15.154 -0.1079 -0.1979  0.0355
 7432W        W23326  13.550   8.268   2.776 -0.2002  0.1007  0.2574
 7433W        W23327   1.457   8.470   6.789 -0.2218 -0.0220 -0.5333
 7434W        W23328  14.605   5.950   0.109  0.2117 -0.0183 -0.0742
 7435W        W23329   8.971   7.944   0.860  0.0367 -0.2128  0.3934
 7436W        W23330   4.031   6.958   5.786 -0.0202 -0.1550 -0.0948
 7437W        W23331   7.255   1.773  12.786 -0.2741 -0.1869  0.0634
 7438W        W23332   9.059  12.788  15.769  0.0148 -0.3697 -0.1945
 7439W        W23333  15.274   4.980   3.152 -0.0840  0.1431  0.2521
 7440W        W23334   0.038   5.485  13.878  0.0738  0.2150  0.1318
 7441W        W23335  14.046  14.691   2.174 -0.2705  0.2796  0.1871
 7442W        W23336   6.747  13.849   3.848  0.1665  0.3352 -0.2353
 7443W        W23337   9.266  16.009  14.695 -0.0697  0.2392 -0.2517
 7444W        W23338   5.637  16.739   2.963  0.2291  0.0783 -0.3259
 7445W        W23339   8.358   6.900  13.368  0.0381  0.4904  0.2075
 7446W        W23340  15.874  16.432  12.906  0.1377  0.0668  0.2413
 7447W        W23341   6.221  13.722   5.090 -0.1042 -0.0927  0.3583
 7448W        W23342  15.059   1.867  16.749 -0.0989 -0.0919 -0.2247
 7449W        W23343   3.924   4.240   1.131  0.0857  0.0303  0.0418
 7450W        W23344  17.290   3.231  16.525 -0.0271  0.0846  0.1549
 7451W        W23345   8.617  15.032  12.623  0.2693 -0.2501  0.4993
 7452W        W23346   7.129   9.144  15.266  0.1804  0.3594  0.2715
 7453W        W23347   9.380  13.303   1.152 -0.1464 -0.0709 -0.1649
 7454W        W23348   9.016  11.577   4.775 -0.1658  0.0629 -0.1894
 7455W        W23349   0.647   6.023   1.875 -0.0061 -0.1196 -0.1184
 7456W        W23350   8.860   3.471  12.066 -0.2098 -0.1178  0.0343
 7457W        W23351   1.841   0.492  14.833  0.0738 -0.1761 -0.0611
 7458W        W23352  11.459   0.445   2.193 -0.1682  0.1247 -0.1778
 7459W        W23353   0.538  15.921   1.979 -0.2562 -0.0291  0.0670
 7460W        W23354  14.057   9.350  17.289  0.0836  0.0176  0.0798
 7461W        W23355  17.405   7.552  16.363 -0.1379  0.1280  0.0264
 7462W        W23356  15.787   4.244   3.727 -0.1203 -0.0073 -0.1493
 7463W        W23357   1.190   9.148   4.955 -0.0026  0.0088  0.3370
 7464W        W23358  13.620   8.694  12.116 -0.2261  0.2910 -0.1349
 7465W        W23359  12.257   5.324  15.503 -0.0388  0.6211  0.0010
 7466W        W23360  12.801   2.484  13.421 -0.0110 -0.1056  0.1412
 7467W        W23361   1.845   1.379  14.139  0.3925 -0.3707 -0.3352
 7468W        W23362   9.647   0.571  16.865 -0.2512 -0.0122  0.1307
 7469W        W23363   5.221   3.805  14.720  0.1105  0.0488  0.0544
 7470W        W23364  11.385   1.339   3.596 -0.0886 -0.1446  0.1563
 7471W        W23365  10.450   5.349   2.966  0.0158 -0.0455 -0.1195
 7472W        W23366   3.875  17.484  13.575 -0.1631 -0.0139 -0.2615
 7473W        W23367   5.584  14.408  15.001  0.0494  0.0524  0.0351
 7474W        W23368   5.751   9.256   2.668  0.1388  0.0316 -0.1369
 7475W        W23369   7.829   5.645   3.338 -0.0937 -0.5311  0.1410
 7476W        W23370  13.796  15.255   2.760 -0.0214 -0.1579  0.1792
 7477W        W23371   1.744  11.925  12.203  0.1083 -0.1067  0.1016
 7478W        W23372  14.461  17.636  15.759  0.2569 -0.1137  0.0831
 7479W        W23373  15.260   3.591  16.050 -0.0406 -0.0006  0.4331
 7480W        W23374   8.412   2.588  16.605  0.3374  0.3578  0.1339
 7481W        W23375  10.626  15.542  14.472 -0.0813  0.1930  0.1936
 7482W        W23376   5.647   9.111   5.601 -0.1501 -0.0342 -0.0147
 7483W        W23377   1.924   4.848  16.992  0.2279  0.0096 -0.0483
 7484W        W23378   4.346   0.056  16.616 -0.0151 -0.0918  0.1214
 7485W        W23379   7.162   5.491  15.131 -0.1486 -0.0197  0.0500
 7486W        W23380  15.133   8.862  12.155 -0.0853  0.0620  0.0546
 7487W        W23381  12.259  10.160  15.522  0.0956  0.2951  0.0013
 7488W        W23382   9.617   5.695  16.797  0.4755 -0.0236  0.2403
 7489W        W23383  17.226   4.943   3.170  0.1245 -0.1118 -0.0995
 7490W        W23384  14.168   6.669   5.693 -0.0008 -0.1749  0.0782
 7491W        W23385   1.056  15.210   3.930 -0.2023  0.1814 -0.2535
 7492W        W23386   9.899   0.533  13.641 -0.1043 -0.1955 -0.0258
 7493W        W23387  17.194   9.249   0.434 -0.0451 -0.1557  0.1285
 7494W        W23388   6.008  13.555  15.840 -0.1301 -0.1089  0.2130
 7495W        W23389  13.089  16.714  12.102  0.0226  0.0200  0.0796
 7496W        W23390   4.835   4.802  15.029  0.0843 -0.0012 -0.0588
 7497W        W23391   1.046   7.380   2.435  0.0155  0.0812  0.5737
 7498W        W23392   8.240   6.561   3.261  0.0894 -0.1447 -0.1659
 7499W        W23393   7.150  10.744  15.928 -0.0633 -0.1660 -0.0290
 7500W        W23394  16.472   9.366   0.074  0.0176 -0.1071  0.0690
 7501W        W23395   9.366   5.282  13.522  0.4456  0.2061  0.1548
 7502W        W23396   3.495   2.791  13.011 -0.0761 -0.1883  0.1605
 7503W        W23397  13.412   8.191  16.010 -0.3323 -0.0499  0.1906
 7504W        W23398  16.841   8.042  14.736  0.1278  0.1785 -0.0080
 7505W        W23399  10.146   1.552  14.494 -0.2364  0.0360 -0.2983
 7506W        W23400  14.353   5.213   5.249 -0.1678  0.2360  0.1432
 7507W        W23401  11.907  16.636   5.646  0.2125 -0.2254  0.0214
 7508W        W23402  11.532  11.054   4.381 -0.4297  0.1724  0.1009
 7509W        W23403  15.333  14.141   4.902  0.0056  0.1438 -0.2654
 7510W        W23404   4.439   5.322  13.140  0.1182  0.0702  0.1007
 7511W        W23405   5.913  13.607  13.997  0.2114  0.1712 -0.0094
 7512W        W23406  12.831  10.057  11.385  0.2830  0.2456  0.2079
 7513W        W23407   5.716   5.729   5.072 -0.1892  0.0475  0.1855
 7514W        W23408   3.634   9.822  12.151  0.0389  0.0934  0.0071
 7515W        W23409  13.864   1.149  14.509  0.4714  0.0061  0.1485
 7516W        W23410   2.754   3.323   4.881  0.1209 -0.2344 -0.0624
 7517W        W23411  13.212   8.123  12.915 -0.0892 -0.1011 -0.1440
 7518W        W23412   1.624  11.826  14.162 -0.0107 -0.1430  0.0533
 7519W        W23413   0.249   9.685  16.450 -0.3722  0.0347 -0.0031
 7520W        W23414  15.356  12.220   1.338  0.2092  0.2196  0.0758
 7521W        W23415   9.339   9.573   5.061 -0.2094  0.2055  0.1495
 7522W        W23416  16.498   1.269  13.547 -0.1159  0.2766 -0.0557
 7523W        W23417   7.057  16.427   5.807  0.3092 -0.1242  0.0725
 7524W        W23418   6.010  12.725  13.055 -0.1330  0.1028  0.0813
 7525W        W23419  13.922  10.232  13.099 -0.1428 -0.0844 -0.0410
 7526W        W23420   5.307   6.477  15.148  0.2179  0.2165  0.0435
 7527W        W23421  12.973  14.978  16.381  0.1415 -0.0982  0.1894
 7528W        W23422   3.599   3.034   5.268  0.1432  0.2469  0.1417
 7529W        W23423  17.188   9.801   5.235 -0.1705 -0.0041 -0.0029
 7530W        W23424   1.475  12.892   0.909 -0.2583 -0.1188  0.3428
 7531W        W23425   0.443   8.038   3.354  0.1425  0.1291 -0.2845
 7532W        W23426  11.213  15.891   3.430 -0.0899 -0.0729  0.1647
 7533W        W23427  12.760   8.598  12.530  0.0911 -0.2343  0.0556
 7534W        W23428  16.303  16.594   6.227 -0.1281  0.1142  0.0256
 7535W        W23429  10.000  16.652   0.347  0.2129  0.3723  0.0088
 7536W        W23430   0.957   0.443  15.418 -0.1629  0.0795 -0.0597
 7537W        W23431   8.472   2.531   0.014  0.0629 -0.1716 -0.0288
 7538W        W23432   6.073  11.339  17.180  0.0340  0.0244 -0.0402
 7539W        W23433   6.354   8.112  13.205 -0.0063 -0.0869  0.1916
 7540W        W23434   8.656  14.022  12.719 -0.0016  0.2175  0.2950
 7541W        W23435   6.239  17.462  13.183  0.0500 -0.1949 -0.0363
 7542W        W23436  17.184   9.053  16.678  0.0112 -0.0625  0.1631
 7543W        W23437  10.729   6.937  16.230 -0.0412 -0.2257  0.2759
 7544W        W23438   0.959   1.529   0.512  0.2177 -0.1225  0.2772
 7545W        W23439  17.630   9.254  11.037  0.2220  0.0126  0.1651
 7546W        W23440  17.319   1.167   3.982  0.0728  0.0071  0.3826
 7547W        W23441   8.255   4.375   2.179 -0.0741 -0.0241  0.1329
 7548W        W23442  11.650   7.998  12.208 -0.0765  0.0113 -0.1968
 7549W        W23443  10.052   2.468   3.223  0.1676 -0.0352  0.1949
 7550W        W23444   1.688   5.079   0.905  0.2622  0.1286 -0.3676
 7551W        W23445  11.370  17.289  16.244  0.1315 -0.1376 -0.0723
 7552W        W23446  10.570   9.830   1.920 -0.3899  0.2377  0.0129
 7553W        W23447  16.143  13.278   0.212  0.1367 -0.0117  0.1891
 7554W        W23448   3.017  14.123   4.477 -0.2708 -0.0539 -0.0512
 7555W        W23449   6.427   8.520   4.514  0.0211  0.2710  0.3351
 7556W        W23450   3.810  16.823   2.922 -0.3776  0.1195 -0.2306
 7557W        W23451  10.654   7.608  12.221 -0.1293 -0.3042 -0.1469
 7558W        W23452  14.800   4.242   2.550 -0.1403  0.4042  0.0474
 7559W        W23453  17.338   4.077  16.893  0.1935 -0.2866 -0.1474
 7560W        W23454   8.807   0.716  11.943 -0.0864  0.0113  0.1508
 7561W        W23455   7.648  11.951   4.159 -0.0917 -0.0023 -0.0330
 7562W        W23456  15.441   2.492   4.156  0.0189 -0.0644 -0.1995
 7563W        W23457  10.239   6.591   4.384 -0.4092  0.1825 -0.1987
 7564W        W23458   5.721   9.303  13.752 -0.0035  0.0143 -0.0715
 7565W        W23459   1.944  15.886  17.052 -0.0208 -0.3219  0.2069
 7566W        W23460   0.683   4.270   5.502  0.1229 -0.2035 -0.1098
 7567W        W23461  12.214   9.847   1.267  0.0992  0.2399  0.2542
 7568W        W23462   9.809   2.810   2.477  0.1162 -0.1634 -0.0784
 7569W        W23463  12.537   5.741   0.642  0.0349 -0.0764  0.0788
 7570W        W23464   0.160  13.143  13.540  0.1599 -0.0634 -0.0257
 7571W        W23465   7.885   2.927   1.802  0.1369  0.1071  0.1374
 7572W        W23466   1.501  17.067  11.133 -0.0897 -0.3280  0.0149
 7573W        W23467  12.696  11.810   4.146  0.0206 -0.3402  0.1070
 7574W        W23468  10.889  16.768  15.549  0.2451 -0.0278  0.3097
 7575W        W23469  12.367   0.727   3.590 -0.0477  0.1119  0.1147
 7576W        W23470   0.828  11.098  15.526  0.3980 -0.1739 -0.0436
 7577W        W23471   2.961   7.486  16.949 -0.1223  0.2757 -0.2934
 7578W        W23472   0.900   5.541   0.905 -0.1435  0.0941  0.2067
 7579W        W23473   2.948   6.058  14.677  0.1091 -0.2059 -0.1993
 7580W        W23474  15.089   0.328  16.240  0.0333  0.0786  0.1328
 7581W        W23475   2.437   8.538   4.812 -0.0544  0.1990 -0.1731
 7582W        W23476   3.236  14.094  16.223 -0.1179 -0.0182 -0.1333
 7583W        W23477   8.984   8.721   4.395 -0.1097  0.2862 -0.2378
 7584W        W23478   5.482  14.997   0.215  0.3045 -0.0681  0.3343
 7585W        W23479   0.053  10.259  11.052  0.1017  0.1131 -0.1440
 7586W        W23480  10.236   5.771  11.538 -0.0612  0.1916 -0.0198
 7587W        W23481   8.563  13.034   5.171  0.3952 -0.2196  0.0934
 7588W        W23482  10.856  11.508  17.203 -0.0332 -0.1141 -0.2285
 7589W        W23483   5.178   1.315   6.744  0.0147  0.2978 -0.3308
 7590W        W23484   8.712   6.263  12.597 -0.0057  0.2390 -0.1185
 7591W        W23485  17.229   3.989   3.880  0.1089 -0.0589  0.0440
 7592W        W23486   6.279  15.403   2.799  0.2894 -0.2683  0.0136
 7593W        W23487   4.974   6.539  13.441  0.0491 -0.0982  0.2596
 7594W        W23488   0.773  16.672  14.436 -0.1410  0.0317 -0.1128
 7595W        W23489   1.077   1.126  14.756 -0.0884 -0.0406 -0.3539
 7596W        W23490   1.086  16.439  13.126 -0.1801  0.0602  0.0418
 7597W        W23491   0.664   5.027   3.349  0.2353 -0.0800 -0.1247
 7598W        W23492  11.087   2.732  13.496 -0.3645  0.2298  0.0489
 7599W        W23493   5.277   7.727  15.519  0.3029  0.0540  0.1081
 7600W        W23494   7.905   5.438   3.842 -0.1937 -0.0112 -0.2554
 7601W        W23495  12.107  10.181   3.213  0.0395  0.2166  0.0355
 7602W        W23496  11.869   1.136  15.460 -0.1670 -0.3082  0.1823
 7603W        W23497   3.546   0.289  13.949 -0.2125 -0.2176  0.1500
 7604W        W23498  13.720  11.979   1.453 -0.3279 -0.1539 -0.0854
 7605W        W23499   2.513  14.838   0.411  0.2130 -0.2301 -0.0883
 7606W        W23500  14.999   9.897   0.632 -0.0579  0.1018  0.1542
 7607W        W23501   2.460   1.592   4.303 -0.0485  0.2903 -0.3393
 7608W        W23502   4.531  13.767   1.866  0.2481 -0.2538 -0.0704
 7609W        W23503  16.191   7.311  14.862 -0.0350  0.0639  0.2922
 7610W        W23504   0.657  17.068  15.307  0.0395  0.2777  0.1113
 7611W        W23505  11.865  12.354   1.906 -0.0555 -0.1099  0.0263
 7612W        W23506   8.382  13.497   4.858 -0.2003 -0.1207 -0.0164
 7613W        W23507  10.306  12.237  13.389  0.1965  0.1733 -0.3966
 7614W        W23508   4.905   1.021  13.376 -0.0936 -0.0563 -0.1126
 7615W        W23509   2.066   4.749   3.519  0.1016 -0.0496  0.2700
 7616W        W23510  15.944   8.345   3.840 -0.1690  0.1148  0.0389
 7617W        W23511   3.769  13.006   5.794 -0.0351 -0.0674  0.0722
 7618W        W23512   3.983  10.539   3.890  0.0485  0.3755  0.1761
 7619W        W23513  16.066   6.423  14.344  0.1330 -0.0039 -0.1126
 7620W        W23514   2.917  16.428   3.057 -0.1105 -0.0511  0.0445
 7621W        W23515  15.465  14.848   3.551 -0.1165  0.1625  0.1555
 7622W        W23516  16.577   2.974  12.350 -0.4401  0.2500  0.1797
 7623W        W23517   7.165  15.907   3.780  0.0277  0.2594  0.0429
 7624W        W23518   0.505  10.502  16.622  0.3788  0.1674 -0.0663
 7625W        W23519  13.136   5.992   2.433  0.0464 -0.1141 -0.2727
 7626W        W23520   1.496   5.852   1.450  0.1469 -0.2221  0.1923
 7627W        W23521  17.108   1.348  12.380 -0.1794  0.0017  0.1457
 7628W        W23522  16.464   8.371   4.576  0.0632  0.3546 -0.1508
 7629W        W23523  11.750   5.905   2.475  0.1161 -0.1978  0.0155
 7630W        W23524  15.757  11.503   5.429 -0.3755 -0.0235  0.2547
 7631W        W23525   3.648   9.261  15.871  0.0366  0.1103 -0.0965
 7632W        W23526  11.916   2.377  15.364  0.0469  0.1137  0.0312
 7633W        W23527   1.024   5.374  12.973  0.1092  0.3113  0.0939
 7634W        W23528  12.352  15.806  16.057 -0.3887  0.0065 -0.1303
 7635W        W23529   8.823   1.205   0.672  0.1862 -0.3406 -0.0977
 7636W        W23530   1.799   7.315   5.934 -0.1512  0.0540  0.1261
 7637W        W23531   7.464   4.045  13.698  0.1437 -0.1854 -0.4550
 7638W        W23532  16.234  13.431   2.373  0.2989 -0.1726 -0.0500
 7639W        W23533  10.201   4.376   2.766  0.0385 -0.1499  0.0922
 7640W        W23534  12.133   5.493   2.821  0.0596 -0.3327  0.2633
 7641W        W23535   5.887   3.416  16.700  0.2802 -0.3196  0.2645
 7642W        W23536  11.326   8.897   1.913  0.0559  0.1789  0.2396
 7643W        W23537   8.462  16.542  13.724  0.0743  0.0700 -0.0688
 7644W        W23538  16.546  11.498  12.100  0.0005  0.0296 -0.1346
 7645W        W23539  12.361   8.461   3.369  0.1609 -0.0150 -0.0447
 7646W        W23540   5.499   6.738   4.734 -0.1320  0.2863  0.0938
 7647W        W23541   2.320   3.193   6.235  0.0935  0.4276  0.0350
 7648W        W23542   0.635  11.545  15.501 -0.0859 -0.0727 -0.0245
 7649W        W23543   5.569   8.174   3.717 -0.0380 -0.3094 -0.1746
 7650W        W23544   0.056  16.542  13.906  0.0677  0.0298  0.1230
 7651W        W23545   1.511  11.497  15.970 -0.2235 -0.0107  0.2492
 7652W        W23546  17.144   0.009  11.949  0.0023 -0.3088  0.3406
 7653W        W23547   9.553   2.856   3.296 -0.1534 -0.0804 -0.0716
 7654W        W23548   5.365   9.141   0.433  0.2717  0.1558  0.1786
 7655W        W23549   5.430  13.742   5.556  0.4372 -0.1903  0.0127
 7656W        W23550   7.674   1.933  15.506 -0.0062 -0.1653 -0.2356
 7657W        W23551   3.725  13.439  13.103  0.0611  0.4066  0.4104
 7658W        W23552  17.042   8.742   3.179  0.2046 -0.2178  0.0617
 7659W        W23553   6.274  15.406   4.594 -0.4688  0.0126 -0.0170
 7660W        W23554  15.325   9.817  13.349  0.1214 -0.0910  0.2118
 7661W        W23555  13.410   6.052   3.304  0.2696  0.2974 -0.1696
 7662W        W23556  15.181   9.055   2.880 -0.0354 -0.2054 -0.2996
 7663W        W23557  16.145  13.848   4.937  0.1649  0.1150  0.1880
 7664W        W23558   6.872  17.615  12.492 -0.1855  0.0676  0.0370
 7665W        W23559   1.546  10.810  15.533  0.3229  0.3000 -0.0131
 7666W        W23560  16.926   1.797  17.098  0.1267  0.0153 -0.0219
 7667W        W23561  17.530   5.638  17.219 -0.2045  0.0556 -0.2118
 7668W        W23562   7.826   4.628   3.972  0.2112  0.1799 -0.1844
 7669W        W23563  10.180   9.579  16.015  0.3787  0.0072 -0.1930
 7670W        W23564   7.752   3.661   2.237 -0.1540 -0.2271 -0.2345
 7671W        W23565   3.874  15.107   1.019  0.1498  0.0278  0.4139
 7672W        W23566  16.919   9.738  15.894  0.1201  0.2148  0.2097
 7673W        W23567   3.726   9.608   1.993  0.0303 -0.0241 -0.3254
 7674W        W23568   9.845   3.867   0.505  0.0805 -0.1110 -0.0213
 7675W        W23569   6.270  13.262  12.451 -0.1109  0.2461  0.0303
 7676W        W23570   7.744   0.881  13.130  0.2031 -0.2628 -0.3225
 7677W        W23571  14.287   5.172  12.409  0.2717  0.1230 -0.2078
 7678W        W23572   3.547  11.078   2.631 -0.0011  0.0623  0.0673
 7679W        W23573  12.305  13.260   3.888  0.2169  0.0237  0.3099
 7680W        W23574   4.303   9.036   1.547 -0.0277  0.1490 -0.0443
 7681W        W23575  10.573   2.778   1.300  0.1243 -0.0592 -0.0551
 7682W        W23576  11.584   6.619  14.573  0.1092  0.3183  0.2997
 7683W        W23577   2.804  16.346   1.994  0.0325 -0.3339  0.1512
 7684W        W23578  13.869  12.376   3.424 -0.0481  0.0004 -0.0085
 7685W        W23579  13.356   5.619   3.591 -0.0414  0.2922 -0.0922
 7686W        W23580   4.843   2.729   1.982  0.0992  0.2723  0.0618
 7687W        W23581   8.093  16.850  15.497 -0.2726 -0.0525 -0.1605
 7688W        W23582  11.577   2.247  16.864  0.2571 -0.0282  0.1264
 7689W        W23583  15.386  14.860   4.687  0.2379  0.0604 -0.0670
 7690W        W23584  15.271  16.899   0.380  0.1369 -0.2534 -0.0654
 7691W        W23585   1.055  12.517   1.827 -0.0012 -0.0955  0.1188
 7692W        W23586   3.170   1.157   5.282  0.3455  0.0121  0.1448
 7693W        W23587   3.323  13.122  17.072 -0.0680 -0.3670  0.2481
 7694W        W23588   7.716  13.071  13.125  0.3779  0.0779 -0.1346
 7695W        W23589   6.657  14.701  16.344  0.2847  0.0431 -0.1450
 7696W        W23590   5.192  16.035  17.165 -0.3034 -0.0561 -0.0264
 7697W        W23591   4.515   3.033  13.954  0.2120  0.0686  0.0300
 7698W        W23592   6.550   2.151   3.771  0.0537 -0.1574 -0.4338
 7699W        W23593   7.772  11.896   0.476 -0.0623 -0.0436 -0.1369
 7700W        W23594  10.900   4.492   6.109  0.1503  0.0295  0.0922
 7701W        W23595   9.381   9.016  16.314 -0.1443  0.2679  0.2366
 7702W        W23596   7.053   5.666  15.630 -0.1612  0.1906  0.0865
 7703W        W23597  14.424   3.405   2.612  0.0228 -0.1832  0.1629
 7704W        W23598  12.103   2.412  12.041 -0.0982 -0.1572  0.0421
 7705W        W23599  17.052   9.401   2.651 -0.1393  0.0415  0.0531
 7706W        W23600   6.101  12.349   2.688 -0.1625 -0.0704 -0.1524
 7707W        W23601  15.824  13.462   5.798 -0.2644  0.1561  0.1291
 7708W        W23602  12.032   6.270   1.320  0.0991  0.1210  0.0376
 7709W        W23603  12.159   4.335  13.695  0.3301 -0.1602 -0.3704
 7710W        W23604  11.192  10.781  13.715 -0.1661  0.0898 -0.0148
 7711W        W23605   5.079  13.194   2.534 -0.0988  0.2020 -0.0030
 7712W        W23606   5.999  11.740  16.502  0.2187 -0.0598  0.1607
 7713W        W23607   9.558   3.346  15.379  0.1695  0.1708 -0.1525
 7714W        W23608   3.896   0.877  16.531 -0.3444  0.0642 -0.0057
 7715W        W23609   4.644   9.046  17.103  0.0502  0.0406  0.0715
 7716W        W23610  16.704   7.648   3.381 -0.0183  0.1048 -0.2474
 7717W        W23611   5.811   2.921   5.596  0.0710 -0.2358 -0.1104
 7718W        W23612  15.615   8.091  14.535  0.1908 -0.1028 -0.0682
 7719W        W23613  15.915  15.424   3.000 -0.2406 -0.4228  0.1983
 7720W        W23614   8.920  11.258  12.710  0.1169 -0.0710  0.1159
 7721W        W23615  14.678   8.235  13.400 -0.1374 -0.0862 -0.1995
 7722W        W23616   7.916   1.914  14.917  0.2781  0.2764 -0.0527
 7723W        W23617  16.734   4.947  15.534 -0.0828 -0.1124 -0.1716
 7724W        W23618   1.508  12.660  16.426  0.3150  0.0930 -0.1252
 7725W        W23619   0.541   6.453   4.553  0.2698  0.1205 -0.2065
 7726W        W23620  16.193  13.166  13.018  0.0342 -0.1893  0.1909
 7727W        W23621   9.617   9.155  17.035 -0.1338  0.1753  0.2568
 7728W        W23622   2.558  11.025   0.009  0.1992 -0.3382 -0.1638
 7729W        W23623  14.047   8.142   2.504 -0.0793 -0.1579  0.0333
 7730W        W23624  16.566   5.309  17.088  0.0192  0.1840 -0.0477
 7731W        W23625  15.794   7.167  14.532 -0.1929  0.0444  0.3706
 7732W        W23626   7.625   9.054   2.977 -0.1077 -0.1983 -0.0929
 7733W        W23627  16.041   1.763  11.516  0.2682 -0.1626  0.2367
 7734W        W23628   1.252  17.233   3.364  0.2567 -0.1252  0.0919
 7735W        W23629   8.227   4.945   1.017  0.2162 -0.1033  0.0206
 7736W        W23630   6.400  14.384  15.457 -0.4276  0.0369  0.0083
 7737W        W23631   6.882   0.051   3.058  0.1308  0.0732 -0.1927
 7738W        W23632  10.977   0.178  12.209 -0.3063 -0.0424  0.0016
 7739W        W23633  17.340   4.932  13.935 -0.1141 -0.1488  0.2740
 7740W        W23634  10.436   6.723   0.489  0.4186  0.1682  0.0625
 7741W        W23635   9.928   6.747  12.197  0.3034  0.0373  0.5711
 7742W        W23636  15.202   4.747  12.887 -0.0488 -0.0297  0.2798
 7743W        W23637   8.575  14.357  14.836 -0.0813  0.1708  0.1406
 7744W        W23638   0.746   9.230   2.039  0.4551 -0.1448 -0.1451
 7745W        W23639   6.540   9.464  14.535  0.3287  0.4203  0.0642
 7746W        W23640   2.435   7.308   5.953 -0.1376 -0.2143  0.3768
 7747W        W23641  12.982   4.751   0.484 -0.2481  0.2428  0.1003
 7748W        W23642  13.610  16.062   4.791  0.0114  0.0071 -0.1037
 7749W        W23643   2.583   9.925   0.756 -0.1106 -0.1820  0.1059
 7750W        W23644   8.797   3.969  15.369 -0.0581  0.1639  0.1391
 7751W        W23645  15.492  15.138  14.978 -0.1220  0.0891 -0.2719
 7752W        W23646   1.637   8.159  12.046  0.0889 -0.2116 -0.1108
 7753W        W23647   9.311  16.892   4.727 -0.2879  0.3156 -0.3491
 7754W        W23648  13.814   4.642   2.855  0.0673 -0.1750 -0.1991
 7755W        W23649   1.419   0.065   3.168  0.3664  0.1125  0.0168
 7756W        W23650   8.962  10.414  16.224  0.3614  0.0771  0.1699
 7757W        W23651   7.157  15.573   0.591  0.0948 -0.1087  0.1764
 7758W        W23652   3.440   2.841   2.816 -0.0199 -0.1356 -0.2021
 7759W        W23653  17.121   4.585  14.267 -0.2429 -0.2353  0.1380
 7760W        W23654   1.270   5.474  14.508 -0.1862 -0.2841 -0.0044
 7761W        W23655   6.592   5.210  14.356 -0.0049 -0.2602  0.0373
 7762W        W23656  14.790   2.473   0.890 -0.0411 -0.2616  0.2479
 7763W        W23657   7.995   1.244  16.638 -0.1303 -0.2378 -0.0138
 7764W        W23658  10.936  12.907   3.619 -0.0996  0.0421 -0.2643
 7765W        W23659   2.357  16.824  13.344  0.3024 -0.0416  0.2483
 7766W        W23660  17.432   5.462   2.443  0.1394  0.0618 -0.0655
 7767W        W23661   0.306   6.182   6.051  0.0569 -0.1769  0.0413
 7768W        W23662  16.880   7.853  15.182 -0.2394 -0.2580  0.2124
 7769W        W23663  12.231  10.055  12.331  0.2058  0.0567 -0.0591
 7770W        W23664  15.602   3.647   1.672  0.0952 -0.1464 -0.2564
 7771W        W23665   7.508   1.989   5.758 -0.1025 -0.2459  0.0281
 7772W        W23666  15.987  11.929  14.854 -0.0336  0.0672  0.1721
 7773W        W23667  11.449   4.938  13.901  0.1769 -0.2453 -0.0331
 7774W        W23668   8.421  13.240   1.932 -0.2811  0.0429 -0.0724
 7775W        W23669   3.619   5.645   5.703 -0.0599 -0.1797 -0.1773
 7776W        W23670  17.362  11.303   5.767 -0.2693 -0.0003 -0.2808
 7777W        W23671   3.783  17.283  14.427 -0.1315 -0.1730  0.1825
 7778W        W23672   1.841   6.146   4.784  0.2018  0.1762  0.1153
 7779W        W23673  13.866   4.439  12.630  0.3989  0.1150 -0.0826
 7780W        W23674  11.293  17.448  14.295  0.1130  0.3596 -0.1711
 7781W        W23675   0.577   2.641   0.951  0.1455 -0.1596  0.0374
 7782W        W23676   4.215   0.744   0.540 -0.2803 -0.0281  0.2247
 7783W        W23677   9.270   4.126  16.214  0.3233 -0.1041  0.0256
 7784W        W23678   3.565   2.847  16.954  0.1637 -0.1252 -0.4356
 7785W        W23679   1.347  10.470   1.664 -0.1635 -0.1739  0.2054
 7786W        W23680   7.547   9.775  12.326  0.2058 -0.1138 -0.0953
 7787W        W23681   3.853  17.021   5.850  0.1909 -0.1028 -0.0628
 7788W        W23682   1.206  14.461   2.990  0.1155 -0.2348 -0.1603
 7789W        W23683   7.801  13.517   5.642 -0.1744  0.3183 -0.0653
 7790W        W23684  15.971   0.762  13.574  0.0037 -0.1170  0.1273
 7791W        W23685   8.517  10.503  13.438 -0.0270 -0.1624  0.1817
 7792W        W23686  11.062   4.206  14.850  0.2308  0.1544 -0.2407
 7793W        W23687   5.263  12.470   3.857 -0.1811 -0.2582 -0.2118
 7794W        W23688  11.766  12.607   3.283  0.0379 -0.2908  0.2552
 7795W        W23689  14.616   6.295  16.981 -0.1274  0.4065  0.1309
 7796W        W23690   5.507  13.734  15.565  0.0400  0.0295  0.0866
 7797W        W23691   6.149  13.035  13.794  0.0862 -0.1636 -0.0458
 7798W        W23692   7.543  13.268   0.154 -0.3400 -0.0194  0.0687
 7799W        W23693  14.092   2.084   1.748  0.0475 -0.0994 -0.0054
 7800W        W23694   9.736  11.148  13.965 -0.1446 -0.0371  0.1864
 7801W        W23695   2.172   0.460   5.132  0.0595 -0.0024  0.1820
 7802W        W23696   0.784  10.025   1.799  0.3526  0.1651 -0.1295
 7803W        W23697  16.363  13.819  12.333  0.0439 -0.0837  0.0106
 7804W        W23698   7.656   3.079   5.123  0.0569 -0.0431  0.1545
 7805W        W23699   6.482   6.613  16.127 -0.0554  0.0906 -0.0205
 7806W        W23700  11.064  14.881   3.575  0.1610 -0.1834 -0.2791
 7807W        W23701   8.439  11.592  15.824 -0.0039 -0.0405 -0.1127
 7808W        W23702  15.658   0.845   1.403  0.0623 -0.3982 -0.0444
 7809W        W23703  14.573   5.941  14.534 -0.1567 -0.0919 -0.1201
 7810W        W23704   0.788   6.168  13.395  0.1622  0.1190  0.0250
 7811W        W23705   1.081   4.898   4.851  0.0504 -0.1388  0.1980
 7812W        W23706  15.255  11.839   0.407  0.2502 -0.0133  0.1235
 7813W        W23707   3.953  14.923   4.974  0.1473 -0.0058 -0.1511
 7814W        W23708   8.868   0.425  14.674 -0.4304 -0.0181  0.0249
 7815W        W23709  15.594   3.662  13.331  0.1851 -0.0272 -0.0711
 7816W        W23710  11.872   0.229   1.850  0.2570  0.1083  0.2593
 7817W        W23711   9.036   1.956  15.226  0.0113 -0.1938 -0.0825
 7818W        W23712   8.649  11.699  12.630  0.1722  0.2315 -0.2137
 7819W        W23713   8.363   6.134  16.778 -0.2811  0.0284  0.2166
 7820W        W23714   6.649  10.913  11.874 -0.0338 -0.1667  0.0430
 7821W        W23715   1.872  13.652   5.221  0.1359 -0.1904 -0.2081
 7822W        W23716  10.386  11.906  12.306 -0.1002  0.0181  0.2478
 7823W        W23717  15.208  16.349   1.679  0.0696 -0.1102 -0.1412
 7824W        W23718   6.411  14.843  13.348 -0.1152  0.1182  0.0525
 7825W        W23719  14.385  12.296   6.103 -0.1600 -0.1464 -0.1424
 7826W        W23720   7.854   7.627  17.179 -0.1012  0.2166 -0.1055
 7827W        W23721  15.019  15.569  16.315 -0.2261 -0.1361  0.0538
 7828W        W23722   2.570   4.005  11.459  0.4469  0.1358 -0.2469
 7829W        W23723  11.532  17.565   4.844  0.2473  0.0919  0.1469
 7830W        W23724   8.852  12.502   1.858  0.3204  0.0765 -0.1446
 7831W        W23725   4.646   2.022  16.860 -0.0597 -0.2332  0.1009
 7832W        W23726  14.309   0.233  17.237 -0.4020 -0.2989 -0.2044
 7833W        W23727   2.371   9.876   2.478 -0.2653 -0.2234 -0.2472
 7834W        W23728  12.436   1.920   1.691 -0.0066  0.2733 -0.1098
 7835W        W23729   2.492  14.212   1.692  0.1405 -0.0100  0.1940
 7836W        W23730   6.324  12.926   5.009 -0.3911  0.1108  0.0215
 7837W        W23731   9.948   0.203  15.244  0.0478  0.1131  0.4194
 7838W        W23732   9.366   6.222  16.488  0.0688  0.2733  0.2657
 7839W        W23733  14.473  10.545   3.392  0.1742  0.3082 -0.0082
 7840W        W23734  14.562   3.294  15.677  0.0891 -0.1580 -0.2631
 7841W        W23735  14.086  16.126   4.624 -0.1563 -0.1022 -0.2630
 7842W        W23736  11.941   6.972   3.841 -0.0252  0.2259 -0.1343
 7843W        W23737  12.267  11.071   3.801  0.0859  0.1390  0.0732
 7844W        W23738  12.611  10.782   2.556  0.2483 -0.1162  0.1524
 7845W        W23739  14.300  15.411  12.507  0.1247 -0.1550  0.0758
 7846W        W23740  10.064   1.620  16.444  0.1009  0.0003 -0.0269
 7847W        W23741   0.233   9.078   3.232 -0.0001 -0.0418  0.2343
 7848W        W23742   2.635   5.405   0.820 -0.1154 -0.1121 -0.0035
 7849W        W23743   2.945  16.821  12.062  0.0833 -0.5686  0.0555
 7850W        W23744  10.210   2.872   5.459  0.2800 -0.0255 -0.0136
 7851W        W23745  10.588  11.698   3.731  0.0704  0.3216  0.2085
 7852W        W23746  10.076   6.581  12.664 -0.1926 -0.3502 -0.0212
 7853W        W23747   3.375   5.489  17.065 -0.2605 -0.4604 -0.0837
 7854W        W23748  15.607  16.647  15.269  0.0916 -0.1404 -0.1671
 7855W        W23749  10.125  10.417  11.665 -0.1668  0.4437  0.1642
 7856W        W23750  11.688   5.055  15.139  0.2066 -0.0015 -0.2019
 7857W        W23751   9.767  11.187   2.624 -0.0719  0.0489 -0.0603
 7858W        W23752   0.711   6.738   1.342  0.3005 -0.2018  0.5960
 7859W        W23753  14.416   0.699  12.646 -0.1591  0.1172 -0.2882
 7860W        W23754   3.224   8.564   3.337  0.2185 -0.3202 -0.4516
 7861W        W23755   5.087   4.108   3.955  0.2246 -0.0126 -0.0929
 7862W        W23756   0.003   6.445   5.078 -0.1778 -0.0766 -0.0297
 7863W        W23757   2.924   0.767  15.436 -0.1964 -0.1816 -0.1470
 7864W        W23758  12.905   4.995   5.502 -0.1689  0.0743 -0.1834
 7865W        W23759   7.476  14.704   1.732  0.0584  0.0440 -0.0525
 7866W        W23760   7.019   0.469   4.875  0.1590 -0.1831  0.1619
 7867W        W23761   0.718  12.597  14.707 -0.3229  0.2094 -0.0740
 7868W        W23762  13.003   6.722  14.850 -0.1759  0.2985 -0.0044
 7869W        W23763  14.833   1.506  15.880  0.0507  0.2688  0.0785
 7870W        W23764  13.838   3.374  13.140  0.0688  0.2767  0.0642
 7871W        W23765   2.954  12.676   3.595  0.0544 -0.1501  0.1090
 7872W        W23766   7.198   8.455  14.705  0.0266 -0.4173 -0.0018
 7873W        W23767   1.394  12.903  15.156 -0.0794 -0.1622  0.1360
 7874W        W23768   9.175  12.694   0.912  0.4907  0.3191  0.2158
 7875W        W23769   1.489  17.460  12.583 -0.3561 -0.0120 -0.0051
 7876W        W23770   2.593   6.430  13.591  0.0906 -0.0529 -0.1379
 7877W        W23771  11.764   7.538   5.542  0.0067 -0.0831  0.0251
 7878W        W23772   5.462   4.381   0.917 -0.2244 -0.0257  0.3042
 7879W        W23773  14.062   2.891   4.745  0.1325  0.0815 -0.0920
 7880W        W23774  13.526  12.612   4.609 -0.0245  0.1803  0.2028
 7881W        W23775  15.903  13.458  15.483 -0.0148  0.2258 -0.1550
 7882W        W23776   4.804   4.353  15.311  0.3251 -0.1466  0.1762
 7883W        W23777   6.448  15.429  14.580  0.3217 -0.3267  0.1676
 7884W        W23778   0.910   4.571  16.031 -0.3081  0.0302  0.1203
 7885W        W23779  10.147   3.704  13.287  0.2703  0.1720  0.1104
 7886W        W23780   7.689   4.239   1.356  0.0164 -0.3082 -0.0602
 7887W        W23781  14.786   4.322  14.062  0.2586  0.0116  0.2139
 7888W        W23782   0.943  16.761   4.307  0.4839 -0.2084 -0.0553
 7889W        W23783   4.726   9.026   5.784  0.1603 -0.2210  0.0539
 7890W        W23784  16.966   3.061   3.850  0.2935 -0.1965  0.0141
 7891W        W23785  14.210  12.418   5.294  0.0317 -0.0964  0.1225
 7892W        W23786   7.976   0.203   1.268  0.1729 -0.4122  0.1253
 7893W        W23787   2.584  12.840   0.277 -0.2335  0.2869 -0.0801
 7894W        W23788   7.137  17.552  16.881  0.0231  0.1098 -0.0667
 7895W        W23789   8.208   3.554   5.499 -0.0877 -0.1752  0.0564
 7896W        W23790  14.334  17.102  15.481  0.2054 -0.1879 -0.0282
 7897W        W23791   8.647  11.777  16.933  0.1353  0.0749 -0.0520
 7898W        W23792   6.675   9.894  11.916  0.2065 -0.0460  0.1437
 7899W        W23793   5.082   7.407  12.961 -0.0481 -0.0441  0.2202
 7900W        W23794   8.414  13.113   0.300  0.0301  0.0386 -0.0679
 7901W        W23795   9.774   2.866   0.763  0.1953 -0.0077 -0.1851
 7902W        W23796   1.319  15.429   3.555  0.0067  0.1805  0.0275
 7903W        W23797  11.198   3.716   2.469 -0.0373 -0.4259  0.4641
 7904W        W23798  13.225  11.615  14.893 -0.2707 -0.2561 -0.0952
 7905W        W23799  17.379   4.445   3.830  0.1287  0.2821  0.2652
 7906W        W23800   0.415  15.030  12.782 -0.0972  0.0037 -0.1803
 7907W        W23801   8.183   2.790   6.073  0.2376 -0.3050 -0.2700
 7908W        W23802  14.002  12.747   6.245  0.0932 -0.1892 -0.1502
 7909W        W23803   2.729   9.126  14.009  0.0779  0.1083  0.1859
 7910W        W23804   5.978   4.136  12.684 -0.1594  0.1273  0.0266
 7911W        W23805   7.359  14.927   5.691 -0.1197 -0.0757  0.0445
 7912W        W23806  16.589   5.445   0.733  0.1031 -0.1629  0.2756
 7913W        W23807  17.192  10.767   1.863 -0.0278 -0.2150 -0.0091
 7914W        W23808   0.772   5.954   0.659 -0.1475  0.0480  0.1055
 7915W        W23809   7.336  16.003  16.310 -0.2654  0.2957  0.1951
 7916W        W23810   1.449  17.090  14.231  0.1272  0.1470 -0.0632
 7917W        W23811   5.149   7.170   2.418 -0.5227 -0.2670 -0.0762
 7918W        W23812   6.085  17.563   6.542 -0.0821  0.1805 -0.0143
 7919W        W23813  13.598  15.798  13.259  0.1390  0.0668 -0.0751
 7920W        W23814  17.576   4.741   3.450 -0.1039 -0.0204  0.0975
 7921W        W23815  12.781   2.130   0.120  0.1449 -0.2472 -0.0145
 7922W        W23816   8.226  13.456   1.534  0.3137 -0.1981  0.1866
 7923W        W23817  12.711   2.810  11.308  0.3860 -0.0370 -0.1688
 7924W        W23818  13.287  13.511   4.974  0.0649 -0.1990  0.0541
 7925W        W23819   9.856   5.259  16.833 -0.4354  0.0725  0.1171
 7926W        W23820   3.223   3.396  12.387  0.4096  0.3607 -0.0227
 7927W        W23821  12.494  12.784   3.930 -0.0877  0.0675 -0.1915
 7928W        W23822   0.619   8.061   1.890  0.2852  0.0841  0.0625
 7929W        W23823   0.340  16.848  11.940 -0.0227  0.1812  0.0213
 7930W        W23824  10.991  11.387   3.536 -0.1849  0.0622  0.2497
 7931W        W23825  11.155   9.655  14.853  0.0728 -0.1534 -0.3152
 7932W        W23826  10.996   3.558  13.738  0.1951 -0.0262  0.0720
 7933W        W23827   0.115  14.844  13.977 -0.1684 -0.0237  0.2362
 7934W        W23828   4.399   6.525  16.801  0.0260 -0.0468  0.1483
 7935W        W23829   5.353  13.933   1.392 -0.3068  0.1735 -0.0979
 7936W        W23830   9.668   9.298  14.029 -0.2716  0.1557  0.4318
 7937W        W23831   8.525   2.621  15.734 -0.0217  0.2285 -0.1018
 7938W        W23832   1.823   1.299  16.713  0.2054  0.0462 -0.2817
 7939W        W23833   3.297   5.341   2.383  0.0394 -0.0644  0.1761
 7940W        W23834  13.141   8.414   2.456 -0.0140  0.2586 -0.0787
 7941W        W23835   7.309   0.525   2.289  0.0937  0.0303  0.2628
 7942W        W23836   0.310  11.300   0.283 -0.2317  0.2768 -0.0938
 7943W        W23837   5.960  14.853   1.825 -0.1270 -0.0026  0.1718
 7944W        W23838   9.851  10.195   1.610 -0.0425 -0.0648  0.1882
 7945W        W23839  14.102  10.757   3.698 -0.0151 -0.2564  0.0509
 7946W        W23840  12.886  14.274  15.721 -0.0125  0.3707 -0.1350
 7947W        W23841   9.050  17.139   2.098 -0.2062  0.2986  0.1019
 7948W        W23842  16.292   7.864   4.591  0.3525 -0.1568  0.3100
 7949W        W23843  10.431  11.683   2.845 -0.0887  0.2963  0.0750
 7950W        W23844   4.777  10.953  11.651  0.2109 -0.0426  0.2006
 7951W        W23845  11.182  11.834  15.207 -0.1695  0.0866 -0.2569
 7952W        W23846   8.350   4.536   2.679 -0.0834 -0.2359 -0.1095
 7953W        W23847   0.608   4.713   4.965 -0.0241  0.3060  0.1996
 7954W        W23848  13.616  12.899  13.131  0.0900 -0.2110  0.2431
 7955W        W23849  13.617  13.677  16.735  0.1271  0.0711 -0.3773
 7956W        W23850   3.472   9.561  14.556 -0.0264 -0.3111 -0.0611
 7957W        W23851  10.202   0.648  14.221  0.1772 -0.0785 -0.0864
 7958W        W23852   7.773  17.526   3.215  0.0834 -0.1008  0.1608
 7959W        W23853   0.199   2.006   2.932 -0.2215 -0.0341  0.0777
 7960W        W23854  13.906  10.473   1.975 -0.0243 -0.0168 -0.1923
 7961W        W23855   5.037   4.450  16.344  0.2915 -0.3161  0.1585
 7962W        W23856  16.674  14.301  13.107 -0.0124  0.0804 -0.1145
 7963W        W23857  12.996  12.806  14.188 -0.1208 -0.1457 -0.1125
 7964W        W23858   4.921   3.430   1.236  0.2580  0.1400  0.3998
 7965W        W23859  10.171  10.855   0.177 -0.1422  0.2633 -0.1012
 7966W        W23860   3.649   4.332  12.872  0.0335  0.0479 -0.2428
 7967W        W23861  13.161   3.521  12.594  0.0948 -0.2160 -0.1531
 7968W        W23862  12.565  14.536  16.090 -0.0850 -0.2324 -0.2011
 7969W        W23863  11.208  16.830   6.256  0.0310  0.2315  0.0435
 7970W        W23864   7.900   0.178  13.692 -0.0048  0.3644 -0.1840
 7971W        W23865   2.894  16.107   3.496  0.0034 -0.0432  0.3669
 7972W        W23866  16.685   0.918  15.310  0.4273 -0.1042 -0.0472
 7973W        W23867   8.937  16.160   5.535 -0.1209  0.0641 -0.2332
 7974W        W23868   7.973  13.173  11.820  0.1610 -0.2917  0.1384
 7975W        W23869  15.844  11.433  13.008  0.2784 -0.1939 -0.1464
 7976W        W23870  11.150  13.255  15.834 -0.0778 -0.0384 -0.0691
 7977W        W23871   4.619  11.470   1.705  0.2786 -0.2382 -0.0831
 7978W        W23872  17.121  12.387   1.611 -0.1909  0.0209  0.0045
 7979W        W23873  13.759   7.591  11.261 -0.1233  0.0256  0.0010
 7980W        W23874  12.238   9.234   0.882  0.4673 -0.2465  0.1327
 7981W        W23875  12.020  11.879  11.555 -0.1863  0.0385 -0.4361
 7982W        W23876   0.006   8.003  16.170  0.1195  0.0867  0.3561
 7983W        W23877   6.607   7.004   2.183  0.1331 -0.0931 -0.1654
 7984W        W23878   9.198   0.284  12.663  0.0565 -0.0045  0.2119
 7985W        W23879   1.158  10.042   3.735 -0.0859  0.0112  0.0197
 7986W        W23880   2.822  10.482  15.955  0.3916  0.0372  0.1445
 7987W        W23881   3.243   3.319   4.928 -0.1766  0.2238 -0.0311
 7988W        W23882  17.557  10.858  13.085 -0.1769 -0.0222 -0.1393
 7989W        W23883   4.747  10.586  15.978  0.2115 -0.0861  0.2654
 7990W        W23884   4.393  11.422  16.176  0.0607 -0.1019  0.0929
 7991W        W23885  11.807  13.830  16.149  0.0017  0.0756  0.0417
 7992W        W23886   7.692   8.709  16.943  0.2179 -0.1208  0.0442
 7993W        W23887  17.423   1.827   2.150 -0.2063 -0.0707 -0.0444
 7994W        W23888  12.342   1.130  15.744  0.1502  0.1270 -0.1439
 7995W        W23889   3.054   3.971   3.058 -0.0012  0.2160  0.0149
 7996W        W23890  12.520  14.501  17.123 -0.1285  0.1104  0.0101
 7997W        W23891  16.656  13.868   2.046 -0.1072 -0.2220 -0.3063
 7998W        W23892   5.333   6.913   1.966  0.0864  0.0754 -0.0239
 7999W        W23893   8.847   4.835   4.045  0.1242 -0.0814 -0.2373
 8000W        W23894  15.128  12.493   0.972 -0.2510 -0.0453  0.3241
 8001W        W23895  16.093   2.889   1.953 -0.0834 -0.0868 -0.2324
 8002W        W23896  14.676   3.459   0.427  0.1320  0.2520  0.0174
 8003W        W23897   7.287   7.280  15.959 -0.2854 -0.0879 -0.1064
 8004W        W23898  13.014  15.822  14.083 -0.0203 -0.2367  0.1348
 8005W        W23899   5.253   9.357  13.904 -0.2655  0.1611 -0.1343
 8006W        W23900  13.315  14.611  16.658  0.1371  0.4802  0.2777
 8007W        W23901  16.335   3.602  12.963 -0.1929  0.0265  0.0251
 8008W        W23902   4.347   5.432   4.501  0.0366 -0.0327 -0.0196
 8009W        W23903   6.662  17.546  15.526  0.0958 -0.1056  0.0176
 8010W        W23904   4.192   6.646  16.061  0.1142  0.1601  0.0417
 8011W        W23905  13.675  16.065   1.087  0.0243  0.0200 -0.2689
 8012W        W23906   7.062   8.438  12.191  0.1250 -0.3309  0.3893
 8013W        W23907  14.120   1.453  15.332  0.0734 -0.1849  0.1887
 8014W        W23908  11.350   7.985  11.275 -0.1044 -0.0275 -0.1947
 8015W        W23909   1.406   6.541  12.737 -0.0421 -0.0334 -0.2856
 8016W        W23910  13.667   9.018   1.636 -0.0273 -0.1834 -0.1252
 8017W        W23911   4.502  15.482   2.625  0.1470 -0.1595 -0.0410
 8018W        W23912   1.223   7.191   4.567  0.1775 -0.1477 -0.1640
 8019W        W23913   3.532   4.399  14.826 -0.0154  0.4203 -0.0822
 8020W        W23914   9.312  12.253  15.085  0.2233  0.2296  0.1010
 8021W        W23915   4.207  14.538  15.263 -0.0728  0.0196  0.4572
 8022W        W23916  14.154  13.093   3.300 -0.1024 -0.0544 -0.0209
 8023W        W23917   9.248  17.303   5.007 -0.2362 -0.0593  0.1279
 8024W        W23918   4.874   9.502  12.262 -0.0261  0.0089 -0.1960
 8025W        W23919   0.675   4.661   1.796 -0.2343 -0.0127  0.0251
 8026W        W23920   3.009  12.632   4.139  0.0972  0.3715 -0.0018
 8027W        W23921   2.540   4.125  14.487 -0.3449  0.1567 -0.2836
 8028W        W23922   8.143   9.782  16.253 -0.0735 -0.3581 -0.1835
 8029W        W23923  12.335  17.076   5.044 -0.2263  0.1010 -0.1610
 8030W        W23924  16.302   5.182   3.823  0.3319  0.2307  0.0800
 8031W        W23925  17.042   8.908   1.346 -0.2401  0.0590 -0.0680
 8032W        W23926   6.984   6.292   0.144 -0.0854 -0.1073  0.2039
 8033W        W23927   0.967   2.852   1.179  0.0717  0.0971  0.1124
 8034W        W23928  13.761   7.538  15.397  0.1103  0.1325  0.0737
 8035W        W23929  16.606  17.099   4.474 -0.3451 -0.0827 -0.0426
 8036W        W23930  17.455   1.344   2.928 -0.0013 -0.0657  0.0060
 8037W        W23931   6.698   5.701   2.134  0.3509  0.0428  0.0560
 8038W        W23932   0.432   0.045  13.493  0.1402 -0.0232 -0.1001
 8039W        W23933  15.535  15.892   3.103  0.0833  0.0639  0.0649
 8040W        W23934   2.623  14.651   2.669 -0.0089  0.0976 -0.0856
 8041W        W23935   5.088   7.033  16.351 -0.2906 -0.0220  0.1040
 8042W        W23936   3.031  15.184   6.398 -0.2827 -0.1616  0.1456
 8043W        W23937   3.475  10.100   4.546 -0.0100  0.1184  0.1459
 8044W        W23938   8.387   9.180   5.068 -0.1606  0.1532  0.1899
 8045W        W23939   3.868   4.845   1.131  0.1102 -0.2171 -0.4458
 8046W        W23940  10.121   9.516   2.647  0.1574  0.1582  0.0075
 8047W        W23941  14.625   9.935  15.634 -0.1044 -0.0891  0.1665
 8048W        W23942   2.948  15.155   0.282 -0.2336 -0.0467 -0.0613
 8049W        W23943   0.973   6.054  16.204  0.2112 -0.2284 -0.1344
 8050W        W23944   1.410   8.160  12.630  0.0695 -0.1117 -0.0086
 8051W        W23945  10.511  13.239   5.227  0.3213  0.0498  0.2453
 8052W        W23946   0.376   9.539   3.418  0.0095 -0.0704  0.0702
 8053W        W23947   4.486  10.914  12.262 -0.1032  0.1209 -0.0568
 8054W        W23948   3.253  15.735  14.442 -0.1312 -0.0613  0.0184
 8055W        W23949  11.624   3.027   1.363 -0.0711  0.1015  0.1612
 8056W        W23950  13.997   2.061  12.141  0.0647  0.0441 -0.4042
 8057W        W23951  13.030  11.913  14.186  0.2168 -0.1938  0.0164
 8058W        W23952   7.695   6.634   2.469 -0.0846 -0.2802  0.1061
 8059W        W23953   0.921   3.551   3.707  0.5680  0.0957  0.4652
 8060W        W23954  17.206  17.475   1.815 -0.0966  0.3519 -0.0362
 8061W        W23955   3.257   3.912   2.048  0.0132  0.1331  0.0393
 8062W        W23956   5.976   5.543  13.226 -0.1010 -0.4078  0.0966
 8063W        W23957  14.300   0.877   1.575  0.0613  0.1849 -0.1005
 8064W        W23958   4.355   3.649  15.908  0.1867 -0.1227  0.0921
 8065W        W23959   9.670   5.397  12.826  0.0028  0.3112 -0.1236
 8066W        W23960   4.568   1.551  16.956  0.1197 -0.1227 -0.0573
 8067W        W23961  13.272   5.960   5.560  0.0045  0.2636 -0.1598
 8068W        W23962  16.427  14.922  16.361  0.0144  0.0617  0.0492
 8069W        W23963  15.233   7.746  16.562  0.4457 -0.0211 -0.0532
 8070W        W23964  15.146   9.549  15.217  0.0601 -0.2192  0.1202
 8071W        W23965  10.225   9.596  12.454  0.0192 -0.0947 -0.1718
 8072W        W23966   8.140   4.111   2.589  0.2581  0.1834 -0.0796
 8073W        W23967  12.741   9.173  14.608 -0.2320 -0.2465 -0.3589
 8074W        W23968   0.282  11.977  15.117  0.0394 -0.0951 -0.3177
 8075W        W23969   5.558   8.525  13.591  0.0359  0.0062 -0.0554
 8076W        W23970  12.190  13.807  15.706  0.0358  0.0677 -0.1426
 8077W        W23971   5.816   6.915   1.187  0.1427  0.0883 -0.1529
 8078W        W23972  17.005  13.873  15.486  0.0125  0.1504 -0.3120
 8079W        W23973   8.689  11.637   2.418  0.0418  0.0189  0.0177
 8080W        W23974   9.594   9.530   2.440 -0.0355  0.0635 -0.1533
 8081W        W23975  10.925   3.724   0.688 -0.0010 -0.0693 -0.0089
 8082W        W23976   7.569   6.847  11.855 -0.0877 -0.3267  0.1036
 8083W        W23977  12.791   0.111  11.845 -0.0558  0.3829 -0.3610
 8084W        W23978   3.103   1.095  13.310 -0.1310 -0.3286 -0.4144
 8085W        W23979   2.147   8.672   2.837  0.2728 -0.0790 -0.1275
 8086W        W23980  10.768  12.838  14.092  0.4142  0.2236  0.2620
 8087W        W23981   2.728   0.126   4.351 -0.1459 -0.3318 -0.1970
 8088W        W23982  13.828   1.486  15.793 -0.1615 -0.2478  0.0465
 8089W        W23983  12.235  11.282  12.940  0.0662  0.1209  0.3485
 8090W        W23984  11.607  12.896  16.431 -0.0977 -0.0309 -0.2936
 8091W        W23985   8.432   9.557   2.683  0.0855 -0.0213 -0.0710
 8092W        W23986  14.338   1.069   4.555 -0.0189  0.3447 -0.2048
 8093W        W23987   5.667   1.370   4.076  0.1714  0.0429  0.2413
 8094W        W23988  17.238   7.992   0.386  0.0357 -0.0176  0.1195
 8095W        W23989   9.772  15.172  14.467  0.0248 -0.2590 -0.0392
 8096W        W23990   1.683  12.771  12.498  0.0756 -0.1436 -0.0965
 8097W        W23991   2.134   7.311  15.974 -0.0332 -0.2957  0.1473
 8098W        W23992   0.889   6.949   4.917 -0.0395 -0.2043  0.1176
 8099W        W23993  15.203   3.745  12.621 -0.2107  0.0350  0.0996
 8100W        W23994   6.529  11.961   4.612  0.1349 -0.0704  0.0398
 8101W        W23995  17.272  13.841   4.843  0.1169  0.0418  0.1330
 8102W        W23996  16.195  11.935   3.943  0.1202  0.0636 -0.1173
 8103W        W23997  16.527  16.524   5.723 -0.2420 -0.0658 -0.0295
 8104W        W23998  12.622   1.678  15.191  0.1723  0.1021 -0.1827
 8105W        W23999   2.080  14.979   1.541  0.0096  0.0682 -0.0642
 8106W        W24000   7.220  16.292   2.849 -0.4609  0.0100  0.1406
 8107W        W24001  14.110   6.892   3.938 -0.1540 -0.3634  0.0210
 8108W        W24002   8.994   2.347  16.082 -0.2018  0.4645 -0.0484
 8109W        W24003  16.261   3.340   3.123  0.2300 -0.2280 -0.1023
 8110W        W24004  14.190  11.332  14.399  0.2192 -0.1191  0.1628
 8111W        W24005  11.881   8.854   3.662 -0.0457  0.0773  0.2083
 8112W        W24006  13.086   2.487   5.016  0.1776  0.0827 -0.1762
 8113W        W24007  11.748  16.492   4.210  0.0339  0.0605  0.0999
 8114W        W24008   5.110  13.328   0.225  0.0152  0.4044  0.2424
 8115W        W24009  12.697   8.649   5.639  0.0909  0.0618 -0.0594
 8116W        W24010   1.962   4.018  15.504 -0.1176 -0.0686 -0.2131
 8117W        W24011  15.580   9.142  12.087 -0.1383 -0.0437 -0.2264
 8118W        W24012   8.946   8.537  17.266 -0.1319 -0.3627  0.1705
 8119W        W24013  16.174   5.009  16.892 -0.1306  0.1982  0.0259
 8120W        W24014   1.915  14.863  16.265 -0.1605  0.2008 -0.1752
 8121W        W24015  11.142  10.898  16.711  0.0719 -0.0272  0.2855
 8122W        W24016   8.037   9.482  13.492  0.2365  0.0493 -0.2091
 8123W        W24017  14.294   9.290   0.605  0.1223  0.1192  0.0148
 8124W        W24018   4.769  16.379   1.281  0.1143 -0.1655 -0.0443
 8125W        W24019  12.420  10.936  17.247 -0.0183  0.2355 -0.0249
 8126W        W24020   6.453   2.388   5.175  0.0912  0.0298 -0.1312
 8127W        W24021  11.818   7.570  12.012 -0.0877 -0.0501 -0.2399
 8128W        W24022   2.388   5.979   0.097  0.1031  0.0466 -0.1898
 8129W        W24023  13.572  15.541   2.389 -0.0041 -0.1633 -0.1660
 8130W        W24024   1.070   2.369   1.310  0.1677 -0.3124  0.0467
 8131W        W24025   6.447   9.041   4.199  0.1688  0.1264  0.0749
 8132W        W24026  12.168   8.457   1.549  0.0964 -0.1271 -0.1243
 8133W        W24027   7.107   7.915  13.980  0.0186  0.0019 -0.1186
 8134W        W24028  10.393   4.832  16.006  0.0287 -0.3282  0.1512
 8135W        W24029   0.687  13.724  14.349 -0.0064  0.2178  0.2589
 8136W        W24030   7.953  11.110  16.621  0.3435  0.0238  0.1187
 8137W        W24031   1.423   0.122   0.812  0.1586 -0.0745  0.2144
 8138W        W24032   8.414   2.182   1.436 -0.0254  0.1619 -0.2997
 8139W        W24033  12.160   4.025   0.617  0.2137 -0.2088 -0.3583
 8140W        W24034  14.409  10.628  16.369  0.1144  0.4524 -0.0322
 8141W        W24035  16.128  10.720  14.069 -0.0477 -0.1042 -0.3749
 8142W        W24036   8.986  14.130  14.044 -0.3660 -0.0757  0.1624
 8143W        W24037  10.212  10.330   0.374  0.0712  0.1251 -0.1941
 8144W        W24038   1.666  10.803  14.976 -0.0476  0.3598  0.0551
 8145W        W24039   2.303   5.779   0.827 -0.0577 -0.2650  0.2792
 8146W        W24040  12.205   5.028  13.163  0.2060  0.0490  0.0047
 8147W        W24041  13.482   4.829   1.601 -0.1040  0.0202  0.0361
 8148W        W24042   8.816   2.580  13.254 -0.1010 -0.4256  0.0124
 8149W        W24043   7.074  16.522  14.351  0.0037  0.0319  0.2259
 8150W        W24044   6.676  15.247  13.547 -0.0467  0.0197  0.0645
 8151W        W24045   0.677   1.243   2.084 -0.2215 -0.0053 -0.2868
 8152W        W24046   7.458   2.365   2.895  0.4728  0.0241  0.1038
 8153W        W24047  10.869  15.582   2.942  0.1478  0.0973  0.2709
 8154W        W24048  15.893   9.361  13.970 -0.0639  0.2560 -0.1533
 8155W        W24049  14.691   8.282   1.458  0.2728  0.2433  0.5398
 8156W        W24050  13.274   8.558  15.669  0.3047  0.2092  0.1399
 8157W        W24051   0.320  13.662  12.927  0.1880 -0.1436 -0.1107
 8158W        W24052  13.336  17.290   6.019  0.2502 -0.2979  0.2042
 8159W        W24053   1.440   5.514   1.068  0.1220  0.2018  0.0263
 8160W        W24054  15.962   4.794  13.444  0.0494 -0.6098 -0.2129
 8161W        W24055  13.081   4.757   3.983 -0.1856  0.2802 -0.0626
 8162W        W24056   3.488   8.370   5.209 -0.2473  0.1592  0.1192
 8163W        W24057   7.632  17.318  14.577 -0.1314 -0.1404 -0.1847
 8164W        W24058   5.346  16.041  14.972 -0.0254  0.1294  0.2020
 8165W        W24059   2.933   3.806  14.397  0.0733  0.1391  0.0120
 8166W        W24060   9.721   9.599   0.868  0.0856  0.3313  0.0388
 8167W        W24061   6.466  13.101  15.139  0.0087 -0.0968 -0.0306
 8168W        W24062   8.681   6.591  15.057 -0.0212  0.1764  0.2358
 8169W        W24063   1.433  13.915   6.078 -0.1074 -0.0672 -0.3431
 8170W        W24064   7.729  14.287  12.504  0.2323 -0.3576  0.0270
 8171W        W24065  16.932   4.762   2.375 -0.1678 -0.1707  0.1218
 8172W        W24066  13.275   3.973  15.084 -0.0247 -0.0735  0.0534
 8173W        W24067  17.074   2.844  12.427 -0.4719  0.0888 -0.1513
 8174W        W24068   3.738   4.052   3.426 -0.1915  0.0375  0.0557
 8175W        W24069  12.222   8.048  16.381  0.0367 -0.4272  0.0926
 8176W        W24070  13.241   6.389  15.707 -0.0568  0.2166  0.1725
 8177W        W24071   2.696  13.154   1.838 -0.0688 -0.0567  0.3460
 8178W        W24072   4.257  11.244  12.711  0.0392  0.1355 -0.0454
 8179W        W24073  10.446   3.948   3.004 -0.2035 -0.3706 -0.1837
 8180W        W24074   9.138  15.031  15.058  0.4020  0.2243 -0.0657
 8181W        W24075  11.336  13.266  15.336  0.1191  0.0636 -0.0273
 8182W        W24076   6.720  11.474   1.305  0.3240  0.0772  0.0068
 8183W        W24077   9.209   8.826  13.931  0.1642  0.2047  0.0255
 8184W        W24078   4.182   8.784   3.430 -0.2080 -0.2032  0.1505
 8185W        W24079   8.848   7.725  11.299 -0.0631 -0.0107 -0.0097
 8186W        W24080  12.443   9.293  11.425  0.1428 -0.0397  0.0523
 8187W        W24081   4.440   4.303   1.328  0.0543 -0.1587  0.1189
 8188W        W24082   3.396   0.513  15.633 -0.0384  0.0990  0.1539
 8189W        W24083   5.404   2.717  13.339 -0.0516 -0.0796 -0.5516
 8190W        W24084  16.425   6.192  15.453 -0.0470  0.2650  0.0897
 8191W        W24085   9.849  11.721  14.014 -0.0535 -0.0277 -0.1273
 8192W        W24086   2.865  11.223  12.864  0.0263 -0.4339  0.0027
 8193W        W24087  13.265   0.331  16.379 -0.1458  0.0594 -0.2435
 8194W        W24088  15.042  15.329   3.397 -0.0002 -0.3158 -0.1930
 8195W        W24089  12.184   9.813  13.459 -0.1993 -0.1034  0.0424
 8196W        W24090  16.302   4.579  13.153 -0.0634  0.1182  0.3305
 8197W        W24091   9.003  13.641  11.937 -0.3986  0.0848 -0.0838
 8198W        W24092   0.383   3.214  12.192 -0.0078 -0.0058  0.0832
 8199W        W24093   3.499   9.361  13.027 -0.2276  0.0657  0.0917
 8200W        W24094  14.319   4.064   6.083 -0.1566  0.0780 -0.1245
 8201W        W24095  16.028   3.151  16.654  0.1860 -0.0875  0.3848
 8202W        W24096   9.267  17.264  15.968  0.4363  0.2291 -0.1157
 8203W        W24097  13.452  17.456   0.276 -0.2996  0.1026 -0.2255
 8204W        W24098   4.908   4.483   2.602  0.2399 -0.1292 -0.1773
 8205W        W24099   4.272   6.335   4.023 -0.0082 -0.1312 -0.1473
 8206W        W24100   0.356  10.306   6.824  0.0390 -0.3813  0.0101
 8207W        W24101   4.305   7.446  13.875 -0.1996 -0.0989  0.2341
 8208W        W24102   1.366   0.843   5.017 -0.4123  0.0808 -0.2771
 8209W        W24103  17.434   1.963  14.936 -0.3479  0.1859 -0.0963
 8210W        W24104  13.959   0.540  17.082  0.4116 -0.1733 -0.3849
 8211W        W24105   9.948  12.452   1.252  0.1336  0.3500 -0.3168
 8212W        W24106   9.385  15.490  16.318 -0.0546 -0.0928 -0.2728
 8213W        W24107   1.465  11.371  14.331  0.1478 -0.3162 -0.1088
 8214W        W24108  13.109   6.991   4.160 -0.1135  0.0059  0.1024
 8215W        W24109   3.517   4.047  15.698 -0.0473 -0.3415 -0.0060
 8216W        W24110   0.611  17.247  12.134  0.1036  0.0548 -0.2206
 8217W        W24111   7.826   0.802  12.153 -0.0306  0.0185 -0.1667
 8218W        W24112   1.145  10.044   2.185 -0.0395  0.0342 -0.1806
 8219W        W24113  16.432   2.035   2.148  0.0554 -0.0382  0.2286
 8220W        W24114   7.162  15.376  13.611 -0.1854  0.2096 -0.0658
 8221W        W24115   3.330   3.746  13.686 -0.0788 -0.2009 -0.1777
 8222W        W24116   2.554   0.946  14.637 -0.1919 -0.2897  0.0809
 8223W        W24117   6.277  10.352  14.419 -0.0061  0.0797 -0.1658
 8224W        W24118   3.550   2.358   2.929 -0.2263 -0.3986  0.1090
 8225W        W24119  13.561  17.280   2.633 -0.0616 -0.1317  0.1002
 8226W        W24120  12.098   9.695  12.808 -0.1338  0.0932  0.0477
 8227W        W24121   6.890   2.584   5.452 -0.0319 -0.4927  0.0265
 8228W        W24122   8.178  11.993  12.724 -0.3232  0.0126 -0.0906
 8229W        W24123   0.883   8.730   0.631  0.3032 -0.2278 -0.2623
 8230W        W24124   3.670  12.410  15.368 -0.3037  0.3793  0.1810
 8231W        W24125  15.200   2.443  14.256  0.2163  0.0965  0.1558
 8232W        W24126   8.538   4.312   1.415  0.3517 -0.0111 -0.0566
 8233W        W24127   4.448   8.371   2.105  0.1722 -0.0393 -0.1308
 8234W        W24128  12.486  17.332  15.646  0.1065 -0.5054  0.2559
 8235W        W24129   7.184  16.464   5.279 -0.2539  0.2638  0.1012
 8236W        W24130  13.614  15.507   1.883 -0.3419 -0.2702  0.4011
 8237W        W24131  14.818   8.258  17.050 -0.1667 -0.0568 -0.2235
 8238W        W24132  12.846   9.239  12.382 -0.4214  0.2484  0.3518
 8239W        W24133  12.830   3.643  16.437  0.2677  0.1351  0.0349
 8240W        W24134  14.073   0.316  15.553 -0.0772 -0.1534  0.3082
 8241W        W24135  16.668   1.099  13.055 -0.1159  0.1814  0.1265
 8242W        W24136   4.403  10.312   4.115  0.2061  0.0513 -0.0720
 8243W        W24137  11.370   5.879  16.354  0.0935  0.1618  0.1002
 8244W        W24138   0.234  10.565   5.754 -0.0174 -0.1074  0.1043
 8245W        W24139   1.120  16.479  16.982 -0.0948 -0.1100  0.0275
 8246W        W24140   3.287  16.448   6.294 -0.1249 -0.0282  0.0348
 8247W        W24141  17.071   4.215   1.152  0.0661 -0.2665 -0.1182
 8248W        W24142   2.473  10.831  14.269  0.0828  0.1561 -0.4626
 8249W        W24143   3.249  16.589  15.910  0.1320  0.3416  0.0702
 8250W        W24144   0.294  16.174  17.299  0.0475 -0.1809 -0.0674
 8251W        W24145  13.824   5.286  14.343 -0.1820 -0.0309 -0.0679
 8252W        W24146   9.917   8.868  15.743 -0.0203 -0.0044  0.2370
 8253W        W24147  10.110  11.239   0.554 -0.0221  0.1774 -0.4067
 8254W        W24148  14.549   5.993  12.678  0.1471 -0.2166 -0.0490
 8255W        W24149  13.469  12.234  11.931  0.0821 -0.3629 -0.0537
 8256W        W24150   8.603  11.277   6.267  0.0936  0.0518  0.2356
 8257W        W24151   5.093  13.708  13.347 -0.0656 -0.1249 -0.1001
 8258W        W24152  11.329  13.507   1.434  0.2774  0.0773  0.0261
 8259W        W24153   5.416  14.318  16.429 -0.1022  0.1265  0.0398
 8260W        W24154  11.361   9.027   5.644 -0.1386 -0.0037  0.3512
 8261W        W24155   0.000  13.865   5.759  0.0139  0.1199  0.0606
 8262W        W24156   6.778  16.699   4.214 -0.0482  0.0058  0.2636
 8263W        W24157   8.385  13.764  13.143 -0.3910 -0.3150  0.0866
 8264W        W24158   3.681   2.052  14.679  0.0911  0.1102 -0.0537
 8265W        W24159   8.019  15.912   2.325 -0.2799 -0.0111 -0.1685
 8266W        W24160   8.370   0.694  17.159 -0.1452  0.1265 -0.0429
 8267W        W24161   7.343   2.705   0.684  0.3092 -0.1089  0.1709
 8268W        W24162   6.608   1.834   1.284 -0.2270  0.1420 -0.0619
 8269W        W24163   8.270  11.238  12.462 -0.0893  0.0265  0.2722
 8270W        W24164  10.266   1.249   2.085  0.0538  0.1236  0.1570
 8271W        W24165  10.634   4.423   3.149 -0.0628  0.0908  0.0100
 8272W        W24166   2.393  15.285  15.690 -0.3406  0.2471 -0.0404
 8273W        W24167   2.299  16.806  15.810 -0.4651  0.1818  0.3193
 8274W        W24168   4.930   3.661   2.881 -0.0229 -0.2564 -0.2279
 8275W        W24169   2.122   1.644  16.322  0.0665 -0.0254 -0.1168
 8276W        W24170   2.404  14.461   5.279 -0.0112 -0.1685 -0.2925
 8277W        W24171   6.797   3.410   1.053 -0.0939  0.1847  0.3226
 8278W        W24172   0.460  16.082  16.743  0.2723  0.0578  0.0133
 8279W        W24173  10.046   5.883   3.716 -0.0984 -0.1438  0.1632
 8280W        W24174  16.271   4.251  13.604 -0.1543  0.0181  0.0093
 8281W        W24175  13.984  12.687   3.024  0.1020  0.0400  0.0999
 8282W        W24176   1.737  17.178   6.150  0.0862  0.1860 -0.0787
 8283W        W24177  13.129  11.095   2.443  0.2402 -0.2379  0.0268
 8284W        W24178   4.865   1.955  13.010 -0.0238  0.2110 -0.5031
 8285W        W24179  15.951   9.468   2.521 -0.0326  0.2439  0.1330
 8286W        W24180  11.073  15.272  12.355 -0.0745  0.2155 -0.2517
 8287W        W24181   0.762   5.536   1.990 -0.3009  0.0353  0.1889
 8288W        W24182   7.398  13.564   2.380 -0.0928 -0.2253 -0.0467
 8289W        W24183   8.608   9.164  14.214  0.0239 -0.1175 -0.0356
 8290W        W24184   8.674   6.072  15.078  0.1021 -0.1301  0.2181
 8291W        W24185   3.798   6.894   3.495  0.1688  0.1892  0.0268
 8292W        W24186   2.112  17.178   5.490 -0.1626  0.2250 -0.2847
 8293W        W24187   0.580   9.316  13.735 -0.0514  0.1258  0.0946
 8294W        W24188   4.458   0.138   1.909  0.0985 -0.1884 -0.0343
 8295W        W24189   3.294  12.187  14.316 -0.0532  0.0815  0.1904
 8296W        W24190   1.374  10.656   3.063  0.1389 -0.1073  0.1717
 8297W        W24191  13.482  17.072  12.136  0.0629 -0.0147  0.0962
 8298W        W24192  14.199  14.474   1.210 -0.1256  0.0330  0.0889
 8299W        W24193  11.045   9.984   1.879  0.0362 -0.4012  0.0275
 8300W        W24194  15.598   1.751  16.710  0.1037 -0.0389  0.2154
 8301W        W24195  16.392  15.756   3.285 -0.1204  0.2108 -0.1794
 8302W        W24196  11.997  10.126  14.739  0.0699 -0.0437  0.0891
 8303W        W24197  14.145  15.897  12.519 -0.0516 -0.0729 -0.0814
 8304W        W24198   6.236   2.713   5.492  0.0910  0.0678 -0.0404
 8305W        W24199   0.131   4.512   5.796  0.1072 -0.0235 -0.1607
 8306W        W24200   0.297   9.274   6.116  0.0511 -0.3700 -0.3014
 8307W        W24201   7.296  10.550   5.119 -0.0597 -0.0781 -0.2466
 8308W        W24202   8.726  15.872  11.975 -0.1071  0.0897  0.2316
 8309W        W24203   5.669  13.956  12.493  0.1685 -0.1293  0.5029
 8310W        W24204  15.204   4.068   6.397 -0.1536  0.1419  0.1181
 8311W        W24205  13.562   9.284  14.575 -0.1227 -0.0680  0.1396
 8312W        W24206   3.425   6.069  13.834 -0.1256  0.0317  0.1858
 8313W        W24207  17.042  10.458  14.927 -0.0070 -0.2975 -0.2012
 8314W        W24208  16.869   2.150   0.286  0.0303 -0.0493 -0.0866
 8315W        W24209   0.837   5.273  14.297  0.0155  0.0855  0.1467
 8316W        W24210  11.268   5.658  14.195 -0.0514  0.3186  0.1831
 8317W        W24211  10.398  13.913   3.915  0.0853  0.1261 -0.0181
 8318W        W24212  15.790   5.908  15.699  0.2891  0.1705  0.3836
 8319W        W24213   7.065  16.693   6.259 -0.1754  0.0832  0.0962
 8320W        W24214  10.863  15.147   1.996 -0.1899 -0.1305 -0.0973
 8321W        W24215  10.859   2.039  12.560  0.2222  0.1304  0.1042
 8322W        W24216   2.319   6.007   5.979 -0.3077 -0.2384 -0.0121
 8323W        W24217   3.310   3.877  14.725 -0.3220 -0.2608 -0.3493
 8324W        W24218  10.793   6.078  13.004 -0.0812 -0.1010  0.1071
 8325W        W24219   3.139   6.820   1.027  0.1939 -0.0837 -0.3113
 8326W        W24220   1.266  17.316  14.741  0.0439  0.1323  0.1297
 8327W        W24221  15.864  15.774   0.036 -0.1985  0.3500 -0.1011
 8328W        W24222   2.304  17.077   2.321 -0.1232 -0.3379 -0.1632
 8329W        W24223  16.218   3.129   2.453  0.0207  0.2389 -0.0035
 8330W        W24224   5.905  13.545   2.684 -0.0507  0.0367  0.0424
 8331W        W24225  13.994  12.763   1.546 -0.2968  0.3830  0.2583
 8332W        W24226   0.778   5.987  14.987 -0.0293 -0.0805 -0.1583
 8333W        W24227   1.120   4.645  13.655 -0.0928  0.1347 -0.0094
 8334W        W24228  14.725   1.013   4.858 -0.3181  0.0373  0.1229
 8335W        W24229   7.064  13.127  16.491  0.0932  0.0433 -0.1761
 8336W        W24230   1.195  13.587   0.421 -0.0184  0.1204 -0.1444
 8337W        W24231   0.618   6.583  13.196 -0.0255 -0.2086  0.5270
 8338W        W24232  12.739   6.202  12.197 -0.0676  0.0657 -0.2050
 8339W        W24233  12.878  10.305   3.673  0.0532 -0.0555 -0.1028
 8340W        W24234   0.396  15.312   6.468 -0.2827 -0.0482 -0.0964
 8341W        W24235  11.618  12.714  13.155 -0.0597 -0.0451  0.0496
 8342W        W24236  17.016   3.444  15.414 -0.3490 -0.1529  0.0479
 8343W        W24237  15.497   1.454   4.558 -0.0340 -0.0332 -0.0151
 8344W        W24238   7.256   9.977   3.314 -0.1475 -0.0647 -0.2057
 8345W        W24239   1.158   9.031   0.924  0.0744  0.1574  0.0841
 8346W        W24240   3.618   0.426  16.507 -0.0525  0.2700  0.2471
 8347W        W24241   5.816  15.703   5.465 -0.0639 -0.0605 -0.0307
 8348W        W24242   2.883   6.373   1.154  0.0628 -0.0505 -0.1393
 8349W        W24243  17.572  15.597   1.573  0.2375  0.1915  0.1043
 8350W        W24244  10.469   9.981  12.581 -0.0495  0.0183  0.0294
 8351W        W24245  15.506   3.235   3.723 -0.0838  0.0633 -0.3828
 8352W        W24246   8.119  15.497   4.934 -0.1352 -0.0414  0.1198
 8353W        W24247   9.748   2.812   4.669  0.0865 -0.1572 -0.0487
 8354W        W24248   8.070   8.798   4.203  0.3713 -0.2300 -0.0661
 8355W        W24249  15.445   3.958   2.067 -0.0000 -0.1051 -0.1471
 8356W        W24250  12.738   2.259   1.350 -0.1706 -0.0779 -0.2127
 8357W        W24251   7.562   5.420  13.432  0.2054 -0.1610 -0.1775
 8358W        W24252   5.573  10.516  15.184 -0.0661 -0.1697 -0.1399
 8359W        W24253   9.914   2.302  15.239 -0.2088 -0.3764 -0.2765
 8360W        W24254   6.117  10.455  12.562 -0.2890  0.4009  0.1107
 8361W        W24255  17.166  15.936   1.596  0.1416  0.2272 -0.2888
 8362W        W24256  11.426  12.830  11.561 -0.0110 -0.0724 -0.0398
 8363W        W24257   1.022  15.575   5.403 -0.1719 -0.0837 -0.2367
 8364W        W24258   4.291  13.400  12.951 -0.2456  0.0099 -0.0691
 8365W        W24259  15.557   9.289   5.396  0.5426  0.0864 -0.0467
 8366W        W24260   5.157   2.486   0.743 -0.3172  0.1326 -0.0829
 8367W        W24261  14.953   2.340   1.931 -0.1556  0.0712 -0.1976
 8368W        W24262   4.220   8.465   3.023 -0.5104  0.0144 -0.4177
 8369W        W24263   7.350   9.278   1.827 -0.0565 -0.1452 -0.0230
 8370W        W24264   1.093  14.768   5.353 -0.1074 -0.2459 -0.1546
 8371W        W24265   9.042   8.616  12.560  0.1100  0.1666  0.1999
 8372W        W24266   4.478   3.951   3.384  0.1753  0.2449  0.1544
 8373W        W24267   5.785  13.078  14.172  0.4194  0.1646  0.1466
 8374W        W24268   9.055   3.808   3.874  0.1432 -0.0579 -0.2838
 8375W        W24269   4.309  12.250   5.153 -0.1657 -0.1473  0.2132
 8376W        W24270  10.306  11.472   3.305  0.2390 -0.1108 -0.0953
 8377W        W24271  10.283   5.184   0.968 -0.0387 -0.0214 -0.4648
 8378W        W24272   9.493   9.740  11.792 -0.3502 -0.0225 -0.1447
 8379W        W24273   3.187  14.680   6.442  0.2235  0.4121  0.0139
 8380W        W24274  11.698   7.348  12.994 -0.1837  0.2394  0.0657
 8381W        W24275   6.198  10.916   6.152 -0.0970 -0.0083 -0.0047
 8382W        W24276   8.105   4.100   3.854 -0.0984 -0.0174  0.2859
 8383W        W24277  10.454  14.838   4.741 -0.2196  0.0523  0.0577
 8384W        W24278   4.069  10.132  12.501 -0.1200 -0.0566 -0.2741
 8385W        W24279  10.093   5.394   3.770 -0.2836  0.0528 -0.0947
 8386W        W24280  10.122   8.379  13.893  0.0947 -0.0401  0.3825
 8387W        W24281  13.677  10.723   3.420 -0.0964  0.1503 -0.3205
 8388W        W24282   5.649   2.372  15.251  0.0266 -0.1409 -0.1465
 8389W        W24283   7.042   7.366   4.999  0.0979 -0.1192  0.0179
 8390W        W24284  12.089   1.745  13.018 -0.0995 -0.0921 -0.0413
 8391W        W24285  16.891  11.427   6.497  0.0039 -0.4796 -0.0122
 8392W        W24286   1.137   0.935   2.958  0.1877 -0.2402  0.0251
 8393W        W24287   9.693   7.643  15.119 -0.0408  0.1002 -0.2158
 8394W        W24288  15.242   0.615   5.362  0.3042 -0.0015 -0.2912
 8395W        W24289  13.579  12.136  14.135  0.1637  0.2925 -0.3146
 8396W        W24290   3.918  13.859  16.431 -0.3253  0.2063  0.0573
 8397W        W24291   1.704   6.409   0.947 -0.0025  0.1655 -0.2168
 8398W        W24292   0.597  12.353   4.469 -0.0744 -0.0694 -0.0587
 8399W        W24293  11.418  16.251  16.304 -0.1744 -0.0850 -0.0982
 8400W        W24294   9.722   0.769   1.609  0.1768 -0.0296 -0.1729
 8401W        W24295  15.796   3.504   2.874  0.0005  0.0015 -0.2317
 8402W        W24296  11.497   4.865   3.085 -0.0844 -0.4083  0.2943
 8403W        W24297  13.334  13.949   1.908  0.2249  0.1902  0.1667
 8404W        W24298   8.773   3.158   0.421 -0.0468 -0.0658  0.1218
 8405W        W24299   2.722  13.268   0.976  0.0557 -0.3280  0.0571
 8406W        W24300   4.720   0.640   1.947  0.0233  0.0299  0.1371
 8407W        W24301  16.282  11.405   4.668  0.1687  0.1769  0.0971
 8408W        W24302  17.406  12.674   6.434  0.0708  0.0993  0.2475
 8409W        W24303   9.447   0.368   1.779  0.0391  0.1636  0.1593
 8410W        W24304   9.663  13.767   6.658  0.1967  0.0237  0.3260
 8411W        W24305   6.714   1.893  14.053  0.0228 -0.1125 -0.1164
 8412W        W24306  16.856   4.191  11.269 -0.0753 -0.0815 -0.2398
 8413W        W24307  14.612  12.158   5.616  0.3553 -0.0335 -0.1870
 8414W        W24308   9.508   9.878   3.169  0.0855  0.0251  0.0989
 8415W        W24309   1.226  12.653   0.501 -0.0337  0.2979  0.3214
 8416W        W24310  11.332   5.664  14.648  0.1649  0.0380 -0.1136
 8417W        W24311   4.989  14.707   0.977  0.0339 -0.1132  0.0605
 8418W        W24312   3.522  10.313   0.233 -0.0660  0.1938  0.0903
 8419W        W24313   4.804   0.164  16.776 -0.0953 -0.0518  0.0856
 8420W        W24314   1.270  12.488  15.989  0.1918  0.0464  0.0015
 8421W        W24315   7.347   3.882  14.176 -0.0993  0.1826  0.0300
 8422W        W24316  13.950   0.449   1.613  0.0725  0.0252  0.0630
 8423W        W24317  12.914  13.547   1.181  0.1756 -0.2896 -0.2164
 8424W        W24318   9.945   8.749   4.247  0.0731  0.0005 -0.1540
 8425W        W24319  16.616  12.691  11.735 -0.0198 -0.0649 -0.0426
 8426W        W24320  15.681  16.603  12.438  0.1683 -0.1080 -0.0342
 8427W        W24321  17.284   2.907   0.669 -0.0546 -0.1572 -0.1216
 8428W        W24322  14.785  10.558  14.409  0.0927 -0.1990 -0.1412
 8429W        W24323   4.361  13.096   3.624  0.1890 -0.0921  0.0239
 8430W        W24324   3.318   8.885  16.066  0.0588  0.3286 -0.1863
 8431W        W24325  12.535   2.208   4.436 -0.2170 -0.2037  0.3837
 8432W        W24326   3.468  11.053   6.726 -0.0040 -0.0417  0.0672
 8433W        W24327   5.906  13.050   2.357 -0.3542 -0.1208 -0.2075
 8434W        W24328   8.588   4.877   5.442 -0.2349  0.3845 -0.2364
 8435W        W24329  16.677  10.743   2.546 -0.0824 -0.3430 -0.0556
 8436W        W24330  10.878  15.373   0.596  0.4835 -0.0408  0.1725
 8437W        W24331  10.233   9.154  14.703 -0.1047 -0.4897 -0.0415
 8438W        W24332   7.410  14.994  13.329  0.2077 -0.1996  0.0859
 8439W        W24333   6.541  10.937   0.996 -0.3480 -0.6073 -0.1878
 8440W        W24334   1.550   8.486   0.464 -0.0095 -0.0635 -0.0506
 8441W        W24335   0.666  15.070   5.424  0.2696  0.0446  0.1927
 8442W        W24336  10.792  14.361   3.899  0.1577  0.0626  0.0433
 8443W        W24337  11.720  14.110   2.470  0.0927  0.0556  0.2702
 8444W        W24338   3.547   7.904  15.918 -0.2786  0.1266 -0.0536
 8445W        W24339  12.541   6.543   0.054  0.1900 -0.2439  0.1176
 8446W        W24340  13.095  14.997   1.883 -0.4604  0.1267  0.1590
 8447W        W24341   0.234   3.532   1.653 -0.0509  0.1173  0.0048
 8448W        W24342   7.600  12.008   2.622  0.1727  0.0952 -0.0463
 8449W        W24343  11.095   0.104  16.083  0.0435  0.1758  0.0240
 8450W        W24344  17.575   0.075  12.174 -0.1666  0.0589  0.2243
 8451W        W24345   9.526  16.300   4.384 -0.3130 -0.2230  0.2121
 8452W        W24346  12.721   3.910   2.415 -0.0936  0.2934 -0.3166
 8453W        W24347   9.233   5.764   1.493 -0.2201 -0.1298  0.5795
 8454W        W24348  17.253   4.689  16.968  0.2384  0.4304  0.1918
 8455W        W24349   9.744   9.789  14.064  0.1894  0.0924 -0.0985
 8456W        W24350  16.693  14.531  14.286  0.1200 -0.0233 -0.3564
 8457W        W24351   1.753  15.859  15.126  0.0284 -0.1091 -0.0427
 8458W        W24352  14.765   3.177   1.614 -0.0295 -0.2290 -0.0679
 8459W        W24353   1.492  16.028  11.849  0.1596  0.2232  0.1966
 8460W        W24354   8.634  12.318   1.226 -0.2727 -0.1696 -0.1099
 8461W        W24355   4.240   0.203  14.923 -0.0413 -0.2015  0.3433
 8462W        W24356   1.395  10.642  12.052 -0.1350 -0.1563  0.1774
 8463W        W24357   8.052   3.209  16.861  0.0391 -0.2668 -0.1716
 8464W        W24358  12.679  14.220   3.035 -0.1140 -0.3601 -0.1502
 8465W        W24359   8.787   0.398  16.278  0.0526  0.1782 -0.0405
 8466W        W24360   1.801  17.621  14.823  0.0615  0.0257  0.0557
 8467W        W24361   7.201   9.404  14.648 -0.0398  0.1926 -0.0565
 8468W        W24362   9.756   9.302  16.034 -0.1802  0.3231  0.2777
 8469W        W24363  15.406   2.222   1.772  0.0266  0.0725  0.2352
 8470W        W24364   6.295   3.931   1.897 -0.1026  0.1078  0.0960
 8471W        W24365  12.882   3.754   2.994 -0.2519 -0.0884  0.1449
 8472W        W24366   5.707   6.373  13.857  0.0033 -0.0603 -0.2358
 8473W        W24367   6.437   6.134  17.176  0.0857 -0.2331  0.4070
 8474W        W24368  11.502   9.302  17.291  0.0063 -0.0449  0.2968
 8475W        W24369   1.207   9.296   5.831 -0.2512  0.0713  0.0074
 8476W        W24370  14.805  16.592  14.421  0.0171 -0.0863  0.0895
 8477W        W24371   2.775  11.081   4.720 -0.2370  0.0871  0.0592
 8478W        W24372   2.509   4.988  12.593  0.2343  0.1017 -0.3948
 8479W        W24373  16.583   3.284   2.756  0.0950  0.0624  0.1219
 8480W        W24374  12.888   0.262   4.107  0.0180 -0.0166  0.1188
 8481W        W24375   9.244   6.189   2.547 -0.1669 -0.0918 -0.2854
 8482W        W24376   0.751   7.330   4.528 -0.2034  0.1541 -0.0960
 8483W        W24377   6.697   1.768   1.768  0.1834  0.1077 -0.1293
 8484W        W24378  16.767   3.617  13.257  0.0274  0.3722  0.1170
 8485W        W24379   5.478  14.252   1.859  0.1257  0.1702  0.3750
 8486W        W24380   6.938  14.839  14.090  0.2387  0.0363 -0.2106
 8487W        W24381  14.371   6.652   5.232 -0.1514  0.2038 -0.0395
 8488W        W24382   9.017   9.836  16.485  0.1906 -0.0872  0.1358
 8489W        W24383   8.566   1.460   3.758 -0.1224  0.3089 -0.2106
 8490W        W24384  15.286  14.604   3.051  0.2467 -0.2273 -0.1074
 8491W        W24385  11.339   6.451   3.040  0.3610 -0.0100 -0.1406
 8492W        W24386   4.824  17.472  11.984 -0.0929  0.1279 -0.1187
 8493W        W24387  10.913  17.423   2.593  0.0707  0.2224 -0.2154
 8494W        W24388   9.424   5.030   1.380  0.0429  0.0120 -0.0918
 8495W        W24389   1.637   5.673  14.780 -0.2765 -0.0754  0.3706
 8496W        W24390  15.257   3.256   1.511 -0.5488 -0.5451 -0.3111
 8497W        W24391   8.630  14.143   6.734  0.1307  0.0110 -0.2400
 8498W        W24392   6.377  12.508  12.005 -0.0150 -0.1228 -0.0788
 8499W        W24393  13.117  15.779  11.930 -0.2160 -0.0059 -0.2476
 8500W        W24394   2.191  17.469   1.510 -0.0343 -0.0625  0.1259
 8501W        W24395  10.448   5.821   2.807  0.3943 -0.0466 -0.0564
 8502W        W24396   8.626   1.209  14.175 -0.1591 -0.1006  0.0619
 8503W        W24397   2.901   5.470   1.231  0.0982 -0.1646 -0.3986
 8504W        W24398   2.471  13.033  13.466  0.1060 -0.0573 -0.0080
 8505W        W24399  15.577   2.060  14.424 -0.1005  0.1595 -0.2580
 8506W        W24400  12.179   0.702   4.417 -0.0912 -0.0513  0.1737
 8507W        W24401  14.982   8.544  16.119 -0.1004 -0.0316  0.0386
 8508W        W24402   7.196  11.257   4.631  0.1474  0.0822 -0.0899
 8509W        W24403   2.091   8.427  16.057  0.2989  0.3186 -0.2115
 8510W        W24404   4.347  14.237  12.033 -0.0091 -0.2248 -0.0081
 8511W        W24405  12.746   4.771  11.669 -0.0732  0.0517  0.0372
 8512W        W24406  12.739   4.378  13.453 -0.1677  0.1529 -0.1072
 8513W        W24407  11.913  13.140   6.431 -0.1016 -0.1487 -0.0618
 8514W        W24408   7.457   4.849   5.037 -0.1876 -0.0427  0.1336
 8515W        W24409  11.530   4.210  13.486  0.0155  0.0788  0.0657
 8516W        W24410   1.782  10.511  14.095 -0.1815  0.2497  0.2933
 8517W        W24411   1.143   2.188   1.883 -0.0656  0.0074  0.1143
 8518W        W24412   8.578  10.744   4.613 -0.1056 -0.2380 -0.1922
 8519W        W24413   1.063  13.031   0.765  0.0575  0.1841 -0.0202
 8520W        W24414  14.152  11.000  12.936 -0.1692 -0.2301  0.4229
 8521W        W24415  17.624   0.282   4.966  0.2479 -0.1226  0.2695
 8522W        W24416   6.528   4.067  15.446 -0.0869 -0.2935 -0.0459
 8523W        W24417  15.882   8.298  12.012 -0.0160  0.0450  0.0054
 8524W        W24418  14.272   9.895  14.687 -0.3408 -0.3423 -0.1165
 8525W        W24419   8.826   2.732  14.560 -0.0397 -0.4062  0.2158
 8526W        W24420   1.354  17.017   4.555  0.1118  0.1909 -0.1054
 8527W        W24421   8.060  11.483  16.911  0.1172  0.0404 -0.0996
 8528W        W24422  13.340  11.500  11.783 -0.1608  0.0283 -0.1109
 8529W        W24423   4.545   6.999  16.584 -0.0263  0.3573 -0.0555
 8530W        W24424   3.422   3.652   3.196 -0.0049  0.0483  0.1576
 8531W        W24425  13.501  11.127  14.857 -0.0195  0.0532  0.3603
 8532W        W24426  16.444   5.554   1.473  0.0250  0.2640  0.0209
 8533W        W24427  15.854   0.631  14.796  0.0422 -0.0658 -0.3230
 8534W        W24428   4.264   8.140   3.395 -0.1789 -0.0673  0.0876
 8535W        W24429  12.346  10.232   2.737  0.0362 -0.1046  0.2501
 8536W        W24430  15.689   1.031   5.384 -0.1726  0.1045  0.0173
 8537W        W24431  15.439   6.832  14.156 -0.2469 -0.0574  0.1128
 8538W        W24432   2.433  16.751   5.902  0.1513  0.2789 -0.1364
 8539W        W24433  16.094  14.646  13.631  0.1859  0.2152 -0.2491
 8540W        W24434  11.289   6.206   1.214 -0.0986  0.3285 -0.0074
 8541W        W24435   0.472   7.611  16.874  0.2345 -0.0009 -0.0744
 8542W        W24436   8.566  13.362  17.194  0.0578 -0.1036  0.0027
 8543W        W24437   0.901  16.855   3.294 -0.3888  0.1834 -0.1300
 8544W        W24438  17.211   9.424  14.890  0.0006  0.3290 -0.2198
 8545W        W24439  14.325   7.570  17.294 -0.0829  0.3853 -0.0228
 8546W        W24440  14.369  15.290  11.954  0.2175  0.1172 -0.1288
 8547W        W24441   9.636   5.656  15.890 -0.0684 -0.1555  0.2005
 8548W        W24442  17.155   8.759   3.674  0.0791 -0.0142  0.1617
 8549W        W24443   6.293   3.174   3.497  0.0686 -0.0849 -0.1833
 8550W        W24444  14.669  11.087   1.073  0.0924 -0.0507  0.4172
 8551W        W24445   2.676  11.398   6.073 -0.1111 -0.3508  0.0802
 8552W        W24446   8.254   6.174   0.728 -0.0383 -0.0271  0.1949
 8553W        W24447   0.925   2.656   5.000 -0.0941  0.0253 -0.2851
 8554W        W24448   5.092  15.635  12.137  0.2099  0.0336  0.0714
 8555W        W24449  13.017   0.875   2.897 -0.0537  0.0166 -0.0232
 8556W        W24450   2.320  12.488   2.728 -0.2209  0.0679  0.1238
 8557W        W24451   4.422   1.977  12.301  0.2724 -0.0583  0.2660
 8558W        W24452   3.885   9.422  12.185 -0.2402 -0.1712 -0.0072
 8559W        W24453   8.281  10.361   4.295  0.3408 -0.0349 -0.1161
 8560W        W24454   2.613  14.471   5.727  0.1771  0.2295  0.3886
 8561W        W24455  15.829  15.377   1.273  0.2271  0.0061  0.2256
 8562W        W24456  15.395  11.783   4.590  0.0321  0.1212  0.2133
 8563W        W24457  10.211   1.545  15.937  0.1147 -0.2199  0.2963
 8564W        W24458   6.098  16.235  12.930  0.2353 -0.0196  0.3433
 8565W        W24459  11.821   8.106   1.740 -0.0543 -0.0926 -0.0184
 8566W        W24460  13.046   6.437   3.456 -0.0908 -0.2540 -0.1715
 8567W        W24461   6.353   0.198  14.601 -0.1009  0.1074  0.1349
 8568W        W24462  16.714  11.735   4.083  0.0597  0.2719 -0.1564
 8569W        W24463   6.688   6.897   0.146  0.2606  0.1074  0.1186
 8570W        W24464   4.941   9.087  13.092  0.2374 -0.1039 -0.3267
 8571W        W24465  15.561  12.302  11.780 -0.1649 -0.2711 -0.0347
 8572W        W24466   5.161   5.262   1.422  0.3122  0.0523 -0.6540
 8573W        W24467   8.702  15.313  14.834 -0.1570 -0.0824  0.1889
 8574W        W24468   7.812   0.363  15.965 -0.1104 -0.1002  0.0116
 8575W        W24469   3.576   1.463   2.444  0.1979  0.1010 -0.2965
 8576W        W24470  13.144   1.355   0.187 -0.1880  0.2066  0.0851
 8577W        W24471  15.241   3.997   5.674 -0.1191  0.1263 -0.0249
 8578W        W24472   0.234   2.521  15.744  0.2422  0.1435  0.1927
 8579W        W24473   3.424   0.125  14.415  0.1811  0.2391  0.0276
 8580W        W24474   0.897  15.852   1.226 -0.1607  0.0847 -0.1593
 8581W        W24475   3.305  13.001   2.792 -0.0706  0.1471  0.0826
 8582W        W24476  16.751  11.751   2.469  0.1539  0.1534 -0.2221
 8583W        W24477  12.383  16.045  17.240 -0.0464  0.2047 -0.0116
 8584W        W24478  16.926  15.931   4.948  0.0416  0.1265 -0.0422
 8585W        W24479   3.036  16.775   5.046  0.2032 -0.1750 -0.2071
 8586W        W24480  14.508   5.324   2.848  0.0957 -0.4234 -0.0936
 8587W        W24481  16.150   7.273  13.343 -0.0160  0.2259 -0.0033
 8588W        W24482  17.605  10.139  12.360 -0.0947 -0.0000  0.0773
 8589W        W24483  14.876  17.033   1.195  0.0480  0.1071 -0.1039
 8590W        W24484  16.521   5.769   4.475  0.3004  0.0732  0.0819
 8591W        W24485   5.911   7.883  15.263  0.0676 -0.1698 -0.1683
 8592W        W24486  10.079   7.316   5.159  0.3560 -0.2155 -0.3739
 8593W        W24487  13.270   5.646   2.720 -0.1632  0.1180 -0.0612
 8594W        W24488   4.050  11.911  12.121  0.1341  0.0065  0.0084
 8595W        W24489   7.134   5.229  14.197  0.1712  0.1834  0.4851
 8596W        W24490   4.588   7.525  13.002 -0.1356  0.0352  0.1148
 8597W        W24491   3.420   5.565  16.581 -0.0676 -0.0799  0.0576
 8598W        W24492   8.088  14.019   0.135 -0.1998 -0.0958 -0.3843
 8599W        W24493   7.049   1.935  16.573  0.4221 -0.2187  0.0484
 8600W        W24494   8.376   3.789  15.010  0.0190 -0.1911  0.0826
 8601W        W24495   4.005   5.552  13.169  0.1509 -0.0991  0.2421
 8602W        W24496   4.158  14.516  17.255  0.1626 -0.0903  0.1469
 8603W        W24497  12.452   2.914  13.135 -0.0902  0.0523 -0.1472
 8604W        W24498  16.908   1.613  13.479  0.1663 -0.0211  0.0224
 8605W        W24499   4.599   7.904  12.616 -0.0022 -0.0754 -0.3357
 8606W        W24500   9.202  10.282   0.433  0.3441  0.0808 -0.0832
 8607W        W24501  12.308   5.337   1.331  0.1872 -0.1791 -0.0687
 8608W        W24502  13.488  16.449   5.642  0.0873  0.2344  0.0608
 8609W        W24503  14.679  14.901   5.083 -0.0733  0.1991 -0.0403
 8610W        W24504  12.845   6.083  15.957 -0.3031 -0.0778 -0.2698
 8611W        W24505  13.889   9.284   3.383  0.3465  0.0126  0.1774
 8612W        W24506  11.772  13.104   3.602 -0.1265 -0.0078 -0.0559
 8613W        W24507   4.028  15.751   1.116 -0.1179 -0.0799 -0.0981
 8614W        W24508  17.584  16.634   4.606  0.1929 -0.0046 -0.0461
 8615W        W24509   8.110  16.462  14.690  0.3018  0.1315  0.0622
 8616W        W24510   6.374   5.086   0.540  0.3124  0.1088  0.1315
 8617W        W24511  16.625   2.798  11.454 -0.0174 -0.0017  0.0899
 8618W        W24512   9.361   4.998  12.816  0.0945 -0.0876 -0.3110
 8619W        W24513  11.937   1.962  12.154  0.0339 -0.1958 -0.0608
 8620W        W24514   5.746  13.601   5.212 -0.0997  0.1303  0.0943
 8621W        W24515  10.494   8.154  14.697  0.2281 -0.0014  0.0013
 8622W        W24516  12.848  16.023   2.371  0.1223  0.0880  0.0448
 8623W        W24517   0.264   6.617  15.404  0.3977  0.4034 -0.1173
 8624W        W24518   9.742   8.708   0.361  0.1916 -0.0250  0.2709
 8625W        W24519  16.995   1.079   1.489 -0.0127 -0.0415  0.0024
 8626W        W24520   8.745  10.770  13.802  0.0519 -0.1881 -0.1203
 8627W        W24521  11.909   8.248   5.470 -0.1713  0.0220 -0.0986
 8628W        W24522  16.364  12.418   0.066 -0.0964 -0.1291  0.1232
 8629W        W24523   0.544  16.824  16.173  0.0077 -0.3319 -0.2715
 8630W        W24524  11.393  15.557  12.615  0.1481  0.3640 -0.0365
 8631W        W24525   4.994   2.866   3.116 -0.0481  0.0584  0.2950
 8632W        W24526   6.322   4.309  12.197  0.3378 -0.2464  0.0804
 8633W        W24527   3.480  14.899   3.784  0.1100  0.2455 -0.0814
 8634W        W24528   1.938  16.644  13.024  0.2035 -0.0097  0.0207
 8635W        W24529  16.241   2.370  15.957  0.1064 -0.0209 -0.3863
 8636W        W24530   0.334  10.964  16.575 -0.1711  0.3055 -0.0723
 8637W        W24531   9.338   8.397  15.072 -0.2183 -0.0299  0.1204
 8638W        W24532   4.089  16.182   1.533 -0.0274  0.0768 -0.1948
 8639W        W24533  16.063   8.042  14.867  0.2672 -0.2936  0.2033
 8640W        W24534  10.073  15.632  17.083  0.1070  0.0153  0.2144
 8641W        W24535  15.066   1.885   1.811  0.0042  0.1468  0.3521
 8642W        W24536   7.748   7.833   2.095  0.1480 -0.0910 -0.0728
 8643W        W24537   3.814  13.483  15.098  0.0155  0.1165  0.0610
 8644W        W24538  10.004  14.816   3.979  0.0217 -0.1041  0.1101
 8645W        W24539  16.493   8.806  14.315 -0.0510  0.0578  0.0444
 8646W        W24540   6.492   4.759   5.084 -0.3179 -0.1862  0.4274
 8647W        W24541   5.298  14.458   2.920 -0.2177  0.0387  0.0290
 8648W        W24542   0.302   5.373   3.567  0.0234 -0.0747 -0.2120
 8649W        W24543   7.087  12.113  14.779 -0.2516 -0.2051  0.0583
 8650W        W24544   5.121   3.285  16.056  0.2276 -0.2231  0.0154
 8651W        W24545   5.226   1.593   0.765  0.1339 -0.0451  0.1281
 8652W        W24546   2.701  17.378   3.432  0.2819 -0.0333 -0.0085
 8653W        W24547  14.124   8.290   1.523  0.1321 -0.1220  0.0157
 8654W        W24548   1.950   4.393   2.072  0.1809 -0.2042 -0.1652
 8655W        W24549   5.194  15.407  11.698 -0.1188 -0.1981  0.0077
 8656W        W24550  13.417   5.324  16.185  0.1234 -0.0616  0.0921
 8657W        W24551   7.493  10.277  15.845  0.1646 -0.4000 -0.1503
 8658W        W24552   6.475  10.896  14.425 -0.0829 -0.0275 -0.1789
 8659W        W24553  10.856   8.229   0.775 -0.2113 -0.4393  0.0194
 8660W        W24554  15.088  10.551  13.102 -0.1621 -0.0808  0.2821
 8661W        W24555  12.379   0.855  13.315  0.1814  0.1110  0.0701
 8662W        W24556  12.960  12.779   1.461 -0.3534  0.2014  0.2903
 8663W        W24557  14.394   4.344  16.221  0.1788 -0.2293 -0.3412
 8664W        W24558   5.684   0.941  15.547  0.1754 -0.2299 -0.1515
 8665W        W24559   1.628  16.493   2.315 -0.1746 -0.0961 -0.0544
 8666W        W24560  13.572  12.058  13.533 -0.1417 -0.0762  0.0983
 8667W        W24561  11.615  13.031   0.474 -0.0299  0.3254 -0.3670
 8668W        W24562   6.913  17.183  14.956 -0.2559  0.1005 -0.0751
 8669W        W24563   2.286  15.251   5.002  0.1008  0.3770  0.2031
 8670W        W24564  17.500  10.722   2.560  0.1440  0.0530 -0.1414
 8671W        W24565   8.740   0.281  12.874 -0.1621 -0.1312  0.2533
 8672W        W24566   9.531  13.159  17.134 -0.1611 -0.0391 -0.0800
 8673W        W24567  15.679  15.896  14.685 -0.1577 -0.1289  0.3629
 8674W        W24568   5.726   5.883  16.672 -0.0006  0.0534  0.0982
 8675W        W24569   5.891   8.842   2.454  0.2487 -0.0085 -0.1031
 8676W        W24570   9.614   2.558   2.004 -0.1535 -0.1037  0.0002
 8677W        W24571  15.082  15.150   4.379  0.0350  0.1744 -0.1862
 8678W        W24572   5.748   8.406   2.581  0.2230 -0.1404  0.1362
 8679W        W24573  13.441   9.968   4.614 -0.1823 -0.1188 -0.0359
 8680W        W24574   4.085  14.778   2.959 -0.0114 -0.0469  0.2226
 8681W        W24575  10.828   5.751   1.428 -0.0402 -0.1785 -0.2717
 8682W        W24576   7.035   3.969  15.548  0.0299  0.2844 -0.1341
 8683W        W24577  13.491  10.291   3.205 -0.1716 -0.0434  0.0333
 8684W        W24578  11.531  14.539  11.688  0.1667 -0.2407 -0.0431
 8685W        W24579   6.559  10.891   3.877  0.0102 -0.1030 -0.0020
 8686W        W24580  13.372   1.892   2.079  0.1974  0.2156 -0.0505
 8687W        W24581  17.085  13.380  14.866  0.1521  0.0455  0.3217
 8688W        W24582   1.552  14.122   1.530 -0.3008 -0.2413 -0.2185
 8689W        W24583  13.704  11.254  13.001  0.2992  0.1040 -0.1002
 8690W        W24584   5.812  13.987   1.211 -0.0412  0.1564 -0.1024
 8691W        W24585  11.993  14.081  15.253 -0.1188 -0.2843 -0.2033
 8692W        W24586   3.396   2.074   5.476 -0.0764  0.1007 -0.0563
 8693W        W24587   4.675   3.523  13.731  0.2425 -0.0462  0.0389
 8694W        W24588   9.036  15.411   2.353 -0.1944 -0.0933  0.2906
 8695W        W24589  14.985  15.910  16.876  0.0201  0.1250 -0.5307
 8696W        W24590   3.307   0.504   1.578 -0.0625  0.1226 -0.1376
 8697W        W24591  16.836  12.515  12.619 -0.4101 -0.0291  0.0048
 8698W        W24592   2.768   4.742   5.792  0.2068  0.0531 -0.2082
 8699W        W24593   0.266  12.863   2.778 -0.2916  0.4467 -0.0019
 8700W        W24594  12.496   6.893  13.353 -0.2069  0.0002  0.3399
 8701W        W24595   0.738  12.652   4.892 -0.0878 -0.0072 -0.0110
 8702W        W24596  13.959  11.623   5.987 -0.2388  0.1579  0.0541
 8703W        W24597  16.568  13.664   1.536 -0.0416 -0.0890  0.2605
 8704W        W24598   1.479   9.926  15.755 -0.2030 -0.1121 -0.0561
 8705W        W24599  14.219  13.276   4.326  0.0031  0.0018 -0.1402
 8706W        W24600  16.916   0.136   3.042  0.0129 -0.2641  0.1572
 8707W        W24601   9.012   2.796   4.855  0.1928  0.1284 -0.1598
 8708W        W24602   3.763  13.591   3.980 -0.1299 -0.1197  0.0263
 8709W        W24603   6.761  10.058  12.893 -0.0079 -0.1343  0.1612
 8710W        W24604   2.507  16.518  15.005  0.0708  0.1232 -0.2104
 8711W        W24605   5.760   7.068  15.715  0.1961 -0.1078 -0.0507
 8712W        W24606   2.224   8.104   6.578 -0.0298 -0.3156  0.0668
 8713W        W24607   3.532  10.556  13.522  0.1165 -0.0368  0.0832
 8714W        W24608  10.118  14.921  12.566 -0.2510  0.1901  0.2133
 8715W        W24609   5.592   9.546  14.225 -0.2838  0.0427 -0.1357
 8716W        W24610   0.486  12.633   0.491 -0.0667  0.5099  0.1298
 8717W        W24611   8.459  16.839  14.455 -0.2071 -0.0424  0.1491
 8718W        W24612  17.091   3.791   4.711 -0.0328 -0.5884  0.1686
 8719W        W24613   0.808  13.674   6.052 -0.3002  0.0914 -0.1865
 8720W        W24614  10.660   9.041  14.422  0.0636 -0.2510  0.0276
 8721W        W24615   9.955  14.834  13.470  0.2256 -0.4084  0.0458
 8722W        W24616  11.583   3.957  16.339  0.1826 -0.2651  0.1678
 8723W        W24617  17.361   8.640   4.121  0.0375  0.0108  0.2439
 8724W        W24618   0.629   1.159  11.713 -0.1399  0.0683  0.0027
 8725W        W24619   3.624  13.451   4.920 -0.3169 -0.0596  0.3361
 8726W        W24620   4.844   7.989  15.762 -0.2094  0.0993 -0.0470
 8727W        W24621  12.857   6.109   0.465 -0.1556  0.0437 -0.0953
 8728W        W24622   5.680   0.891  17.250 -0.1584 -0.0926  0.0096
 8729W        W24623   4.424   6.411   0.516 -0.1572  0.0299 -0.0187
 8730W        W24624   2.385   7.303  14.599 -0.1099 -0.2382 -0.2782
 8731W        W24625  13.468  13.459   2.021  0.1194 -0.1852  0.1035
 8732W        W24626   1.429   7.953   3.309 -0.1251 -0.0381 -0.2347
 8733W        W24627  17.371   6.417   4.157  0.2065  0.0682 -0.0742
 8734W        W24628  17.576   6.487   2.818  0.0071  0.1040  0.2869
 8735W        W24629  11.703   8.971  15.678  0.1395  0.1389  0.0227
 8736W        W24630   0.017  10.808  15.356  0.1458 -0.0065 -0.2182
 8737W        W24631   7.253  13.313   5.617  0.1610 -0.2755  0.1714
 8738W        W24632   3.707   4.638   3.427 -0.2477  0.1461  0.0618
 8739W        W24633  10.059  13.177  17.190 -0.0175  0.4059  0.3255
 8740W        W24634  14.209   8.606  15.555 -0.1612  0.0538 -0.0551
 8741W        W24635  12.753  15.411   3.493  0.1396 -0.0012  0.2561
 8742W        W24636   1.989   0.458   6.123 -0.1742 -0.3895 -0.2302
 8743W        W24637   0.432   1.241   3.587 -0.0566  0.1847  0.0371
 8744W        W24638   7.129  17.270   6.961  0.0420 -0.0305 -0.0432
 8745W        W24639   1.216  14.305  13.745  0.0296  0.3317  0.1063
 8746W        W24640   8.624  11.034  13.229  0.0352  0.1372  0.0063
 8747W        W24641  15.806   3.118  14.031  0.1361  0.0907  0.0701
 8748W        W24642   9.454  13.606  15.093 -0.0324  0.0191 -0.3716
 8749W        W24643   8.816   2.746   0.936 -0.0484 -0.0604  0.0222
 8750W        W24644   5.371   0.516  15.523 -0.1737 -0.0631 -0.1348
 8751W        W24645   1.481   0.357   2.682  0.2390  0.1425 -0.0969
 8752W        W24646   8.252  16.478   5.014  0.1350 -0.0471 -0.1451
 8753W        W24647  11.753  13.339   4.223  0.4551  0.1120  0.2828
 8754W        W24648   7.172   4.903  11.329  0.0982  0.0032 -0.0810
 8755W        W24649  15.706  14.369  13.343  0.0415 -0.1712  0.0897
 8756W        W24650  12.138   0.070  14.629  0.1388 -0.3647  0.2059
 8757W        W24651  17.571  13.237   4.755 -0.2660  0.3012  0.0551
 8758W        W24652   2.743  13.939  17.094 -0.0379 -0.2092 -0.0022
 8759W        W24653  12.843  13.278  12.757 -0.3578  0.1369 -0.0342
 8760W        W24654   2.221   2.544   1.285 -0.0525  0.3176  0.1593
 8761W        W24655  11.615  10.758  13.361  0.0301  0.0529 -0.1234
 8762W        W24656   1.483  12.702   1.626 -0.2846  0.0169 -0.0017
 8763W        W24657  10.481   6.206   0.114 -0.1383 -0.1440 -0.0105
 8764W        W24658   8.064  16.201   5.811 -0.1679 -0.3124  0.1796
 8765W        W24659   1.510  11.534  12.393 -0.1945  0.2333 -0.2226
 8766W        W24660  14.459  11.142   3.541  0.0037 -0.3193  0.2519
 8767W        W24661   0.944   5.454   5.904  0.1777 -0.2416  0.1768
 8768W        W24662  16.380  13.071  11.935  0.2641 -0.2095 -0.0293
 8769W        W24663  16.399   3.711   4.274  0.2299 -0.0538 -0.0636
 8770W        W24664   3.244   4.263   5.076 -0.0259 -0.0976 -0.1824
 8771W        W24665   9.827   1.798  16.084  0.1780  0.0282  0.2685
 8772W        W24666   1.210   1.069  15.224  0.1760 -0.1733  0.0440
 8773W        W24667   2.558   2.595   1.671  0.3566 -0.1137  0.0786
 8774W        W24668   0.640  11.428   6.277  0.5267 -0.1531 -0.0749
 8775W        W24669   2.536  14.261   0.226 -0.0404 -0.0174 -0.0964
 8776W        W24670  11.831   2.904   3.764  0.5032  0.1428 -0.0242
 8777W        W24671   0.467   9.307  16.227 -0.1536 -0.0309 -0.1405
 8778W        W24672  17.073   7.493  15.907 -0.3445  0.0708  0.1428
 8779W        W24673   9.558  10.764  16.139  0.1637  0.1922 -0.2523
 8780W        W24674  10.519   0.585   2.678 -0.0114 -0.3827  0.0740
 8781W        W24675  16.713  14.940  16.752 -0.2561 -0.0070  0.0603
 8782W        W24676  15.053   9.284  16.965 -0.0999  0.0015  0.2170
 8783W        W24677   3.711  10.915  15.658  0.0642  0.1792 -0.0208
 8784W        W24678   4.830  15.032  15.477 -0.0785 -0.0028  0.2005
 8785W        W24679  13.539   1.207   1.516  0.0169 -0.1355  0.1923
 8786W        W24680  15.392  10.258  11.900  0.1200  0.0490  0.0690
 8787W        W24681   9.991  13.010   5.851 -0.0495  0.1384 -0.2091
 8788W        W24682  15.855   6.056   0.629  0.1498  0.1544 -0.1294
 8789W        W24683  14.243   7.579   3.673  0.5031 -0.0052 -0.2842
 8790W        W24684  12.933  17.529   5.841  0.2396 -0.1515  0.3139
 8791W        W24685   2.915   2.549  15.176  0.0156 -0.1544 -0.3397
 8792W        W24686   6.642  10.209  12.408 -0.0717 -0.0872  0.2030
 8793W        W24687   6.950   9.534   1.170 -0.2114 -0.1160 -0.0576
 8794W        W24688  13.989  10.441   3.071 -0.2107 -0.0022 -0.3009
 8795W        W24689  11.331   8.383   1.672 -0.0904 -0.0240  0.1655
 8796W        W24690  16.716  13.096   4.075  0.1714  0.0179  0.1942
 8797W        W24691  14.088   1.942  16.793 -0.1745 -0.0539  0.0648
 8798W        W24692  12.296  14.381   4.625  0.0038  0.1061 -0.0026
 8799W        W24693   9.611   5.994   3.307  0.2455  0.1040 -0.1823
 8800W        W24694   3.151  10.193   5.878 -0.0231  0.2950 -0.0880
 8801W        W24695  12.015  11.799   0.336  0.2886  0.0794  0.0349
 8802W        W24696  10.980   4.532   0.787  0.0425  0.3086 -0.0148
 8803W        W24697   4.804   6.189   0.277 -0.2344 -0.2851  0.1842
 8804W        W24698  11.530   2.086   5.153 -0.0890 -0.1901 -0.1197
 8805W        W24699   7.481  10.575  12.366  0.0058 -0.1589 -0.1390
 8806W        W24700  14.504  15.699   0.864 -0.2460  0.0790  0.0156
 8807W        W24701   9.779  12.927   3.130  0.0652  0.6899 -0.2140
 8808W        W24702  16.926  13.293  14.389  0.1136 -0.0288  0.0114
 8809W        W24703   2.224  16.872  14.287  0.2369  0.1099  0.2448
 8810W        W24704   1.339  16.595   3.002  0.1727  0.1780 -0.0794
 8811W        W24705  11.717  15.259   0.009  0.1381 -0.0427  0.2407
 8812W        W24706   4.875  11.120   3.744 -0.1061  0.1851  0.2998
 8813W        W24707   3.867  10.270  11.984  0.2189  0.1551 -0.0906
 8814W        W24708  15.881   7.966   3.142  0.2023  0.0014  0.0544
 8815W        W24709  17.078   7.408   4.800  0.1181 -0.1285  0.1525
 8816W        W24710  13.486   3.578   0.999  0.0031  0.1121  0.0088
 8817W        W24711   6.554   4.717  17.191 -0.0934  0.3362  0.0910
 8818W        W24712  14.811   6.774  17.216 -0.1577  0.0709  0.0191
 8819W        W24713  16.412   3.981  16.139 -0.2371  0.0870 -0.0470
 8820W        W24714   3.005  17.517  14.163  0.1241  0.0767 -0.0577
 8821W        W24715  11.357   9.708   3.471  0.0137  0.0541  0.0404
 8822W        W24716  14.753   0.677   2.546 -0.0466 -0.0836  0.1731
 8823W        W24717  10.063  15.415  13.588 -0.0413 -0.2417 -0.0026
 8824W        W24718  16.795   4.656   2.908 -0.0319 -0.0451  0.0494
 8825W        W24719  17.184   5.676   0.774 -0.3072  0.3417  0.0045
 8826W        W24720   5.036   7.644   0.700  0.0789 -0.1673 -0.1460
 8827W        W24721   1.325   2.977  13.136 -0.1207 -0.0951  0.1482
 8828W        W24722  15.113  16.319   0.798  0.2753  0.1398  0.0885
 8829W        W24723   8.038  10.052  14.024  0.0702  0.1346  0.1030
 8830W        W24724   5.649  16.815  14.678  0.1783 -0.2156  0.1573
 8831W        W24725   8.495  10.491   0.968  0.2882  0.0822  0.2754
 8832W        W24726   4.502   9.719  15.840 -0.4426  0.0767  0.1745
 8833W        W24727  15.764   5.232  14.594 -0.0524  0.2338 -0.1258
 8834W        W24728  16.183   2.307  15.160  0.2547 -0.0906  0.0241
 8835W        W24729  13.045  13.483   0.717  0.0229  0.1461 -0.3582
 8836W        W24730   7.709   4.919   1.690 -0.1043 -0.1282 -0.1877
 8837W        W24731  13.568   7.278  13.473 -0.0847 -0.3338  0.1693
 8838W        W24732  10.676   8.399   0.313  0.0783 -0.3695 -0.0956
 8839W        W24733  13.090   5.714   0.622 -0.2767  0.0351 -0.1175
 8840W        W24734  15.229  14.799   2.552 -0.0746 -0.1028 -0.2715
 8841W        W24735  11.709   6.880  15.003  0.1269 -0.0390 -0.2507
 8842W        W24736  16.336   8.578  13.517  0.1420  0.1326  0.2648
 8843W        W24737  10.568   8.114   2.667 -0.1647 -0.1998  0.0489
 8844W        W24738  10.351   6.080   5.204  0.1952  0.2592 -0.0498
 8845W        W24739  12.845   5.542  12.050  0.0394  0.1778 -0.3021
 8846W        W24740   1.472   0.823  16.674  0.1825  0.1292  0.1088
 8847W        W24741  14.351  12.412   3.324 -0.0365  0.1488 -0.2904
 8848W        W24742  13.058  14.946   5.277  0.0035  0.0058  0.1375
 8849W        W24743   8.981   3.178   2.159 -0.0848 -0.1678 -0.1282
 8850W        W24744  15.227  14.910  16.837 -0.2118  0.2492  0.0078
 8851W        W24745   6.276  15.712   3.857  0.0778 -0.0386  0.1295
 8852W        W24746  15.818  14.285   1.910  0.1753 -0.1741  0.0879
 8853W        W24747  11.059   4.789   5.699  0.2314 -0.0962 -0.0914
 8854W        W24748   9.781   3.597  14.549 -0.0330  0.0858  0.0884
 8855W        W24749   1.553  10.891  16.286 -0.0612 -0.2547 -0.0323
 8856W        W24750  11.104   5.535   0.405  0.0500  0.0310 -0.1555
 8857W        W24751   9.084   1.922   2.557 -0.2315 -0.2295  0.3499
 8858W        W24752   3.304  14.993  13.363 -0.0500 -0.0110 -0.5043
 8859W        W24753  11.791   7.226   5.126  0.0673  0.1060 -0.1852
 8860W        W24754   5.206  10.367  12.574 -0.0422 -0.2671 -0.1669
 8861W        W24755  16.435  14.359  12.467 -0.2697 -0.1191  0.0129
 8862W        W24756   7.774  11.968  12.430  0.3306  0.0973 -0.2197
 8863W        W24757   3.344   6.608  16.610 -0.1986 -0.1030  0.0149
 8864W        W24758   3.183   7.432   5.677 -0.2222  0.0521  0.0176
 8865W        W24759   0.809   4.377   1.271  0.1733  0.1109 -0.3418
 8866W        W24760  12.523  14.312  14.838 -0.1902 -0.3669  0.0552
 8867W        W24761   6.023   1.032  14.784 -0.1528 -0.2907  0.1562
 8868W        W24762  15.655  13.705  12.402  0.3173 -0.0381  0.1193
 8869W        W24763   7.314   7.901  13.385  0.1409  0.1834  0.2927
 8870W        W24764   1.465   7.144   2.780 -0.0498 -0.3027  0.0928
 8871W        W24765  13.669  11.832  16.042 -0.2925  0.0954 -0.2377
 8872W        W24766  10.557   9.464  16.332  0.1063 -0.1539 -0.0464
 8873W        W24767   1.618  16.058  12.434 -0.2052 -0.2146 -0.0523
 8874W        W24768  17.493  11.006  15.802 -0.0025  0.0545 -0.0640
 8875W        W24769   1.866  13.192   5.596  0.0183  0.1661 -0.2411
 8876W        W24770   7.378   7.516  17.285 -0.1260  0.3069  0.1307
 8877W        W24771  12.759   7.422   5.137 -0.1615  0.0706 -0.2129
 8878W        W24772   5.277  14.148  14.055  0.0369  0.3725  0.0653
 8879W        W24773  14.941   7.408   5.181 -0.3023 -0.1866 -0.1313
 8880W        W24774   8.652  15.891   0.814  0.0255 -0.2757  0.1159
 8881W        W24775  11.506  14.623   3.538 -0.1280  0.1797 -0.0684
 8882W        W24776  11.833   2.124   1.190 -0.3378  0.1848  0.0676
 8883W        W24777   9.276  14.250   1.415 -0.0908 -0.2323  0.1575
 8884W        W24778  10.052   4.670   5.573  0.0595  0.1325  0.0028
 8885W        W24779   8.624  10.037  13.685  0.2105 -0.0343  0.1799
 8886W        W24780   1.755   4.225   3.479 -0.2764 -0.3650 -0.0535
 8887W        W24781   0.409   4.138   5.899 -0.1001 -0.1885 -0.1168
 8888W        W24782   0.381  11.978   1.498 -0.1379  0.0192 -0.1391
 8889W        W24783  13.442  12.836   6.476  0.0698  0.0572 -0.1542
 8890W        W24784   5.149  13.543   6.451 -0.2056  0.0469 -0.1389
 8891W        W24785   0.784  15.828  14.150 -0.0382  0.0831  0.0089
 8892W        W24786  10.018  14.795  11.680  0.1900 -0.1724  0.1441
 8893W        W24787  17.024   9.893  15.048 -0.1751  0.0019  0.3980
 8894W        W24788  14.819   5.455  13.324 -0.2736 -0.0118  0.0700
 8895W        W24789  12.081   4.968   0.104  0.1591  0.1547 -0.1324
 8896W        W24790   8.951   9.313  16.487  0.1755  0.0109 -0.0001
 8897W        W24791  14.476  13.707  14.172 -0.0409  0.1005 -0.0906
 8898W        W24792  10.302  14.170  16.934 -0.0513 -0.1372 -0.3497
 8899W        W24793   5.366   3.005  13.758 -0.2009  0.1614 -0.2016
 8900W        W24794   2.929   3.002  16.144  0.0863  0.0760  0.0478
 8901W        W24795  11.795   6.839  13.586  0.1359 -0.0716  0.5278
 8902W        W24796   2.418   0.314  15.906  0.1195  0.1616  0.0243
 8903W        W24797   0.925   6.844  14.735 -0.1025 -0.0618 -0.0397
 8904W        W24798   2.130   3.042  16.265 -0.1532 -0.1393 -0.1894
 8905W        W24799  10.558  12.088   4.071 -0.1807 -0.0464 -0.0392
 8906W        W24800   7.787   6.857   3.560 -0.1150  0.0335  0.0059
 8907W        W24801  11.409   4.920   0.629  0.2152  0.1641  0.2733
 8908W        W24802  12.267   3.286  14.881  0.2415 -0.0491  0.2783
 8909W        W24803  16.509  14.920  17.204 -0.0966 -0.0103 -0.0089
 8910W        W24804  13.490   3.993  11.691 -0.1950  0.2401 -0.0010
 8911W        W24805  14.383   7.181  16.100 -0.1582 -0.1058  0.0874
 8912W        W24806   8.702   6.842  13.714 -0.0469  0.2395  0.1711
 8913W        W24807   8.215   9.581   3.277  0.0534  0.0415  0.2892
 8914W        W24808  15.916   7.928  13.321  0.0456  0.1525  0.0056
 8915W        W24809   9.043   0.096   4.822 -0.2857 -0.0340 -0.0621
 8916W        W24810   3.851   6.913  12.681  0.1061 -0.2024 -0.1122
 8917W        W24811  13.545   0.655  12.678  0.0789 -0.0375 -0.0369
 8918W        W24812  14.831   9.267   2.398  0.0367 -0.0726 -0.0334
 8919W        W24813   8.733   3.960   3.438 -0.0321 -0.1014 -0.4959
 8920W        W24814  11.194   6.150  11.969 -0.0897  0.0834  0.3053
 8921W        W24815  14.800  10.263  12.502 -0.0036  0.0650  0.1878
 8922W        W24816   0.769   3.761   2.749 -0.0428 -0.0896 -0.0590
 8923W        W24817  14.295  17.328  13.285  0.0707  0.1109  0.0855
 8924W        W24818   2.159   2.584   5.725 -0.1545  0.2979 -0.0970
 8925W        W24819  11.869   4.483   0.613  0.1406 -0.0764  0.3368
 8926W        W24820  10.668   8.963  10.687  0.0444 -0.1948 -0.0891
 8927W        W24821   2.441  13.705   3.368  0.4057 -0.0149 -0.2583
 8928W        W24822   3.144  11.577  12.650 -0.3773  0.1472 -0.3375
 8929W        W24823   2.193   0.627   5.665  0.1101 -0.1444 -0.3716
 8930W        W24824   7.278   3.734  12.988  0.1149 -0.0262  0.0875
 8931W        W24825   8.293  17.321   1.931  0.2022 -0.4431 -0.0996
 8932W        W24826  16.000  16.056  16.743 -0.2468  0.1584  0.2009
 8933W        W24827  10.483  16.911   0.383 -0.0675  0.0227  0.1808
 8934W        W24828   1.464   4.049   4.419  0.1230 -0.1573  0.4296
 8935W        W24829  13.076   8.355   1.876 -0.0348 -0.0300  0.1392
 8936W        W24830  16.331  10.288  14.261 -0.2102 -0.0679 -0.0154
 8937W        W24831   8.767   7.558   5.296  0.1382 -0.3257 -0.0838
 8938W        W24832  13.119   2.887  16.704 -0.4435  0.2216 -0.1885
 8939W        W24833  12.844   4.880   3.126 -0.0728 -0.0819 -0.0260
 8940W        W24834   0.565   4.472  16.799  0.1865  0.0299 -0.0897
 8941W        W24835   3.383   9.664   1.554  0.1837 -0.0634  0.0030
 8942W        W24836  16.134  13.969   1.295 -0.1556  0.2271 -0.0814
 8943W        W24837   1.208  11.871  14.988 -0.0835 -0.2874  0.0055
 8944W        W24838  17.154   6.088   4.437  0.2028  0.1675 -0.1837
 8945W        W24839   2.813   1.267   4.451  0.0305  0.0437 -0.1070
 8946W        W24840  14.636   4.982  12.086  0.1538  0.0446 -0.0646
 8947W        W24841  15.144  11.232   0.908  0.1160  0.3125  0.0506
 8948W        W24842  16.731   4.722  15.998 -0.1947 -0.0502  0.0603
 8949W        W24843   4.954  15.852  15.880  0.2066  0.1300  0.1972
 8950W        W24844   8.350   9.544   1.395  0.0024 -0.1293  0.0020
 8951W        W24845   9.921  17.002   1.276 -0.0523 -0.0015  0.0094
 8952W        W24846  15.016   6.234   2.721 -0.0508  0.2230 -0.0199
 8953W        W24847  12.264  11.128  12.399 -0.0330  0.1318  0.0501
 8954W        W24848  13.498   9.381  12.738 -0.0451  0.0041 -0.1191
 8955W        W24849  16.621  11.464  16.686  0.0955  0.0868  0.0252
 8956W        W24850   1.703  10.471  12.484 -0.3774  0.0369  0.4707
 8957W        W24851   1.817   1.312  17.260  0.1933  0.3959 -0.2224
 8958W        W24852   0.589   6.648   5.891 -0.0647  0.3716 -0.1231
 8959W        W24853  10.446   0.743  15.614  0.0154  0.0554 -0.1012
 8960W        W24854  14.948   5.941   4.584  0.2148  0.2252 -0.2261
 8961W        W24855  11.451   1.786  16.634 -0.1040  0.1700  0.0021
 8962W        W24856   6.262  10.217   2.607  0.4137 -0.0042 -0.1948
 8963W        W24857   6.957   3.789   0.698 -0.0318  0.1077  0.1785
 8964W        W24858  11.007   7.432  16.194  0.1313  0.1584  0.2243
 8965W        W24859   0.848   2.500  16.538 -0.2513  0.0752 -0.2846
 8966W        W24860   4.648   4.460   3.082  0.1033  0.2490  0.1316
 8967W        W24861  16.601  16.196  11.172  0.1727 -0.3305 -0.1115
 8968W        W24862   3.325   8.075   4.711 -0.0454 -0.0724 -0.2192
 8969W        W24863   5.649   7.419   4.217 -0.1478 -0.0395 -0.3987
 8970W        W24864   8.763   7.382   3.684  0.2415  0.5088  0.2360
 8971W        W24865  12.430   5.683   3.201  0.0251  0.0679  0.0196
 8972W        W24866  15.660   8.508  14.810  0.0552 -0.0630 -0.0967
 8973W        W24867  12.114   4.812  16.578 -0.0900 -0.1566  0.1405
 8974W        W24868  17.097  14.226  14.357  0.3565 -0.0199  0.1246
 8975W        W24869  11.558   4.017   0.012  0.1282  0.1023  0.0026
 8976W        W24870  15.828  14.711  14.413  0.2230 -0.1951  0.1729
 8977W        W24871   6.035   6.325  16.855  0.0099  0.1173 -0.0249
 8978W        W24872   6.558   9.515   4.357  0.1661 -0.0308 -0.0969
 8979W        W24873  16.695  12.393  13.201  0.0650 -0.2371 -0.0992
 8980W        W24874   7.865   0.409   3.137 -0.0724 -0.1062 -0.1187
 8981W        W24875  13.203  13.493  11.936  0.1346 -0.2871 -0.1363
 8982W        W24876   0.181  11.369   3.572  0.1614 -0.1805  0.0343
 8983W        W24877   3.600   3.867  17.286 -0.0961  0.3539 -0.2442
 8984W        W24878   6.774   8.353  13.338  0.2772  0.1431  0.0033
 8985W        W24879   4.316   5.497   3.978 -0.0037  0.4616 -0.2810
 8986W        W24880  14.242  10.610  13.236  0.1723  0.1266  0.2895
 8987W        W24881  11.574   1.637  12.229 -0.1746 -0.2056  0.2654
 8988W        W24882  12.623  11.768  16.849  0.0033  0.0452 -0.1129
 8989W        W24883  13.734   2.138   5.247  0.0571  0.1956  0.0575
 8990W        W24884  11.554  11.732   1.131  0.1911  0.2021  0.1125
 8991W        W24885  15.516   0.655  11.810  0.0191  0.0360 -0.3575
 8992W        W24886  13.772   3.550  11.530 -0.3897  0.0629 -0.2066
 8993W        W24887   4.382  12.823  15.237 -0.1064  0.3563 -0.0909
 8994W        W24888  11.755  11.277   2.167  0.2250 -0.2455  0.2333
 8995W        W24889   8.871   2.353   3.747  0.0637 -0.0291 -0.0716
 8996W        W24890  15.050  12.330   5.342  0.2223  0.1862  0.1187
 8997W        W24891   4.875  11.644   1.282  0.1453 -0.0151 -0.0273
 8998W        W24892   8.047  17.321   2.381  0.0851 -0.0143 -0.0062
 8999W        W24893  12.043  11.546   1.887 -0.1539  0.1523  0.0150
 9000W        W24894  13.787   5.197   2.401 -0.1289  0.4230 -0.0299
 9001W        W24895  12.986  11.714  17.212 -0.2876 -0.2447 -0.0744
 9002W        W24896   0.155  14.920  16.532  0.2747  0.2548 -0.1713
 9003W        W24897   7.131   1.669   1.475 -0.1513  0.2217  0.0091
 9004W        W24898  10.852  17.576  15.552  0.1236  0.0572  0.0587
 9005W        W24899  11.718   3.118   5.413  0.3178 -0.0551  0.1419
 9006W        W24900  15.356   2.402  14.699 -0.1229 -0.2539 -0.1552
 9007W        W24901  12.653  16.796  11.843  0.0252  0.1427 -0.1896
 9008W        W24902   2.972   6.818  13.985  0.2821  0.0642  0.0158
 9009W        W24903   6.839   0.146  14.496 -0.0638 -0.1320 -0.2006
 9010W        W24904   6.528   2.539   2.276 -0.0400  0.2405  0.1014
 9011W        W24905  16.618  11.844   0.972 -0.1743  0.1897  0.1949
 9012W        W24906   3.948   9.654  14.347  0.0167  0.2840 -0.1118
 9013W        W24907   3.587   6.076  16.979  0.1339  0.0361  0.1327
 9014W        W24908  10.463   5.161  14.484  0.1607 -0.4013  0.2027
 9015W        W24909   5.583  11.839   3.357 -0.1860  0.2256  0.0500
 9016W        W24910   6.763   3.359   3.635 -0.1707  0.0483 -0.0047
 9017W        W24911  11.487  16.845   5.433 -0.1250  0.3819  0.0618
 9018W        W24912  13.892  12.908   5.456 -0.0802  0.3071  0.2443
 9019W        W24913   1.001   1.120  16.747 -0.1108  0.2078 -0.2772
 9020W        W24914   3.331   4.903   5.947  0.0696  0.2350 -0.1635
 9021W        W24915  13.241  12.897  15.675  0.1125 -0.0047  0.0383
 9022W        W24916   6.845   4.924   2.067  0.2368 -0.3465 -0.3105
 9023W        W24917   2.387  16.486   2.848  0.1825 -0.1997 -0.0625
 9024W        W24918   1.587  14.880  15.800 -0.1278 -0.0094  0.0575
 9025W        W24919  12.769   3.550  13.286  0.1991 -0.2213  0.2555
 9026W        W24920   5.645   3.329  16.014 -0.0964 -0.1789 -0.2992
 9027W        W24921  12.774   2.805   5.318 -0.0084 -0.0297  0.2526
 9028W        W24922   8.842  14.473  15.303  0.0847  0.1927 -0.0728
 9029W        W24923   4.011  10.086   5.315 -0.3599 -0.1032 -0.1569
 9030W        W24924  15.432   7.012  17.002  0.0750 -0.2202 -0.0543
 9031W        W24925  13.742   3.788   5.295  0.1313 -0.0654  0.1529
 9032W        W24926   4.642  10.774   3.361  0.0786 -0.2691  0.0450
 9033W        W24927  12.245   2.180  12.521  0.2207  0.1960 -0.0387
 9034W        W24928  17.007  17.176   5.932 -0.0918  0.1009 -0.0915
 9035W        W24929   6.862  13.811  12.199 -0.3304  0.1263 -0.0344
 9036W        W24930   1.289  15.640   0.489 -0.0852  0.2061 -0.0414
 9037W        W24931  13.430   8.809   5.010  0.1041  0.0789 -0.1499
 9038W        W24932   2.899  13.387  16.765  0.0927  0.0565  0.0052
 9039W        W24933   9.898  11.537  12.537 -0.0096 -0.0181 -0.1037
 9040W        W24934   6.373   7.212  16.365 -0.1394 -0.0604  0.0047
 9041W        W24935   3.703   4.671   5.665  0.2318  0.0427 -0.1269
 9042W        W24936  13.643   5.413  15.368 -0.0714  0.0933  0.2257
 9043W        W24937  11.310   6.315   4.300  0.0287 -0.2023 -0.4455
 9044W        W24938  15.832  14.171   2.399  0.2127  0.1329  0.0888
 9045W        W24939  17.514   6.374   1.483 -0.1758  0.0609 -0.0613
 9046W        W24940  12.514  13.869   0.551 -0.2051 -0.1765  0.1914
 9047W        W24941   6.653  16.414  13.997  0.0267 -0.0170 -0.0624
 9048W        W24942  12.420   8.882  16.590 -0.0422 -0.0031 -0.2617
 9049W        W24943  12.666  14.081   4.756 -0.2621 -0.2020  0.5229
 9050W        W24944   2.411   8.765   0.348  0.0477  0.1337 -0.0734
 9051W        W24945   2.690   2.818  16.915 -0.1284 -0.0972 -0.1385
 9052W        W24946   5.287   0.617   1.569 -0.0831  0.1541 -0.1903
 9053W        W24947  16.015  11.992  11.956 -0.0689 -0.1892 -0.0134
 9054W        W24948   6.925  11.969   0.137 -0.1128 -0.5226  0.1941
 9055W        W24949   2.414   5.270   1.457  0.1745 -0.3406  0.0774
 9056W        W24950  15.205   0.700   4.288 -0.0178 -0.0768 -0.3042
 9057W        W24951  11.306   7.929  16.860  0.0738 -0.1474 -0.1432
 9058W        W24952   0.694   5.582  12.590  0.0487 -0.0592 -0.0954
 9059W        W24953   0.082  13.489  14.074 -0.3455 -0.0645 -0.0211
 9060W        W24954   5.991  13.527   0.253  0.1211 -0.1278  0.0128
 9061W        W24955   7.742   9.599  15.316  0.0154  0.0993  0.0824
 9062W        W24956   6.440  13.028   0.759  0.0113 -0.1013 -0.2340
 9063W        W24957   5.756   7.132  13.584 -0.1424  0.3780 -0.2200
 9064W        W24958  10.383  14.542   0.819  0.1330  0.0732  0.1120
 9065W        W24959  10.142  16.155   1.330  0.0584 -0.0188 -0.1722
 9066W        W24960   3.508  13.701   0.921 -0.2616 -0.2233  0.0304
 9067W        W24961   9.792  14.261  16.952  0.0493  0.4304 -0.0141
 9068W        W24962   5.311   3.116  15.608 -0.1561 -0.0163  0.2133
 9069W        W24963   4.118   9.952  13.034 -0.1209 -0.1101 -0.1030
 9070W        W24964  11.282   1.891   1.913 -0.2172  0.1983 -0.2158
 9071W        W24965  13.216  12.947  16.943  0.0458  0.0132  0.0233
 9072W        W24966  15.547  15.936   0.949  0.0957 -0.0851 -0.3887
 9073W        W24967   6.313  12.696  14.939  0.1399  0.1269  0.2625
 9074W        W24968   8.952   4.470  12.515 -0.2382 -0.0780 -0.2190
 9075W        W24969  13.011   5.054   0.080  0.2762 -0.0633  0.0091
 9076W        W24970  14.580   4.381   4.920 -0.1412 -0.1523 -0.0772
 9077W        W24971   9.979  14.992   4.925 -0.0494  0.1194 -0.1865
 9078W        W24972   9.811   7.425   2.538  0.3619 -0.2596  0.3230
 9079W        W24973  13.829  15.378  17.125 -0.5024  0.1289 -0.0003
 9080W        W24974   4.706   7.470   6.335  0.0905  0.1671 -0.3981
 9081W        W24975   2.560   6.531  13.108  0.0829 -0.2996  0.1520
 9082W        W24976   8.623  10.436  16.872 -0.1352 -0.0540 -0.1515
 9083W        W24977   1.280   7.093  17.188  0.1901  0.0347 -0.1113
 9084W        W24978  16.209  10.250  16.799 -0.0568  0.0434  0.0825
 9085W        W24979  15.227   8.719  15.593 -0.3527 -0.1601  0.1718
 9086W        W24980  15.256   2.263  12.350  0.1684 -0.1319  0.0529
 9087W        W24981   6.775   8.553   4.128 -0.1045  0.4527  0.2753
 9088W        W24982   6.859   5.732  13.573 -0.4096 -0.0652  0.0405
 9089W        W24983   2.407  10.696   0.518  0.1550  0.1360  0.0099
 9090W        W24984   9.828  10.994   5.993 -0.0268  0.0736  0.1098
 9091W        W24985   0.886   9.336   3.291  0.1760  0.1309 -0.1983
 9092W        W24986   9.552   1.739   4.169 -0.0602  0.3726 -0.0794
 9093W        W24987  11.589   8.078  14.109 -0.1621 -0.1387 -0.2042
 9094W        W24988  16.140  17.276   1.413 -0.1958  0.0396  0.0021
 9095W        W24989   0.311   7.769  14.126 -0.1171 -0.2523 -0.0850
 9096W        W24990  11.847   7.699  16.254 -0.0682  0.0119  0.1022
 9097W        W24991  13.807   3.162   1.466 -0.1496 -0.0190  0.0185
 9098W        W24992   0.594  13.289   3.172  0.0895 -0.0893 -0.0312
 9099W        W24993  10.878  17.240   0.464 -0.2587  0.1707  0.0450
 9100W        W24994   4.616   0.101   3.394 -0.1532 -0.0657  0.1437
 9101W        W24995  16.902   5.223  12.580 -0.0099 -0.1425 -0.0737
 9102W        W24996   6.929  14.084  12.978  0.1146 -0.2336  0.0134
 9103W        W24997   2.310  10.373   3.433 -0.1559 -0.2001 -0.1889
 9104W        W24998   1.803  16.058   2.220 -0.2700  0.0125  0.0930
 9105W        W24999   5.028  13.279  14.480 -0.3669 -0.1125 -0.2698
 9106W        W25000  17.459   5.156   4.651 -0.0344  0.0571 -0.2942
 9107W        W25001   5.238   6.969  13.268  0.0657 -0.1839  0.0031
 9108W        W25002   1.535  10.049   1.643 -0.1173  0.1089  0.0175
 9109W        W25003   9.431  14.415  12.337 -0.0783  0.2230  0.0822
 9110W        W25004   1.148   3.498   3.272 -0.2365  0.1526 -0.1302
 9111W        W25005   3.678   5.807   4.162 -0.2751  0.2416  0.1851
 9112W        W25006  12.477   7.870   5.123  0.0897  0.0162  0.3239
 9113W        W25007  11.306   5.805  10.696 -0.2786  0.0940 -0.1367
 9114W        W25008  15.419   4.188   5.137 -0.0808 -0.3358 -0.2479
 9115W        W25009  15.051   2.569   0.471  0.1229 -0.0152 -0.0466
 9116W        W25010   4.443   8.032   2.829  0.1258 -0.1513 -0.1510
 9117W        W25011   1.590  12.045  12.709  0.0200 -0.1868 -0.0530
 9118W        W25012  12.635  12.189  13.828 -0.0180  0.2451  0.1294
 9119W        W25013   5.430   1.043  13.322 -0.1381  0.0446 -0.0199
 9120W        W25014   1.325  12.230   0.097 -0.0429 -0.3259 -0.2518
 9121W        W25015  15.467  12.731   3.187 -0.0380  0.0729 -0.0280
 9122W        W25016   9.575  16.771   0.076  0.1028  0.1162 -0.0626
 9123W        W25017  13.817   0.647  14.214 -0.0883  0.2286 -0.1509
 9124W        W25018   7.295   1.183   3.535  0.0188  0.2156  0.1921
 9125W        W25019   6.455   4.348  14.890 -0.0311 -0.1624  0.2509
 9126W        W25020   4.763  11.922  13.289  0.0671 -0.1408  0.0114
 9127W        W25021  16.292  17.487   5.022  0.0901  0.1913 -0.1962
 9128W        W25022   4.891   9.401   0.492 -0.0593  0.0706  0.0753
 9129W        W25023  11.740  15.668   1.088  0.2279 -0.0576  0.2761
 9130W        W25024  16.343  10.175   3.550  0.0925 -0.4975  0.0953
 9131W        W25025  12.637   3.610   5.927 -0.1006  0.1497  0.2125
 9132W        W25026   8.747  15.819  15.923  0.0818  0.2768 -0.2171
 9133W        W25027   1.028  12.855   1.362  0.0789  0.0108 -0.2743
 9134W        W25028  10.925   7.924  16.491 -0.0172  0.2685 -0.0637
 9135W        W25029   0.236   8.945  13.737 -0.0614 -0.0410 -0.0315
 9136W        W25030  16.591   2.001  15.609  0.1385  0.1147 -0.0022
 9137W        W25031  17.041  15.485  14.380  0.0181  0.2428 -0.1424
 9138W        W25032  14.000  15.733   0.671  0.1921  0.0768  0.0572
 9139W        W25033   5.110   5.707   1.239 -0.1484  0.1555 -0.2057
 9140W        W25034   4.905   7.487   1.203  0.0497 -0.3014  0.0019
 9141W        W25035   7.263  12.235   2.209 -0.0266 -0.2672 -0.0695
 9142W        W25036  12.713   5.815   2.720 -0.1416  0.1031  0.1313
 9143W        W25037  10.298  11.605   4.266  0.0970  0.1363  0.2952
 9144W        W25038   9.124   5.239  11.427 -0.0281  0.4132 -0.3342
 9145W        W25039   9.635   1.592  13.198 -0.1222 -0.0987  0.2018
 9146W        W25040   1.574  16.165   2.667  0.1368 -0.0971 -0.0645
 9147W        W25041   8.932   6.875   4.051 -0.3126 -0.2286  0.2260
 9148W        W25042   3.463   3.047  14.523  0.1814 -0.2543  0.0116
 9149W        W25043   7.973   4.645   1.319  0.1019 -0.0942 -0.2891
 9150W        W25044   1.367   5.209   5.033  0.0202 -0.0805 -0.0128
 9151W        W25045  13.191  15.275   4.965  0.1560 -0.0656 -0.2395
 9152W        W25046  16.939   1.265   3.668  0.0276  0.2477 -0.0139
 9153W        W25047   1.744  10.919   0.049  0.0051  0.2170  0.0224
 9154W        W25048   4.184   0.510  12.731 -0.2243  0.1543 -0.0657
 9155W        W25049   7.814   6.752   0.313  0.1785 -0.1555  0.0980
 9156W        W25050  11.574  16.829   2.619  0.1876  0.1837  0.1866
 9157W        W25051  12.645   1.234  14.312  0.2281 -0.0170 -0.0349
 9158W        W25052   9.918   9.034   4.677  0.0191 -0.1916 -0.3097
 9159W        W25053   4.120   0.884  14.455 -0.1771  0.2395 -0.0476
 9160W        W25054  17.060  17.607  14.787 -0.1169 -0.1513 -0.1388
 9161W        W25055   8.668   6.635   5.385 -0.0718 -0.0738 -0.1791
 9162W        W25056  13.539   1.870   2.900  0.0270  0.1959  0.2090
 9163W        W25057  13.627   2.415   3.873  0.0961  0.2685  0.0821
 9164W        W25058   8.625   8.382   0.629  0.1336 -0.0928  0.0959
 9165W        W25059   6.379  13.398  16.170  0.0905  0.4331 -0.1000
 9166W        W25060  16.311   1.651  15.076  0.2783 -0.1816 -0.2249
 9167W        W25061   4.529  11.404   5.726  0.2462  0.2086  0.0472
 9168W        W25062  16.131   1.672   1.488 -0.1660 -0.1411  0.1303
 9169W        W25063   3.163   5.592  13.977 -0.1382  0.1719 -0.2784
 9170W        W25064  17.228   4.018  14.137 -0.0827 -0.0260 -0.1848
 9171W        W25065  13.394  14.975   3.872 -0.4417  0.2304 -0.4151
 9172W        W25066  15.137   0.490  14.540  0.0263  0.0193 -0.1516
 9173W        W25067  16.661  14.565   5.356  0.2884 -0.2525  0.0633
 9174W        W25068   9.370   7.900   5.115  0.1903 -0.1792  0.1478
 9175W        W25069  14.655  10.754  13.909 -0.1622  0.2343  0.0830
 9176W        W25070   0.926   0.101  16.527 -0.0360 -0.0436  0.2937
 9177W        W25071   9.662   1.850   5.561 -0.2077 -0.1031 -0.2707
 9178W        W25072   3.224  10.146   2.764 -0.0890  0.2313  0.2164
 9179W        W25073   7.334  16.029   0.442 -0.1202 -0.0777 -0.2036
 9180W        W25074   3.811   3.331   3.775  0.3166 -0.2550 -0.3084
 9181W        W25075   6.972  14.786   0.500 -0.2037 -0.2575 -0.0747
 9182W        W25076   1.745   1.248   5.048  0.3507  0.1420 -0.0373
 9183W        W25077   6.351  13.400  14.306 -0.1262 -0.0562  0.1315
 9184W        W25078  10.569  11.484  16.487  0.0020  0.0568  0.3095
 9185W        W25079   2.318   2.060   3.482  0.2888 -0.1840 -0.1325
 9186W        W25080  12.206   1.880  15.080 -0.1324 -0.1776 -0.1085
 9187W        W25081   9.696  16.706  12.418 -0.1509 -0.0891 -0.2316
 9188W        W25082  15.871   7.663  13.713  0.0377  0.1869  0.1077
 9189W        W25083   7.718   6.382  16.124 -0.1428 -0.2659  0.1183
 9190W        W25084   4.949   0.114   1.767  0.2715 -0.0775 -0.1084
 9191W        W25085   1.981   3.328  15.863 -0.1289 -0.0629 -0.1750
 9192W        W25086   3.949  16.096   0.737 -0.1530 -0.1358  0.1772
 9193W        W25087  14.142   3.132   4.005 -0.4001  0.1981  0.1002
 9194W        W25088  13.386   3.893   3.054  0.2096 -0.0776  0.1118
 9195W        W25089  15.081  10.927  14.226 -0.0935  0.1206 -0.3608
 9196W        W25090   2.630   4.973  16.130  0.3463 -0.3001  0.2583
 9197W        W25091  12.829   4.400  12.392  0.2072  0.0323 -0.0244
 9198W        W25092   0.580  14.808  14.064 -0.3070  0.0571 -0.0227
 9199W        W25093  11.570   0.227  12.175 -0.0921  0.2357 -0.1387
 9200W        W25094   5.114   1.642  15.575  0.0551  0.0426  0.2702
 9201W        W25095  11.488   9.981  14.868 -0.0632 -0.1736 -0.1196
 9202W        W25096   9.877  17.326   1.634  0.2648 -0.2484 -0.2239
 9203W        W25097   8.668   7.126   1.802  0.1936 -0.0470 -0.0172
 9204W        W25098   9.686  12.854   1.104 -0.3781 -0.0264  0.2641
 9205W        W25099   0.216   7.883  15.161  0.2919 -0.3009  0.1291
 9206W        W25100   3.015   5.277  16.174 -0.1705 -0.1108 -0.0265
 9207W        W25101  13.247   2.921   0.257 -0.0597  0.2045  0.0302
 9208W        W25102   5.491   8.211  15.331 -0.2090 -0.0165 -0.2560
 9209W        W25103   6.293  16.382   1.502  0.1247 -0.1082 -0.1218
 9210W        W25104  17.155  13.215   0.445  0.0866  0.0274 -0.1122
 9211W        W25105   4.180  12.243  15.226 -0.0283  0.1216 -0.0112
 9212W        W25106  13.236  14.166  17.276  0.1900  0.1421 -0.2790
 9213W        W25107  12.456  15.446  15.696  0.1986 -0.1536 -0.0229
 9214W        W25108   6.815   1.803  15.434  0.0534  0.3090  0.2152
 9215W        W25109   0.513  13.957   4.461  0.1068  0.0731  0.0873
 9216W        W25110   1.586  13.263  12.326 -0.0272 -0.2334  0.0837
 9217W        W25111   8.414   0.051  16.497 -0.0485 -0.3752 -0.1106
 9218W        W25112   4.583  16.889  16.596 -0.1027  0.0898 -0.0701
 9219W        W25113   2.529   0.963   1.886  0.0641  0.0251 -0.0583
 9220W        W25114   2.619  12.541  17.107  0.3168  0.1428 -0.1010
 9221W        W25115  12.384   8.065   3.934  0.0256 -0.2987  0.1013
 9222W        W25116  12.410  11.120   5.456 -0.0740 -0.2473  0.1098
 9223W        W25117  10.763  17.370   5.335 -0.0398  0.2485  0.2203
 9224W        W25118   5.885  12.057  13.924 -0.1480 -0.0098  0.0614
 9225W        W25119   9.155  16.309  13.301  0.0346  0.0588 -0.1386
 9226W        W25120   0.121   1.062  16.962  0.2105  0.2219 -0.2989
 9227W        W25121   9.880   6.499   2.964 -0.2101  0.2129  0.2068
 9228W        W25122   6.433  11.966   2.774 -0.2936  0.0222 -0.0656
 9229W        W25123  16.798   2.676   5.546  0.0447  0.0170 -0.1362
 9230W        W25124   6.320   3.463   1.972 -0.0579  0.0159  0.0708
 9231W        W25125  16.397   4.103   2.427  0.1753 -0.0391 -0.0701
 9232W        W25126  13.168   6.941   3.607 -0.4586 -0.0299  0.5251
 9233W        W25127   5.872   6.448  14.342  0.3228  0.2128 -0.1854
 9234W        W25128   5.451   5.296   0.492  0.3076  0.5412 -0.0776
 9235W        W25129   6.004   1.001  13.435 -0.0652  0.1211  0.0377
 9236W        W25130   1.412   7.553  14.437 -0.0571 -0.1533  0.0139
 9237W        W25131  15.065  10.326  14.865  0.1001 -0.0436 -0.0029
 9238W        W25132   1.890   6.383  15.784  0.1852  0.2901  0.2978
 9239W        W25133   1.877   3.542  17.009  0.1652  0.1025 -0.0265
 9240W        W25134  10.587  17.032  16.389  0.1625  0.2001  0.1535
 9241W        W25135  13.686   0.173  12.946  0.0340  0.1501  0.0868
 9242W        W25136  15.805  17.268   3.758  0.4031  0.0642  0.0293
 9243W        W25137   1.174   6.713   4.603 -0.0063 -0.1916  0.0295
 9244W        W25138   3.051   0.134   1.783 -0.1140  0.2875 -0.3422
 9245W        W25139   9.939  14.436  13.857  0.2821  0.2967 -0.0215
 9246W        W25140  12.706  15.824  16.811 -0.0439  0.0509 -0.1701
 9247W        W25141  10.660  16.019   2.939  0.1974  0.1494  0.0055
 9248W        W25142  13.860   2.007  15.540 -0.0294  0.0528  0.2038
 9249W        W25143  15.129   5.117  10.950  0.0192 -0.2557 -0.0153
 9250W        W25144  13.543  12.448   6.177 -0.0673 -0.2832  0.1878
 9251W        W25145   7.986   5.797  15.218 -0.0267 -0.1064  0.0065
 9252W        W25146   0.521  14.767  10.962  0.1528  0.1490  0.0698
 9253W        W25147  11.811  17.062  12.295 -0.0114  0.1840  0.1997
 9254W        W25148  17.427  11.196  12.134  0.2123  0.3849  0.1354
 9255W        W25149  12.726  13.732   5.523 -0.0440 -0.1546  0.0442
 9256W        W25150  14.379   2.965   2.871 -0.1429  0.4458 -0.3483
 9257W        W25151  12.127   2.778  14.532 -0.1329  0.0259 -0.0720
 9258W        W25152   2.762   7.204   1.027 -0.0832  0.2339  0.0125
 9259W        W25153   5.400  12.386   3.380 -0.2946 -0.1775 -0.0737
 9260W        W25154   7.645  11.408   4.384  0.0500  0.2675 -0.1807
 9261W        W25155   7.536   8.692   0.631 -0.0154  0.0377 -0.1158
 9262W        W25156  15.003   0.319   4.540 -0.0343  0.0439 -0.0057
 9263W        W25157  14.104   5.630   5.075  0.3392  0.0251 -0.0656
 9264W        W25158  15.316   6.265   4.424  0.0823 -0.2251 -0.0288
 9265W        W25159  12.468  11.266  13.726  0.2844  0.0138 -0.1169
 9266W        W25160   6.023   7.560  17.024  0.1396  0.3182  0.0218
 9267W        W25161   9.537  10.013   2.573 -0.2389  0.2727 -0.0440
 9268W        W25162   3.360  10.465  14.012 -0.1499  0.1661  0.4180
 9269W        W25163  13.090   8.954   3.381 -0.1379 -0.0398 -0.0606
 9270W        W25164   1.065   8.831   2.126  0.2574 -0.2099 -0.0417
 9271W        W25165   7.818   3.143   3.966  0.3615 -0.3689 -0.0329
 9272W        W25166  10.782  11.346   0.807 -0.0038 -0.0102  0.2690
 9273W        W25167   9.391   4.449  14.575  0.1182  0.0505 -0.1886
 9274W        W25168   0.556   8.376   6.351 -0.0563  0.0840  0.1423
 9275W        W25169   5.310  13.269   3.653 -0.1078  0.1229 -0.0771
 9276W        W25170   4.344   0.928  15.680 -0.0239 -0.1425  0.0647
 9277W        W25171   4.195   4.094   0.724  0.3004 -0.0241 -0.0222
 9278W        W25172  10.533   9.251  13.453  0.3720 -0.3281  0.1040
 9279W        W25173   5.336   9.350  12.959 -0.0625 -0.0895  0.0499
 9280W        W25174   5.030   0.376   2.190 -0.0596 -0.1032 -0.3188
 9281W        W25175  12.402  16.945   4.061 -0.0297  0.1199 -0.0033
 9282W        W25176   9.636   6.934   2.149 -0.2886 -0.0223 -0.3028
 9283W        W25177  13.332   4.623  12.671  0.0777 -0.2417 -0.1058
 9284W        W25178   6.445   0.768  12.454 -0.1909  0.2236 -0.2293
 9285W        W25179   4.663  16.421   6.507  0.1357 -0.1435  0.0055
 9286W        W25180   4.455  11.196  16.670  0.2196 -0.3581  0.1156
 9287W        W25181   4.051   6.597  14.503 -0.0291 -0.0537 -0.1569
 9288W        W25182  16.880   2.952  11.985  0.1378 -0.1335  0.1104
 9289W        W25183   0.946   0.088  15.958 -0.1890  0.1566  0.2493
 9290W        W25184   0.914  13.251   5.650  0.4576  0.0248 -0.0464
 9291W        W25185  11.740  13.577   0.601  0.0325  0.1693  0.1403
 9292W        W25186  13.335   6.318  16.174  0.2450  0.0748 -0.0515
 9293W        W25187   7.682  12.408  13.875 -0.0445 -0.1962 -0.2037
 9294W        W25188   7.770  10.916  15.178 -0.3303 -0.1965  0.1051
 9295W        W25189   3.740  16.373   3.195  0.1063 -0.0776 -0.2285
 9296W        W25190  15.615  15.005   5.124 -0.3450 -0.0768  0.1889
 9297W        W25191  10.580   6.753  14.549 -0.1242  0.1787  0.1619
 9298W        W25192  11.461  16.411  14.535  0.3098 -0.2149 -0.0203
 9299W        W25193  16.770   1.696  14.823  0.2278 -0.1653  0.0726
 9300W        W25194  16.111  10.494   5.845  0.2154  0.0546 -0.2492
 9301W        W25195  15.344  15.295  13.212  0.0182  0.0664 -0.0637
 9302W        W25196  13.015   2.429  15.844  0.1438 -0.2108 -0.1444
 9303W        W25197   0.284   6.370   1.931 -0.1358  0.0300  0.1985
 9304W        W25198  11.196  11.166   5.451  0.0985  0.2803  0.0900
 9305W        W25199  13.705  13.026  12.189 -0.0214  0.1863 -0.2229
 9306W        W25200   9.834  13.651  17.267 -0.0455 -0.3619  0.1669
 9307W        W25201  10.892   3.230   3.712  0.0719 -0.3832  0.0414
 9308W        W25202  11.944   6.978  11.644  0.0828 -0.0323 -0.0215
 9309W        W25203   6.869  14.195  12.519 -0.0452  0.1018 -0.1357
 9310W        W25204  13.676   4.184   0.134 -0.3250  0.0139  0.0883
 9311W        W25205   9.811   9.111   5.155  0.3709 -0.1399 -0.0570
 9312W        W25206   9.573  17.499  15.048  0.3708  0.0074 -0.1789
 9313W        W25207  12.172   4.705  14.107  0.2049  0.1662  0.0737
 9314W        W25208   7.621  16.162   3.827  0.2153  0.1727 -0.0253
 9315W        W25209   0.604   5.236   6.179  0.0112  0.2922 -0.2620
 9316W        W25210  17.005  10.495  16.477 -0.1500  0.0705  0.1627
 9317W        W25211   0.772   2.643   1.769  0.0192 -0.2727 -0.1504
 9318W        W25212  15.582   4.989   1.684  0.0992  0.3655  0.0154
 9319W        W25213   8.771  10.861  14.335 -0.0396 -0.0703 -0.0685
 9320W        W25214  10.543   5.291  16.156  0.0745 -0.3038 -0.1868
 9321W        W25215   6.563   8.662  12.398  0.2256  0.1751 -0.0669
 9322W        W25216   4.819  14.335  14.008 -0.2609  0.0470  0.0608
 9323W        W25217  15.537   2.108   6.202  0.0093  0.1574 -0.0901
 9324W        W25218   3.233  11.749  14.498  0.1823 -0.1111 -0.0506
 9325W        W25219   5.352   8.201   1.137  0.0269 -0.0777 -0.0493
 9326W        W25220   7.419   0.087   0.577 -0.0648  0.1341  0.0068
 9327W        W25221   6.713   3.393   2.602 -0.0804 -0.0417  0.1563
 9328W        W25222   8.157  13.348  13.111  0.1285 -0.0625 -0.0013
 9329W        W25223  10.552   7.001   1.750  0.1662  0.1282 -0.0348
 9330W        W25224  13.373  15.277  11.725  0.0667 -0.0675 -0.0035
 9331W        W25225   1.932  17.480   2.983 -0.1551  0.0201 -0.0199
 9332W        W25226   5.531  15.728   5.899 -0.1090  0.2176 -0.2361
 9333W        W25227   7.326   4.323  16.923  0.2328 -0.3505  0.1841
 9334W        W25228   6.753   3.934  14.187 -0.0066 -0.2310 -0.0040
 9335W        W25229   9.315  12.716  14.903 -0.1611  0.1337  0.2456
 9336W        W25230   8.684   6.233  16.400  0.0897  0.3623  0.0339
 9337W        W25231  16.003   4.764  12.570  0.0486 -0.0479  0.2763
 9338W        W25232   3.942   2.063  13.110 -0.0668  0.0664 -0.1593
 9339W        W25233  13.182  13.995   4.831 -0.0779  0.1162 -0.1002
 9340W        W25234  17.489   3.871  15.398 -0.2251  0.0770 -0.0414
 9341W        W25235  10.806  12.348  13.252 -0.0617 -0.1159 -0.0194
 9342W        W25236  11.259   9.995  14.377  0.0433  0.1594 -0.0135
 9343W        W25237  12.634   3.500   6.433 -0.1705  0.1515  0.0126
 9344W        W25238  14.140  10.228  16.267 -0.0107  0.2416 -0.0807
 9345W        W25239   2.395   3.654  12.880  0.0234  0.0356 -0.0874
 9346W        W25240   0.572   9.028   3.602  0.0138 -0.0673 -0.2727
 9347W        W25241   4.838   9.559  13.260  0.1922  0.0398  0.1800
 9348W        W25242   7.309  12.232   6.157 -0.1677  0.1787 -0.2632
 9349W        W25243  15.677   0.288  12.861  0.0268  0.2083  0.1044
 9350W        W25244  17.507   9.733  14.134 -0.1432  0.0028  0.1077
 9351W        W25245  11.220   3.741   1.188  0.0252 -0.0248 -0.1346
 9352W        W25246   2.397  11.096  12.311  0.0395  0.4789  0.1078
 9353W        W25247  13.994   9.815   6.435 -0.0524 -0.0341 -0.1849
 9354W        W25248   2.655   1.919  14.493 -0.0091  0.1851 -0.1422
 9355W        W25249  14.604  16.195   1.013 -0.0584 -0.0228  0.4273
 9356W        W25250   4.343   2.216   6.872  0.2824  0.0441 -0.2350
 9357W        W25251  14.372   6.322  13.006  0.3171  0.3535  0.2665
 9358W        W25252   5.510   0.978  13.826 -0.0918 -0.0030 -0.1927
 9359W        W25253   0.864   9.554   1.029  0.3726 -0.0673  0.0949
 9360W        W25254  15.124  14.177   1.489  0.1314  0.1048  0.1135
 9361W        W25255   1.122  13.022   1.898  0.0986 -0.1153  0.1550
 9362W        W25256  15.597   7.908  12.906 -0.1521  0.0412 -0.1320
 9363W        W25257   5.694  10.754   1.566  0.0763  0.0860 -0.0342
 9364W        W25258   3.628  14.461   5.804  0.0531  0.0460 -0.0299
 9365W        W25259  16.006   9.387  17.033 -0.1737 -0.4208 -0.1022
 9366W        W25260   5.432  16.023   5.480 -0.1830 -0.0358 -0.1804
 9367W        W25261   8.341   6.239  15.861  0.0342  0.0623 -0.2381
 9368W        W25262  16.187  14.981   1.300 -0.2069 -0.0496 -0.1357
 9369W        W25263   5.199   2.623   3.657 -0.0916 -0.0700  0.1635
 9370W        W25264   9.688  14.188   0.954 -0.3304  0.1991  0.1070
 9371W        W25265   3.213  15.793   1.420  0.0176 -0.0529  0.0206
 9372W        W25266   3.244   8.308   1.428  0.0619  0.0128  0.0140
 9373W        W25267   1.772  15.373  14.531 -0.1531 -0.0603  0.0145
 9374W        W25268  12.918  14.072  14.490  0.0859  0.3672 -0.0673
 9375W        W25269   3.120  11.355  17.215  0.1727 -0.1627  0.1922
 9376W        W25270   7.611  16.904   2.366  0.0270 -0.3036 -0.1026
 9377W        W25271   9.355   6.657  13.143  0.1125 -0.3449 -0.0661
 9378W        W25272   3.687   4.587  13.954  0.0356 -0.2811 -0.2027
 9379W        W25273  15.666  11.618  14.098 -0.0435 -0.0071  0.1928
 9380W        W25274  15.185  14.681   0.200  0.1158  0.1277  0.2677
 9381W        W25275   0.918   1.029   0.413 -0.3788  0.4445 -0.2540
 9382W        W25276   2.220   0.522  13.068 -0.1485  0.3797 -0.0255
 9383W        W25277  17.317  15.595   5.671  0.1481  0.2471  0.3077
 9384W        W25278  12.691  16.692  16.635  0.1216 -0.0339 -0.1843
 9385W        W25279  11.749   3.295  16.637 -0.2434  0.1072 -0.0450
 9386W        W25280   8.665  15.767  15.255  0.0385  0.2146  0.0851
 9387W        W25281   7.887   3.682  16.572  0.0985 -0.1857  0.0792
 9388W        W25282  12.305   3.524  13.174 -0.0901 -0.0629  0.0809
 9389W        W25283  10.125  15.573   4.420  0.0897  0.1914  0.0744
 9390W        W25284   3.490  15.960  14.830 -0.0520 -0.3814 -0.1273
 9391W        W25285  12.305   3.809  14.573  0.0034 -0.0764  0.1544
 9392W        W25286   1.679  11.044   3.666  0.0999 -0.3253 -0.0002
 9393W        W25287  10.875  13.163  13.422 -0.0154 -0.0106  0.1904
 9394W        W25288  13.450   9.894   5.134 -0.0776 -0.5650 -0.0303
 9395W        W25289   9.118  10.350  16.722 -0.1453  0.0818  0.2296
 9396W        W25290  13.210   0.050   1.620 -0.2394 -0.0695  0.0515
 9397W        W25291   4.919   9.410   1.084  0.0109  0.0818  0.0061
 9398W        W25292   3.897  13.977   5.649 -0.3239  0.0068 -0.3986
 9399W        W25293  10.453   2.247   1.478 -0.1474  0.0872 -0.1391
 9400W        W25294  14.382  13.987   4.214  0.0283 -0.3153  0.0590
 9401W        W25295   7.145   3.540   4.635 -0.0605 -0.0074 -0.6303
 9402W        W25296   2.186  13.085  12.918 -0.1128  0.0952 -0.0908
 9403W        W25297   2.288  14.796   4.538  0.2743  0.3161  0.1365
 9404W        W25298  12.139   6.062  17.112 -0.2899 -0.1256 -0.0410
 9405W        W25299   3.347  15.925  13.531 -0.0441 -0.3033 -0.1819
 9406W        W25300  11.966   4.246  14.366 -0.3972  0.1930  0.0599
 9407W        W25301   0.491  16.451   2.064  0.3423 -0.1923  0.3938
 9408W        W25302  14.950  10.411   3.278 -0.0378 -0.0451  0.1895
 9409W        W25303   0.526   0.029  12.344 -0.4658  0.1904 -0.0403
 9410W        W25304   3.541   7.675   0.143 -0.1093 -0.0105  0.0185
 9411W        W25305   8.287  10.971  16.244 -0.1853 -0.1973  0.0174
 9412W        W25306  15.035  11.397   5.172  0.0027  0.0448  0.0916
 9413W        W25307   5.222   8.448  12.060  0.0885  0.1499  0.3130
 9414W        W25308  14.294  17.126  12.767  0.0633 -0.3873 -0.2700
 9415W        W25309  15.143   7.980  14.824  0.0647  0.2602  0.1085
 9416W        W25310  14.927   6.292  13.515  0.1456  0.1280  0.0437
 9417W        W25311   6.255   1.869  15.215  0.1541  0.0209 -0.2197
 9418W        W25312   9.827   0.137  12.676  0.0379  0.0822  0.0529
 9419W        W25313  16.581   7.850  17.031  0.2237  0.1580  0.2010
 9420W        W25314   4.280  11.708  15.459 -0.3873 -0.3906 -0.0693
 9421W        W25315   9.789  15.094  13.874 -0.3108 -0.1695 -0.3405
 9422W        W25316  10.246   1.489  14.004  0.1233  0.0095 -0.0562
 9423W        W25317   7.829   0.994  15.292  0.1511 -0.1133  0.1484
 9424W        W25318   2.629   0.282  16.949 -0.1992 -0.0239 -0.3526
 9425W        W25319  13.829   2.854  12.650 -0.1201  0.1424 -0.0740
 9426W        W25320   3.112   7.500   0.636  0.0737 -0.2048  0.1007
 9427W        W25321  11.184   3.935   0.305 -0.1883 -0.2118 -0.1393
 9428W        W25322  10.560   5.134  15.684  0.2877 -0.1433  0.2728
 9429W        W25323  17.445  17.091   4.806  0.2555  0.2063 -0.1869
 9430W        W25324   0.432  10.454   1.928  0.0668  0.3514 -0.0055
 9431W        W25325  15.761   7.603   4.675  0.0276 -0.2574 -0.1666
 9432W        W25326   7.882  15.851   1.109  0.2524  0.0617 -0.0541
 9433W        W25327   3.978   1.410  14.353  0.1170  0.3880  0.1196
 9434W        W25328  13.597   1.307  16.646 -0.0574  0.0620  0.1286
 9435W        W25329   2.042   8.054   5.487 -0.0988 -0.2547 -0.2844
 9436W        W25330  13.093   6.350  11.753 -0.0657  0.2616  0.0787
 9437W        W25331  17.051   9.124  16.191  0.1034  0.0884 -0.1060
 9438W        W25332   4.419  12.420   4.687  0.2647 -0.2638 -0.0449
 9439W        W25333   7.097   0.746   1.856  0.1911 -0.0552  0.0995
 9440W        W25334  16.476   9.037   3.260  0.2598  0.1440  0.0395
 9441W        W25335   7.112   5.545   3.428  0.2478  0.0306  0.0256
 9442W        W25336  11.147   2.554   3.119 -0.1450 -0.0162  0.2598
 9443W        W25337   9.045  13.793   5.908  0.1251 -0.0625 -0.2775
 9444W        W25338   6.356  12.449  14.460  0.1343 -0.2498  0.0562
 9445W        W25339   6.128   8.498   3.500  0.0345 -0.0951 -0.0821
 9446W        W25340   5.370   0.012   4.637  0.2411  0.1387  0.0299
 9447W        W25341  16.627   1.722   0.176 -0.2196  0.1320  0.0469
 9448W        W25342   5.863   8.036  16.725  0.0344  0.1564 -0.2857
 9449W        W25343   8.421   7.848   1.864 -0.3023  0.1519 -0.0683
 9450W        W25344   9.590  14.413   5.977 -0.2076 -0.0234 -0.1637
 9451W        W25345   8.924  11.567   0.597 -0.3305  0.3363 -0.3299
 9452W        W25346   6.155  11.471   3.091 -0.0928  0.1539  0.1218
 9453W        W25347  10.831  16.122  12.707  0.1197  0.1630  0.2174
 9454W        W25348   5.461   6.653  11.585  0.0167  0.0003  0.0714
 9455W        W25349   1.776  12.273   4.838  0.1264 -0.0981 -0.1709
 9456W        W25350   3.489   1.788   2.812 -0.1086  0.0249 -0.3175
 9457W        W25351  12.942  12.558  15.361 -0.4293  0.1804 -0.0238
 9458W        W25352   6.473   7.456  16.796 -0.2682 -0.4219 -0.0593
 9459W        W25353  17.108   3.262  13.260 -0.0644  0.0453 -0.0604
 9460W        W25354  11.837  12.215   4.933  0.0847  0.1954  0.0537
 9461W        W25355  16.861   9.716  16.676 -0.3083  0.0551 -0.2288
 9462W        W25356   7.503  10.993  16.161  0.2530 -0.2853  0.0644
 9463W        W25357  12.220   5.547   0.192  0.1406 -0.0409  0.0169
 9464W        W25358  10.122   8.405   0.638 -0.3059  0.0427  0.2378
 9465W        W25359   3.522   8.320   2.343 -0.1534  0.0785 -0.4017
 9466W        W25360   0.842  17.440  13.207 -0.2319  0.3501 -0.1065
 9467W        W25361   3.194   1.242  17.066 -0.1900  0.2347  0.0774
 9468W        W25362  13.719  13.267   3.107 -0.0301  0.1084  0.0832
 9469W        W25363   8.136   9.840   5.628  0.0543  0.2794 -0.1536
 9470W        W25364   5.726  17.094   3.557 -0.2287 -0.0723  0.0972
 9471W        W25365   5.169   8.703   1.919  0.0236 -0.2161  0.1442
 9472W        W25366   4.115  11.603   3.661 -0.1493  0.0333 -0.0875
 9473W        W25367   0.438   5.153   0.846 -0.2349  0.1287 -0.0065
 9474W        W25368   7.653  17.259  15.342  0.0196 -0.1398  0.1615
 9475W        W25369  10.476   8.416  17.156  0.2057 -0.2653  0.4101
 9476W        W25370  10.309  13.436  16.880 -0.0605  0.2424 -0.0704
 9477W        W25371  13.197  15.947  14.514 -0.2733 -0.4161 -0.1991
 9478W        W25372   1.344   3.516   0.191  0.1512 -0.0976 -0.1104
 9479W        W25373   4.162   4.512  12.753 -0.1249 -0.1716 -0.0083
 9480W        W25374   4.596  14.702  16.999 -0.3131  0.0727 -0.0658
 9481W        W25375  11.015   9.738   2.332 -0.0411 -0.0222 -0.2889
 9482W        W25376   1.300   4.387  14.042 -0.1233 -0.0466 -0.0013
 9483W        W25377   8.946   8.602  14.772 -0.0857  0.0394  0.0182
 9484W        W25378  10.645  17.000  15.159 -0.3094 -0.0281 -0.4344
 9485W        W25379  10.666  17.519  16.980  0.1448  0.3651  0.2286
 9486W        W25380   0.004  14.723   2.122  0.1791  0.4500 -0.2965
 9487W        W25381   0.682   3.335   6.007  0.1012  0.1618  0.0954
 9488W        W25382  14.903   6.717  14.814 -0.2510 -0.0334 -0.1385
 9489W        W25383   9.077   6.858  15.014  0.0181 -0.0590  0.1323
 9490W        W25384  16.411  17.510  13.958 -0.0462 -0.2041  0.2406
 9491W        W25385  12.115  14.744   0.193  0.1266 -0.0493  0.1417
 9492W        W25386   1.292   6.032  14.159  0.3809 -0.1171 -0.0571
 9493W        W25387  12.613  15.314   0.518 -0.0490 -0.6336 -0.2496
 9494W        W25388   0.520   0.786  14.675 -0.1535 -0.1516  0.0297
 9495W        W25389   2.178   5.644  13.796  0.0670 -0.0562  0.0299
 9496W        W25390  16.688   0.024   0.139 -0.0776  0.1527  0.1673
 9497W        W25391   1.708  13.236   2.879  0.4791 -0.1504 -0.0623
 9498W        W25392  11.098  13.366   3.462 -0.1921 -0.1290  0.3005
 9499W        W25393   5.169   1.070   0.040 -0.0314 -0.4486 -0.0499
 9500W        W25394   0.206  17.400  13.896 -0.2418 -0.0638  0.2180
 9501W        W25395   0.771   4.746   6.349  0.1904  0.2426  0.1013
 9502W        W25396   2.434   4.172   4.064 -0.1017 -0.2092  0.0612
 9503W        W25397  15.276  14.072  12.360  0.0332 -0.0229 -0.0961
 9504W        W25398   3.855  13.761   4.476  0.0051 -0.1631  0.2840
 9505W        W25399   3.358   5.626   1.617 -0.3303  0.0255 -0.5025
 9506W        W25400  14.058   4.277  15.376 -0.1168  0.4078 -0.0721
 9507W        W25401   8.167  15.532  12.356 -0.0441  0.0622 -0.1055
 9508W        W25402  14.844  15.535   0.500 -0.0190 -0.0501  0.0369
 9509W        W25403  16.103   1.751   0.110  0.0902  0.2121  0.0055
 9510W        W25404   3.912   8.053   3.031 -0.0110  0.1989 -0.1647
 9511W        W25405  14.734  17.474  12.057  0.0420 -0.0288  0.0279
 9512W        W25406   4.994   0.297  13.278 -0.1414 -0.3323  0.0923
 9513W        W25407   9.105  14.868   5.262  0.0263 -0.2359  0.0307
 9514W        W25408   7.094  12.245  15.295  0.4625  0.0284 -0.0089
 9515W        W25409  17.097  11.280  14.398 -0.1214 -0.1588  0.1741
 9516W        W25410  12.921  10.852   5.507  0.1818  0.1575 -0.2383
 9517W        W25411  16.473  12.133  15.069  0.2069  0.0368  0.0746
 9518W        W25412   4.936  10.918  13.988  0.0031  0.0604 -0.0798
 9519W        W25413   0.274   5.053  14.142  0.0757 -0.0030  0.1850
 9520W        W25414   8.018  14.471   0.021  0.0839 -0.0843 -0.0820
 9521W        W25415  15.846  15.443  14.781 -0.1280 -0.0805  0.3593
 9522W        W25416   0.614   5.174   3.954  0.2752  0.1182 -0.1303
 9523W        W25417   0.906   7.805  14.846 -0.1728  0.0235  0.0231
 9524W        W25418  10.362  16.364  12.541  0.1356  0.0662 -0.0730
 9525W        W25419   4.901  17.344  15.389 -0.1754  0.2756 -0.2833
 9526W        W25420   0.340   7.858  13.348 -0.2727  0.2390  0.3137
 9527W        W25421  14.373   5.862  14.957  0.0432 -0.1264  0.1801
 9528W        W25422   2.892   2.855  15.682  0.0000  0.3835  0.2289
 9529W        W25423   8.571  15.817   1.864 -0.1871  0.2017  0.0858
 9530W        W25424   4.128   5.155   2.621 -0.4111  0.1238 -0.0549
 9531W        W25425   3.966   8.377  14.280  0.1689 -0.0868  0.0835
 9532W        W25426   8.421  13.744   1.174  0.0813 -0.0290  0.0649
 9533W        W25427  12.417   1.502  14.740  0.0308  0.1907  0.0968
 9534W        W25428   4.759   3.132   0.491  0.2649  0.3618  0.0991
 9535W        W25429  10.034   3.084  15.296 -0.1241  0.2676 -0.5517
 9536W        W25430   3.018  10.423  13.551  0.1409 -0.0551  0.1108
 9537W        W25431   6.530   7.749   3.513 -0.0377  0.1409  0.0060
 9538W        W25432  15.221   4.011  13.997  0.1084 -0.0294 -0.2063
 9539W        W25433  17.249   9.217   1.694 -0.1343 -0.3273  0.2639
 9540W        W25434   8.122  14.587  12.667 -0.1056 -0.1083 -0.0701
 9541W        W25435   3.614   7.041   1.340  0.0644  0.0404 -0.0794
 9542W        W25436  11.152   2.806   3.591  0.0202  0.0365  0.1740
 9543W        W25437   2.608   1.352   2.934 -0.1629 -0.3873  0.0657
 9544W        W25438   6.678   1.836  14.947 -0.1394  0.0275  0.2149
 9545W        W25439   9.786  11.913  11.173 -0.2036  0.1041 -0.0504
 9546W        W25440   4.847   8.729   2.307 -0.0745  0.1738  0.3176
 9547W        W25441   7.629   7.760   6.622 -0.1385  0.0272 -0.1483
 9548W        W25442  14.224   9.916  17.231 -0.1529 -0.0245 -0.2284
 9549W        W25443  12.641  15.208   1.859  0.1386 -0.0116  0.0280
 9550W        W25444   0.585   8.086  16.502 -0.0787 -0.0699  0.0101
 9551W        W25445  10.741   3.310  14.560  0.0858 -0.1201  0.2842
 9552W        W25446  10.068   5.843   1.996 -0.0994 -0.1083  0.1887
 9553W        W25447  12.764   2.399  17.012 -0.0706  0.1903 -0.0554
 9554W        W25448  16.336  13.886  16.261  0.2467 -0.0270  0.2069
 9555W        W25449  12.336  10.961   5.001 -0.0248  0.1567 -0.1495
 9556W        W25450  15.380   3.045  15.898  0.1555  0.0653 -0.1346
 9557W        W25451   2.532   5.210  16.951 -0.1930 -0.0342 -0.0990
 9558W        W25452   6.091  14.876  12.552 -0.0992 -0.1158 -0.4927
 9559W        W25453   2.679  11.978   1.203  0.2930 -0.1678 -0.0398
 9560W        W25454   3.547   6.549   5.356 -0.1830  0.1900  0.0125
 9561W        W25455  14.814   3.825  12.258 -0.0927 -0.1826 -0.0630
 9562W        W25456  15.293   4.652   3.834 -0.0641  0.1794 -0.2152
 9563W        W25457   2.407  10.843  13.103  0.1939 -0.0481 -0.1428
 9564W        W25458   3.709   0.871  15.626 -0.2466  0.1446 -0.1763
 9565W        W25459   3.037   4.817  15.833  0.1664 -0.1159 -0.1088
 9566W        W25460  16.698  14.708  14.907 -0.0274 -0.0648  0.2352
 9567W        W25461  12.665   2.036  13.519 -0.0062 -0.3045 -0.0767
 9568W        W25462  15.624   8.009   3.572  0.2593  0.2524  0.0014
 9569W        W25463   4.013   4.090   0.247 -0.0160 -0.1718  0.0094
 9570W        W25464  17.251   9.631   1.460 -0.2603  0.4329  0.0834
 9571W        W25465  10.082   7.106  11.820  0.3046 -0.0803 -0.0257
 9572W        W25466   4.341   3.764   0.007 -0.1915  0.1203  0.2151
 9573W        W25467  12.280   7.606   1.239 -0.1099  0.1485  0.3458
 9574W        W25468   8.218  16.045   4.464  0.1187 -0.3101  0.2095
 9575W        W25469  11.157  12.490   3.502  0.1902  0.0968 -0.0631
 9576W        W25470  13.155   4.085   2.167 -0.2051 -0.1172  0.1035
 9577W        W25471   2.595  12.413   0.659  0.2859  0.0330  0.0172
 9578W        W25472  17.218  13.218  15.395 -0.1270 -0.2210  0.0782
 9579W        W25473  13.329  11.630   1.628  0.0583 -0.0035  0.1168
 9580W        W25474   7.938   5.523  12.539 -0.0910 -0.0370 -0.1853
 9581W        W25475  17.031  11.275  15.801  0.0826 -0.1926 -0.0079
 9582W        W25476   8.545   3.762   0.158  0.1383 -0.2393  0.1793
 9583W        W25477   2.054   4.253   6.014  0.1792  0.3220 -0.4091
 9584W        W25478   6.186  10.075  12.144 -0.1382  0.0386 -0.2559
 9585W        W25479   9.461   5.956  12.930 -0.2022 -0.0975 -0.3827
 9586W        W25480   1.796   5.899   0.975 -0.0902 -0.1034 -0.0004
 9587W        W25481   4.729   6.954  12.960  0.1315  0.0679  0.3173
 9588W        W25482   3.413  13.726  13.381  0.1854  0.0012  0.1088
 9589W        W25483  12.463  15.779   4.681 -0.0270 -0.0814 -0.0874
 9590W        W25484   5.040  17.013  16.317  0.1798  0.0517 -0.0339
 9591W        W25485  10.700   5.814   4.923  0.2268 -0.2106  0.1360
 9592W        W25486  15.628   6.623  12.673  0.0392 -0.1511 -0.0036
 9593W        W25487   8.230  14.097   5.959  0.1338 -0.2226  0.2985
 9594W        W25488  15.752   3.944   2.509 -0.1417 -0.0306  0.3169
 9595W        W25489  16.953   5.730  12.486  0.0045  0.2665 -0.1010
 9596W        W25490   6.710  14.619   2.027  0.1871 -0.0785 -0.0730
 9597W        W25491   3.686   3.595  11.653  0.0887  0.0598  0.0746
 9598W        W25492   9.220  13.515   1.545  0.1854  0.1129  0.0691
 9599W        W25493   8.388   1.641  14.698 -0.4043  0.0074 -0.1288
 9600W        W25494   9.161   4.039   0.907 -0.0225 -0.1801  0.2070
 9601W        W25495   2.837  13.372   0.003  0.0021 -0.0073  0.2002
 9602W        W25496  10.031   9.116   0.100  0.1936  0.2861 -0.0700
 9603W        W25497   9.937   3.541   1.386 -0.0542  0.1847  0.3557
 9604W        W25498  15.857   6.730   2.559  0.1096  0.0060 -0.0193
 9605W        W25499  13.377   4.714  17.283  0.0259  0.3200 -0.1694
 9606W        W25500  13.518   2.414  13.442  0.1254 -0.0883 -0.0966
 9607W        W25501   1.487  13.112  15.673  0.0347 -0.0273 -0.0253
 9608W        W25502  13.372   2.892   6.018  0.0272 -0.2228  0.0737
 9609W        W25503   4.880  15.126   2.761  0.0483 -0.0380 -0.2773
 9610W        W25504   6.260   9.508  12.127 -0.0140  0.0955  0.3864
 9611W        W25505  16.781   9.505   3.037 -0.2410  0.2198  0.3094
 9612W        W25506  17.568  17.028  16.720  0.2289  0.0463  0.0135
 9613W        W25507  17.371   7.610   1.884 -0.1301 -0.2053 -0.0132
 9614W        W25508  10.703   7.709  14.532  0.1286 -0.1974  0.0520
 9615W        W25509  12.162   3.324  15.872  0.0978  0.1200 -0.0429
 9616W        W25510   4.780  14.623  13.187  0.0938  0.0593 -0.3302
 9617W        W25511  17.517   6.239  15.455  0.0552  0.2141 -0.0758
 9618W        W25512  14.710   6.189   5.174 -0.0937  0.0674  0.1380
 9619W        W25513  10.943   5.303   1.082 -0.1807  0.0932 -0.3218
 9620W        W25514  17.067   1.220  16.268 -0.2563 -0.0104  0.0612
 9621W        W25515  16.289   8.017   5.442 -0.1347  0.0398 -0.0108
 9622W        W25516   0.306   0.481   1.298 -0.1834 -0.0166  0.1134
 9623W        W25517   3.329  14.519   2.115  0.0392 -0.0842  0.1522
 9624W        W25518   5.396   0.315  12.585  0.1745  0.0855 -0.0008
 9625W        W25519   7.535  13.091  11.554 -0.1811 -0.1240 -0.0980
 9626W        W25520   3.353   2.742  14.944  0.1075 -0.2416 -0.0299
 9627W        W25521   0.524  13.287  12.611 -0.2651 -0.1098 -0.0293
 9628W        W25522  13.526   1.874  16.843  0.1145 -0.2052  0.1695
 9629W        W25523  17.399  16.261  12.294 -0.1164  0.1000 -0.0198
 9630W        W25524   1.110  14.168   0.570  0.1427  0.0282  0.0093
 9631W        W25525  17.006  10.424   6.074 -0.0360  0.1128 -0.0221
 9632W        W25526   0.490   4.819  15.857 -0.0945  0.0144 -0.1310
 9633W        W25527   2.103   8.009   2.646  0.0720 -0.1919 -0.2885
 9634W        W25528   3.818  12.778  12.660 -0.2469 -0.4327  0.0987
 9635W        W25529   3.120   6.380  16.989 -0.0178 -0.0473 -0.4009
 9636W        W25530   7.620   3.596   3.220  0.0302 -0.0770 -0.0023
 9637W        W25531  15.166  16.451  15.376 -0.2225  0.2949  0.0849
 9638W        W25532   9.573   8.682  16.637  0.1961  0.2015  0.0182
 9639W        W25533  17.492   1.221   3.497 -0.2501  0.1032 -0.2654
 9640W        W25534   7.308  13.092  15.709 -0.0167 -0.0053 -0.1778
 9641W        W25535   2.490   0.266  15.396  0.0167 -0.4222  0.1672
 9642W        W25536  12.975   2.883   4.756  0.1981  0.1322  0.1702
 9643W        W25537  10.810   7.208   3.057  0.1338 -0.2089 -0.2099
 9644W        W25538  13.441  14.970  12.270  0.1041  0.0235 -0.2531
 9645W        W25539  14.206   0.705   6.305 -0.2107 -0.4674  0.2483
 9646W        W25540   2.735  10.110   5.632  0.1169  0.1040  0.0770
 9647W        W25541  14.223   2.397  14.818  0.0344 -0.1065  0.0133
 9648W        W25542   9.897  16.159   5.036 -0.2655  0.2558  0.1263
 9649W        W25543  10.377  14.763  15.531  0.0591  0.4500  0.0600
 9650W        W25544   8.675  11.520   4.360  0.1167  0.1692  0.2404
 9651W        W25545  11.556   7.862  12.691 -0.0783  0.0771 -0.1470
 9652W        W25546   1.868   0.514  15.814 -0.3916 -0.3694 -0.1264
 9653W        W25547   4.344   7.885  14.838  0.0204 -0.0513 -0.0824
 9654W        W25548  16.631   5.755   0.001  0.1598  0.0369 -0.0031
 9655W        W25549   5.700   9.893   3.840 -0.5486 -0.1069  0.1309
 9656W        W25550   2.380   7.755  12.650  0.4223 -0.1983  0.0096
 9657W        W25551   6.298  10.058   5.641  0.0896 -0.1395 -0.1965
 9658W        W25552  11.268  14.904   1.647 -0.3091 -0.1428 -0.0497
 9659W        W25553  14.946   7.767   2.429 -0.3453 -0.0151 -0.2628
 9660W        W25554   1.841   9.045  14.402  0.2413  0.1866 -0.0012
 9661W        W25555   0.029   4.628  16.139 -0.1626 -0.1470 -0.0329
 9662W        W25556   2.016   9.880   1.645 -0.3067  0.0385 -0.4945
 9663W        W25557  16.250   8.336   3.455  0.1185 -0.0070  0.3858
 9664W        W25558  10.337  12.866   0.225  0.3466 -0.1289 -0.0808
 9665W        W25559  13.685   0.720   5.457 -0.0095  0.0363  0.0396
 9666W        W25560   4.955   7.951  16.271  0.0755  0.5126  0.0363
 9667W        W25561  13.244  16.886  13.436  0.0468 -0.3805 -0.0628
 9668W        W25562  15.847  10.923  13.488 -0.0611  0.0761 -0.2196
 9669W        W25563   6.365   0.483  12.025  0.0281 -0.1091 -0.2578
 9670W        W25564   2.337   9.437   4.261 -0.1815  0.2303  0.2990
 9671W        W25565  13.190  14.766   2.556  0.1898  0.0370 -0.3086
 9672W        W25566   8.751   9.008  12.905  0.1308 -0.1053  0.3392
 9673W        W25567   4.685  11.949  12.741  0.1235  0.0622 -0.3014
 9674W        W25568  14.035  11.513   2.096 -0.0818  0.1497 -0.2088
 9675W        W25569   1.676  13.292  15.122 -0.0195 -0.0326 -0.0411
 9676W        W25570  15.747  12.144  14.273  0.0309 -0.3322  0.0876
 9677W        W25571   1.614   8.292  15.937  0.3101  0.1251  0.4239
 9678W        W25572  13.376   7.252   1.824  0.2282 -0.3559  0.1327
 9679W        W25573   9.998   3.709   5.142  0.3125  0.3904  0.0427
 9680W        W25574   7.199   2.417  13.587 -0.1169  0.2504  0.1455
 9681W        W25575  15.925   0.099   4.259 -0.0606  0.5261  0.2843
 9682W        W25576  15.756  17.216   4.287 -0.1845  0.0897  0.0044
 9683W        W25577  16.012   5.067   2.664 -0.2979 -0.3524  0.0173
 9684W        W25578   1.357  14.221   3.909  0.0295 -0.1069 -0.1008
 9685W        W25579   4.181  14.970  16.137 -0.1865  0.1133 -0.1983
 9686W        W25580   7.804  12.616  16.281 -0.1699 -0.4536  0.2623
 9687W        W25581  15.705   6.724  16.778  0.0605  0.1384  0.3433
 9688W        W25582   7.229   3.568  13.442  0.0525 -0.1395  0.1235
 9689W        W25583   6.172  12.826   6.093 -0.0103  0.2711 -0.0143
 9690W        W25584  14.907   2.592  17.145 -0.1059  0.0772 -0.3081
 9691W        W25585   7.503   6.141   4.996 -0.2633  0.1813  0.0062
 9692W        W25586  13.252  10.454  17.172  0.1238 -0.0279 -0.0010
 9693W        W25587  12.147   2.382  16.116 -0.0033 -0.2580  0.2728
 9694W        W25588  12.153   3.184   2.602 -0.0585  0.2501  0.0100
 9695W        W25589  15.795  10.854  15.884 -0.2607  0.1391 -0.0956
 9696W        W25590   7.716   3.112  16.487 -0.3750 -0.4430  0.0776
 9697W        W25591  16.832   2.728   3.040  0.2143 -0.0621 -0.2426
 9698W        W25592   1.854  14.697   6.095 -0.0312 -0.2820  0.4701
 9699W        W25593   4.813   6.445   0.843  0.1935 -0.0182 -0.0058
 9700W        W25594   0.244  15.713   4.916  0.1312 -0.0029  0.0446
 9701W        W25595   1.157  14.741   2.008 -0.0126 -0.3939  0.1249
 9702W        W25596   2.408  16.145  13.095  0.0942  0.0613  0.1032
 9703W        W25597  15.979  11.051  12.082  0.0138  0.1406  0.1075
 9704W        W25598  14.158   9.312   5.063 -0.3154 -0.1000  0.3282
 9705W        W25599  10.122   6.947  14.429 -0.2049 -0.3335  0.0920
 9706W        W25600   2.428   3.465   1.550  0.0440  0.0319 -0.0704
 9707W        W25601   8.429   4.688  17.033 -0.0422  0.0116  0.2142
 9708W        W25602   4.715  14.347   1.770  0.1485  0.0836  0.2065
 9709W        W25603  17.211  11.556   0.094 -0.1791 -0.1602  0.2078
 9710W        W25604   5.083   8.802   3.222  0.1475  0.1753 -0.0348
 9711W        W25605   5.722   1.585   1.034 -0.0219  0.2935 -0.1164
 9712W        W25606   8.925   7.023   4.705 -0.1689 -0.0686  0.0338
 9713W        W25607   1.320  10.230   4.614 -0.0365 -0.1474  0.0914
 9714W        W25608  17.328  14.952  13.739  0.1208  0.0833  0.0643
 9715W        W25609   7.425   1.680   3.528  0.1700 -0.4743  0.2019
 9716W        W25610   1.862  17.364  13.676  0.1592 -0.0453  0.1994
 9717W        W25611   6.941  11.278   0.860  0.1032  0.2179  0.0675
 9718W        W25612   4.329   7.203  16.182  0.1933  0.2877 -0.3330
 9719W        W25613   0.467  13.334  12.129  0.1730  0.1538  0.0204
 9720W        W25614   7.138  16.898   4.476  0.0760 -0.3904  0.0904
 9721W        W25615   0.168   9.029  12.744  0.1611 -0.0986  0.0715
 9722W        W25616  14.904   8.277   2.879 -0.1809 -0.2744  0.2796
 9723W        W25617  11.052   1.286  12.889 -0.2590  0.0831  0.1451
 9724W        W25618  11.287  13.661  16.196 -0.1952 -0.1835  0.0699
 9725W        W25619  16.416   2.468  14.698 -0.0263 -0.1465  0.0393
 9726W        W25620   0.050   0.757   3.910 -0.1771  0.0838  0.2269
 9727W        W25621  16.543  16.313  11.685 -0.2508  0.2520  0.3898
 9728W        W25622   6.164  14.181  12.467 -0.2322  0.0346 -0.0519
 9729W        W25623  15.460   0.715  12.756 -0.0450  0.0472  0.0673
 9730W        W25624   6.877  11.817   0.974 -0.2401  0.2532 -0.3605
 9731W        W25625  12.062  12.014  14.595 -0.0344 -0.0853  0.1517
 9732W        W25626   0.526  10.982   0.563 -0.1616  0.1695 -0.1429
 9733W        W25627   0.293  13.752  15.592 -0.0341 -0.1862 -0.0133
 9734W        W25628   6.032   8.888  14.977 -0.0721  0.1410 -0.1436
 9735W        W25629  14.899  16.986   4.273 -0.1068 -0.0921 -0.0443
 9736W        W25630   3.049   7.807   6.986  0.1408 -0.0085  0.0852
 9737W        W25631  11.061  10.296   5.726  0.1298 -0.2214 -0.1393
 9738W        W25632   7.879   0.933   4.877  0.0369  0.2029 -0.2215
 9739W        W25633  16.537  15.066   5.344 -0.1579  0.0537  0.2096
 9740W        W25634   1.774  13.437  16.046  0.2575 -0.1136  0.0969
 9741W        W25635  13.928  15.260   0.748  0.0410 -0.2801  0.1004
 9742W        W25636   1.970   5.688   6.077 -0.0531 -0.2393  0.0612
 9743W        W25637  16.212   2.479  12.811  0.0515 -0.2746 -0.0568
 9744W        W25638   3.858   4.242  15.233 -0.1738 -0.1996 -0.0160
 9745W        W25639   7.219  16.283  13.939 -0.0755 -0.0834 -0.0167
 9746W        W25640   8.533   4.725  12.328 -0.0233 -0.0958 -0.1752
 9747W        W25641  17.043   8.431   2.350 -0.1509 -0.1251  0.2924
 9748W        W25642   2.735   1.471  12.630  0.0434 -0.0928  0.0251
 9749W        W25643   6.154   4.922  16.358 -0.0600 -0.2288  0.1236
 9750W        W25644   5.676  17.374  11.864 -0.1475  0.1343 -0.1627
 9751W        W25645  13.894  14.918   0.404  0.0791 -0.3368 -0.1120
 9752W        W25646   9.806   5.565   0.381 -0.0699  0.3594 -0.1160
 9753W        W25647  17.068  11.028   2.519 -0.2269  0.0541 -0.1535
 9754W        W25648   2.548  12.813  11.555  0.0665 -0.0898 -0.2316
 9755W        W25649   0.760  17.393  14.920 -0.0758  0.0253 -0.0058
 9756W        W25650   5.756   5.949   3.508  0.2021 -0.1516  0.0015
 9757W        W25651   8.346  15.073   4.736  0.1570 -0.1724  0.1551
 9758W        W25652   0.709  13.597   4.197  0.2771 -0.3294  0.3958
 9759W        W25653   5.307   6.364  11.969 -0.0403  0.2152 -0.1083
 9760W        W25654   1.898   6.947   4.391 -0.0038 -0.1033 -0.0786
 9761W        W25655  10.338   4.102   3.957 -0.0184 -0.0543 -0.2250
 9762W        W25656  15.659  13.756   4.984  0.3097 -0.1781  0.1942
 9763W        W25657   5.985  12.676   4.108 -0.1570  0.0716 -0.0462
 9764W        W25658   0.843   2.816   5.478 -0.1756 -0.0626  0.1506
 9765W        W25659  17.184  11.755  13.982 -0.0597 -0.1117  0.3638
 9766W        W25660   3.154  12.747   5.644 -0.1934  0.1340  0.0333
 9767W        W25661  14.356  14.509  14.669 -0.0837  0.1275 -0.3190
 9768W        W25662  11.244   7.656  14.101  0.0913  0.1550 -0.0698
 9769W        W25663   3.425   7.468   1.624 -0.2755 -0.0759  0.1577
 9770W        W25664   3.723   0.555   6.289 -0.3153 -0.3496  0.0719
 9771W        W25665  16.960   1.065   5.796  0.0044  0.1695 -0.0738
 9772W        W25666  14.269   9.955   1.944 -0.1830 -0.0420  0.4431
 9773W        W25667   4.030  10.418  15.447  0.2076  0.1441 -0.0886
 9774W        W25668  11.679  12.751   6.239  0.0033 -0.0114  0.1462
 9775W        W25669  12.231  14.434   2.400 -0.0850 -0.0531 -0.0267
 9776W        W25670   5.881  15.573  16.715 -0.0595  0.2180  0.1944
 9777W        W25671  17.491   9.308   3.502  0.4516 -0.2511  0.2870
 9778W        W25672   2.866   2.826   0.356 -0.0011  0.2883 -0.0769
 9779W        W25673  11.124   4.228  16.026 -0.0893  0.0492  0.1911
 9780W        W25674  16.185   2.926  15.344  0.1496  0.1676 -0.0269
 9781W        W25675  10.203   4.016  16.442 -0.0277  0.0498  0.0179
 9782W        W25676  13.822   7.170   2.036  0.2273 -0.2251  0.1968
 9783W        W25677  16.344   6.016  14.329  0.1424  0.2224 -0.3470
 9784W        W25678  10.209  15.821   5.690 -0.0226 -0.0367  0.1328
 9785W        W25679  12.035  11.393  13.939 -0.2430  0.2564  0.0084
 9786W        W25680   0.019  15.206  14.973  0.0638 -0.0647 -0.2080
 9787W        W25681  14.570   1.578  12.561 -0.2060  0.1836  0.0662
 9788W        W25682   6.466   0.270   2.239 -0.1308  0.4227 -0.2560
 9789W        W25683   1.283   7.582   0.446 -0.1475 -0.1280  0.1185
 9790W        W25684   1.833   9.024   4.439 -0.0921 -0.1785 -0.3352
 9791W        W25685   3.603  10.951   1.768 -0.1497 -0.0309  0.0264
 9792W        W25686   0.583   6.870   5.411  0.0181  0.0870 -0.1073
 9793W        W25687  12.553  10.689   0.421  0.0258  0.0270  0.0652
 9794W        W25688  12.074   7.951  14.431  0.0001  0.0344  0.1347
 9795W        W25689   4.950   8.688   5.302  0.1641 -0.1178  0.0867
 9796W        W25690   6.978   2.965   2.310  0.2693 -0.3006 -0.0354
 9797W        W25691   4.648   5.969   0.718  0.0817 -0.0207 -0.2096
 9798W        W25692   5.843   4.727   2.446  0.1528  0.0180  0.0813
 9799W        W25693  14.372   3.024   5.743  0.1255 -0.1032 -0.0684
 9800W        W25694   3.696   1.343  11.880  0.2492 -0.1501 -0.2753
 9801W        W25695   3.177   3.408  14.174  0.0332  0.0423  0.3010
 9802W        W25696   9.143  13.121   2.313  0.1998 -0.0871  0.0967
 9803W        W25697  11.849  14.917  12.730 -0.0919  0.1420  0.2135
 9804W        W25698   9.534   2.940   5.580 -0.0996 -0.0038  0.0276
 9805W        W25699  11.998  15.847   0.168 -0.1082  0.1258  0.0228
 9806W        W25700  16.812   7.429   2.938  0.0504 -0.0201 -0.0305
 9807W        W25701  11.449  16.809   4.959  0.0610  0.0129 -0.0310
 9808W        W25702   6.992  16.404  16.334  0.2877 -0.0499  0.0694
 9809W        W25703  14.429   2.533  15.238  0.0745 -0.1509 -0.0902
 9810W        W25704   8.396   5.713   1.590 -0.0618 -0.0087 -0.1610
 9811W        W25705   7.418   5.737   2.029  0.1854  0.1392 -0.0950
 9812W        W25706  14.318  12.094   0.615 -0.1950 -0.3483  0.2773
 9813W        W25707   4.403  10.722  13.529 -0.0037 -0.2239 -0.2011
 9814W        W25708  14.245   5.750  13.108  0.1269  0.0680  0.0061
 9815W        W25709   0.316   5.147   4.941  0.1351 -0.0790 -0.1150
 9816W        W25710   4.324   4.085   5.146 -0.0011  0.2013  0.1317
 9817W        W25711  10.789   1.159   2.863  0.0659 -0.1298 -0.1378
 9818W        W25712   8.344  12.811  11.774 -0.3725  0.2134 -0.0600
 9819W        W25713   5.630   4.486  14.934 -0.0267  0.2146 -0.1127
 9820W        W25714  16.553   5.032  12.114 -0.0786  0.0269 -0.0542
 9821W        W25715   6.066   4.663  15.086  0.1136  0.3304 -0.1379
 9822W        W25716  14.120   7.373  12.251  0.0493 -0.3499  0.0431
 9823W        W25717  17.439  15.687   4.112  0.0134 -0.1256 -0.1484
 9824W        W25718   1.088   4.198  15.249  0.0875  0.2519 -0.0263
 9825W        W25719  13.265  12.652   0.031 -0.1237 -0.0117  0.1740
 9826W        W25720   9.281  16.758  13.496 -0.1509 -0.0591 -0.1473
 9827W        W25721   3.271   2.508   0.326  0.1273  0.1358  0.3261
 9828W        W25722   2.543   5.693   4.304  0.0764  0.2309  0.0127
 9829W        W25723   6.268  10.372   5.082  0.1411  0.1650  0.1913
 9830W        W25724   4.009   6.516   5.476 -0.2491  0.1007 -0.1224
 9831W        W25725   6.106   3.561   0.720 -0.1884  0.0507 -0.0454
 9832W        W25726   7.692   0.880   3.876  0.2233  0.1666  0.0293
 9833W        W25727   2.308  13.855  14.291  0.3303  0.2582 -0.2165
 9834W        W25728  13.300   4.694  14.256 -0.0813 -0.2235  0.0528
 9835W        W25729   7.245   6.417  11.615 -0.0723 -0.3120  0.1883
 9836W        W25730   3.826   7.391   3.760 -0.0112 -0.0990 -0.0127
 9837W        W25731  13.971   6.504  14.699  0.1494  0.2629 -0.2498
 9838W        W25732   9.585  13.402   4.129  0.0158  0.0899  0.0677
 9839W        W25733   4.597  14.821  14.215  0.1882 -0.3832  0.2327
 9840W        W25734   7.540   6.284   0.054 -0.0050  0.3356 -0.0353
 9841W        W25735   0.702  16.018  15.136 -0.0114 -0.0730  0.0761
 9842W        W25736   6.685  13.109  13.313  0.1288 -0.3277  0.1426
 9843W        W25737  15.944   7.732  16.377  0.0762 -0.0067 -0.0479
 9844W        W25738  16.321  11.905   4.459 -0.1956  0.1200 -0.2041
 9845W        W25739   9.099   7.376   4.013 -0.2130  0.0626 -0.1038
 9846W        W25740   7.294  13.632   0.531  0.1226  0.0023  0.0967
 9847W        W25741   1.827  13.407  12.730  0.2003 -0.0052 -0.3659
 9848W        W25742  17.455   3.548   3.993 -0.0444  0.0239  0.2820
 9849W        W25743  10.664   6.657  15.486  0.0779  0.0844 -0.2437
 9850W        W25744  14.561   1.534   5.384  0.0739 -0.4510  0.3420
 9851W        W25745   1.881  13.309  14.649 -0.0083 -0.5018 -0.0394
 9852W        W25746   6.381  11.507   0.910 -0.1062 -0.1799 -0.0602
 9853W        W25747   8.779   8.345   5.550 -0.0339 -0.1938  0.0131
 9854W        W25748  14.244  10.607   5.980 -0.1546  0.2553 -0.0679
 9855W        W25749   6.124   5.089  17.149 -0.2059 -0.1366  0.0705
 9856W        W25750   5.805   2.157  16.924 -0.3352  0.0914 -0.0383
 9857W        W25751  11.326  17.143   2.288 -0.2061  0.0402  0.1125
 9858W        W25752   3.934   9.659  12.623 -0.1559 -0.0330 -0.0336
 9859W        W25753   6.929   0.650  13.777  0.1484  0.0539 -0.4110
 9860W        W25754   1.231   6.593  14.376 -0.1408 -0.0697  0.0794
 9861W        W25755   1.163  12.448   3.952 -0.3206 -0.1028  0.2078
 9862W        W25756   1.735   3.941   5.389 -0.1152 -0.1459  0.4295
 9863W        W25757   4.505  14.700   6.658  0.0440 -0.1356 -0.2042
 9864W        W25758  12.793   3.235  12.855  0.1807  0.1502 -0.3407
 9865W        W25759   0.794   1.537   4.814  0.0033 -0.1775 -0.3403
 9866W        W25760  15.895   3.040   5.181  0.2098 -0.1257 -0.2516
 9867W        W25761   3.855   9.237   3.506 -0.0196 -0.2279 -0.4407
 9868W        W25762   5.293   6.096   2.092 -0.0719 -0.0166  0.1097
 9869W        W25763   2.085  13.829  13.853  0.2386  0.0873  0.0447
 9870W        W25764  10.589  15.436  13.255 -0.0990  0.0173 -0.1559
 9871W        W25765  16.623  14.129   3.016  0.0320 -0.0728  0.0461
 9872W        W25766  15.056  16.748  17.213  0.1529 -0.0226  0.1769
 9873W        W25767   4.329   7.583   3.625  0.0155  0.2175 -0.1245
 9874W        W25768  13.702   3.555  14.016 -0.1273  0.1632  0.0636
 9875W        W25769  16.036  14.285  14.565 -0.1607  0.2167 -0.1102
 9876W        W25770   1.674   7.685   4.311  0.0065  0.2814  0.0425
 9877W        W25771   5.956  10.393   3.957 -0.3194  0.1137 -0.0776
 9878W        W25772  12.219   8.185  16.921 -0.1070 -0.4351  0.1098
 9879W        W25773   4.470  13.909  14.635  0.0912  0.2038 -0.0924
 9880W        W25774  13.375   0.849   5.012 -0.3760  0.1139  0.0582
 9881W        W25775   7.451  17.005  14.277 -0.0804 -0.0283 -0.0224
 9882W        W25776  15.579  16.707   2.389  0.0883  0.1575  0.3499
 9883W        W25777   0.420  15.793   0.351  0.1411  0.1744 -0.1286
 9884W        W25778  11.367   4.998   1.125  0.1186  0.0295 -0.2106
 9885W        W25779   4.086  15.208   5.740  0.1105 -0.0297  0.3747
 9886W        W25780  10.749   8.839  15.429 -0.0126 -0.3142  0.1147
 9887W        W25781  13.071   1.175   0.690  0.0217 -0.3105  0.3390
 9888W        W25782  16.852   6.713   5.194 -0.5178  0.0614 -0.0340
 9889W        W25783   0.779   5.974  15.738  0.1479 -0.0674 -0.0840
 9890W        W25784  11.592   3.812   5.906  0.1837 -0.0159  0.0434
 9891W        W25785  14.947  12.729   0.572 -0.1126  0.2385  0.3373
 9892W        W25786   2.262   7.453  16.516  0.0526  0.1328 -0.0569
 9893W        W25787   0.059   6.135   0.030 -0.0270  0.3029 -0.0882
 9894W        W25788  11.441   6.728  11.633  0.1640 -0.2024 -0.2136
 9895W        W25789   1.489   0.500  15.433  0.1256 -0.0620 -0.0012
 9896W        W25790  17.266  14.187  15.769 -0.2952 -0.2392 -0.3332
 9897W        W25791  16.280   1.737  13.681  0.1752  0.0402 -0.3962
 9898W        W25792   4.415   2.207   3.250  0.0737  0.0863 -0.2169
 9899W        W25793  12.313  15.672   3.664 -0.0899  0.0543 -0.0944
 9900W        W25794  14.035   1.855   2.796 -0.0214 -0.2403  0.0673
 9901W        W25795  15.405  15.726  12.125 -0.1707  0.1402  0.1254
 9902W        W25796   5.642   9.723  12.812 -0.1301 -0.0245 -0.0512
 9903W        W25797   0.189  12.032  12.141  0.3101  0.0506  0.1172
 9904W        W25798   7.726   9.753  16.594  0.6094  0.0896 -0.1209
 9905W        W25799   9.160   5.821  13.325  0.0199  0.5192 -0.2277
 9906W        W25800   4.554   8.227  12.173 -0.2434 -0.0350  0.3549
 9907W        W25801   7.177  14.152  14.251  0.1071  0.1013  0.0965
 9908W        W25802   8.223  11.057   1.766  0.1244 -0.1982  0.0809
 9909W        W25803  16.400   0.037   6.305  0.0389  0.2183  0.0888
 9910W        W25804  16.774  10.307  13.544  0.0189  0.0419  0.1823
 9911W        W25805  15.445  10.938   4.705  0.0482 -0.4311 -0.2704
 9912W        W25806   4.124  16.934   1.029  0.3108  0.4571 -0.0527
 9913W        W25807  10.203   7.212   2.340  0.2239  0.0229  0.0709
 9914W        W25808  15.801   8.899   4.086 -0.1031 -0.0284 -0.4177
 9915W        W25809   5.585  11.009   5.214  0.1532 -0.4527 -0.1130
 9916W        W25810  12.632   0.969   0.966 -0.1061  0.0505  0.3411
 9917W        W25811   4.825  17.459   4.538  0.0314  0.0290 -0.1267
 9918W        W25812   6.508   8.683   1.757 -0.1684 -0.1967  0.0694
 9919W        W25813   0.373   2.010   4.083  0.0860  0.1445 -0.2192
 9920W        W25814  16.844   4.356  13.516 -0.1709 -0.1967 -0.0417
 9921W        W25815  13.281  17.123   4.613  0.2462  0.3553 -0.4881
 9922W        W25816   1.259   9.004   4.133  0.1204  0.1542 -0.4328
 9923W        W25817   2.970  12.852  16.843  0.2656 -0.3350 -0.1012
 9924W        W25818   1.724  13.740   4.494 -0.0080  0.2585  0.0258
 9925W        W25819  17.574  17.347   5.537 -0.0858 -0.3288 -0.3583
 9926W        W25820  10.630  16.651   3.702  0.0341 -0.0703  0.1241
 9927W        W25821   3.080   0.336  14.155 -0.1710  0.0695 -0.0779
 9928W        W25822  10.483   8.931   3.546  0.0250  0.2027 -0.3271
 9929W        W25823   0.232  17.377  15.547  0.1200 -0.0444 -0.0847
 9930W        W25824  17.237   5.564   4.426 -0.0883  0.0450  0.1170
 9931W        W25825  16.989   9.235   3.383  0.1607 -0.0635  0.1363
 9932W        W25826   5.474   6.729   5.256 -0.1738  0.0350 -0.0812
 9933W        W25827   4.526  10.703   0.184 -0.0811 -0.1203 -0.0780
 9934W        W25828   7.672   1.827   0.215 -0.0676 -0.1521  0.1500
 9935W        W25829  13.066   7.841   4.152  0.1435 -0.1180  0.0416
 9936W        W25830   6.312   2.768  13.984 -0.0465  0.0806 -0.2126
 9937W        W25831   5.945  12.431  15.246  0.1312 -0.2764 -0.0028
 9938W        W25832   2.307  12.720  16.732  0.1680  0.0129 -0.3544
 9939W        W25833  13.171   8.392   4.834  0.1017  0.2154 -0.0671
 9940W        W25834  16.110   9.990   5.767 -0.0465 -0.0352  0.1811
 9941W        W25835   2.128  16.291   4.023 -0.1374  0.0206  0.2225
 9942W        W25836   3.341   2.844   4.793  0.1544 -0.0193  0.3956
 9943W        W25837  11.795  11.482   6.161 -0.3891 -0.0070 -0.1465
 9944W        W25838  15.442   0.174   5.293 -0.1547  0.1261  0.2168
 9945W        W25839   5.108  16.190  12.151 -0.0173  0.1904  0.0236
 9946W        W25840  13.507  11.916  14.565  0.1424 -0.0440 -0.0243
 9947W        W25841  13.224  10.287  15.915  0.0567  0.1181 -0.1026
 9948W        W25842  10.088   4.681  11.048 -0.2328 -0.0822 -0.1569
 9949W        W25843   3.218   3.065   1.761 -0.1717  0.0823 -0.0145
 9950W        W25844  14.817   1.036   5.381  0.1443 -0.1942  0.0467
 9951W        W25845   1.290  12.128   1.293  0.0940 -0.0717 -0.3886
 9952W        W25846   7.201  13.019  13.145 -0.0374 -0.2480  0.4597
 9953W        W25847  16.016   7.294  12.351  0.1517 -0.1145 -0.1063
 9954W        W25848   6.923   8.495   5.750 -0.0194  0.0945 -0.0126
 9955W        W25849   4.028  14.281  16.741  0.1697 -0.1047  0.0846
 9956W        W25850   8.112   2.137   5.599  0.2037  0.1913 -0.0933
 9957W        W25851   7.541   7.423   5.494  0.1133  0.1893 -0.1573
 9958W        W25852  14.230   2.030   2.254 -0.0201  0.1331  0.0179
 9959W        W25853   3.497  10.022   5.421  0.3797  0.0531 -0.1325
 9960W        W25854  17.569   9.931   0.637 -0.0070  0.0171  0.1426
 9961W        W25855   3.788  13.228  13.968  0.1053 -0.1392  0.1740
 9962W        W25856  11.884   1.097   1.576  0.3494  0.2775  0.2741
 9963W        W25857  11.799   6.397  14.971 -0.1007 -0.0745  0.0357
 9964W        W25858   3.424  17.465   6.287  0.2998  0.0850  0.1983
 9965W        W25859   4.293  11.576  14.034  0.1226  0.3476 -0.1292
 9966W        W25860   7.766   1.546  12.703  0.1715  0.1642  0.0841
 9967W        W25861  15.750   1.301   2.670 -0.0411  0.0002 -0.0771
 9968W        W25862  10.071  11.455  16.675 -0.2087 -0.2169  0.2172
 9969W        W25863   8.738  13.435   1.556 -0.0067  0.1302 -0.1160
 9970W        W25864   3.990   6.225   0.673 -0.1328  0.0868 -0.3503
 9971W        W25865  16.410   7.650  13.582 -0.0478 -0.0008 -0.0724
 9972W        W25866   4.848   2.916   1.483 -0.0470 -0.1676 -0.0762
 9973W        W25867  10.970   9.892   3.744  0.0999  0.0908  0.3589
 9974W        W25868   4.771  11.240   0.126  0.0792 -0.1208 -0.1083
 9975W        W25869  12.265   5.988   4.097 -0.0458  0.0504  0.1635
 9976W        W25870   4.303  12.693  12.883 -0.3528 -0.2009 -0.1554
 9977W        W25871   8.925   6.135   4.641 -0.1174 -0.1066 -0.1800
 9978W        W25872  14.781   5.008  16.267  0.0848  0.0754  0.0786
 9979W        W25873  17.038  10.279   0.089  0.1142 -0.1852 -0.0503
 9980W        W25874  11.757  10.005  14.243 -0.0613 -0.0766 -0.2632
 9981W        W25875   0.800  12.628   0.133  0.0187  0.0092  0.1825
 9982W        W25876  12.867  17.634  12.452  0.0060 -0.2334  0.3016
 9983W        W25877   0.146  10.897   3.304 -0.0055  0.1399 -0.3140
 9984W        W25878  11.058  17.390  13.075 -0.1900 -0.1154  0.1520
 9985W        W25879   2.303   3.102   4.784  0.0365  0.1201 -0.1166
 9986W        W25880  17.571  12.618  14.165  0.0261  0.1912 -0.1090
 9987W        W25881   2.440  15.972  16.322 -0.0313  0.3277 -0.0536
 9988W        W25882  16.641   4.797   5.009 -0.2521  0.1656  0.0904
 9989W        W25883   8.864  11.156   0.343  0.1623  0.1840 -0.0186
 9990W        W25884   9.603   3.725   5.661  0.3683  0.0824  0.0833
 9991W        W25885   9.858   6.855   5.091  0.2524  0.1878 -0.1580
 9992W        W25886   1.742   8.156  13.712 -0.2451  0.1407 -0.0629
 9993W        W25887  15.028  10.045   4.489 -0.0289 -0.3246 -0.0464
 9994W        W25888  15.413   6.284  13.475  0.2084  0.0551 -0.0321
 9995W        W25889   6.422  13.517  14.833  0.0628  0.2063 -0.4956
 9996W        W25890  12.654   1.354   5.626  0.0665 -0.0054 -0.3516
 9997W        W25891  13.088   6.898  11.583 -0.1151 -0.0358 -0.1287
 9998W        W25892   4.849   0.701  16.754  0.0073 -0.0943 -0.1481
 9999W        W25893   9.411   5.834  13.775 -0.2716  0.0005  0.0902
10000W        W25894  10.719   8.711  11.109 -0.0532  0.3491 -0.2140
10001W        W25895  12.756   7.657  15.100  0.2578  0.0774 -0.0546
10002W        W25896   1.627  11.413  13.907 -0.0672 -0.3082 -0.0102
10003W        W25897   2.282   3.758  15.776  0.1380 -0.0524  0.1556
10004W        W25898  14.788   0.961  12.272 -0.1166 -0.2979  0.4826
10005W        W25899   2.438   9.325  16.930  0.2480 -0.2121 -0.2907
10006W        W25900  12.882   8.207   3.708  0.0974 -0.5371 -0.1808
10007W        W25901  14.170  14.225  14.140 -0.0631 -0.3604  0.0348
10008W        W25902   9.395   1.539  16.055 -0.2621  0.1786 -0.0338
10009W        W25903  17.357   7.716  15.413 -0.0882 -0.2164 -0.0314
10010W        W25904  15.774   1.168   4.867 -0.1471 -0.0095  0.0870
10011W        W25905   4.884   1.443   0.109 -0.2105  0.1820 -0.0568
10012W        W25906  10.930  16.434   2.683  0.1764  0.2423 -0.0009
10013W        W25907  12.465  10.072   3.583  0.2244  0.1827  0.1679
10014W        W25908   3.364  11.198  11.824 -0.4897 -0.1572 -0.0009
10015W        W25909   2.589   9.193   1.172 -0.3409 -0.1421  0.0257
10016W        W25910   0.497   3.157  16.871 -0.1356 -0.0257 -0.1046
10017W        W25911   8.689   5.291   4.152 -0.5032 -0.1386  0.1694
10018W        W25912  11.366   7.157  16.945  0.1507  0.2386 -0.0065
10019W        W25913  12.298   6.501   3.105  0.0307  0.1923  0.0140
10020W        W25914  11.219   5.680   4.165  0.0715 -0.2704 -0.0700
10021W        W25915   8.308   9.791  15.777  0.0967 -0.2182  0.4503
10022W        W25916   0.086   8.730   4.483  0.1953  0.0802 -0.2817
10023W        W25917  15.680   4.289  15.668 -0.0345 -0.2332 -0.1123
10024W        W25918   1.113   3.564  15.140 -0.5340  0.1392  0.0213
10025W        W25919  16.181   0.277  15.505  0.0221  0.2545 -0.0955
10026W        W25920   2.260  17.615  12.018 -0.0551 -0.1768 -0.3174
10027W        W25921  16.509   2.440   3.294  0.0496  0.1239  0.1738
10028W        W25922  12.598   2.179  14.741 -0.4116 -0.0569  0.0080
10029W        W25923   3.653   3.009   5.889 -0.2984  0.0989 -0.0148
10030W        W25924   1.157   2.651   0.022 -0.0834 -0.2969 -0.3293
10031W        W25925   9.375   1.028   2.417 -0.2100  0.1749  0.2201
10032W        W25926   9.535   1.748   4.693 -0.1851 -0.3700 -0.1771
10033W        W25927   6.128   8.402  12.415 -0.0217 -0.2108  0.0573
10034W        W25928  17.171   9.344  13.841  0.3700 -0.2210  0.3840
10035W        W25929   6.873   0.538   3.074  0.1755 -0.0460  0.0376
10036W        W25930   7.942  10.655  13.229 -0.0301 -0.0699  0.1590
10037W        W25931   7.402  13.617   3.262  0.0216 -0.0450 -0.1428
10038W        W25932   5.358  17.385   1.541  0.0282 -0.0260 -0.1153
10039W        W25933  17.228   0.056   0.496  0.0377  0.1590 -0.1004
10040W        W25934   8.149  16.967   1.594 -0.1327  0.1613  0.2077
10041W        W25935  10.936   2.310   3.502 -0.1975  0.2000  0.1557
10042W        W25936  11.237  15.216   5.738  0.1300 -0.0888  0.1861
10043W        W25937   2.890   8.591  15.764  0.1716  0.0745 -0.3037
10044W        W25938  14.370   3.230   3.525 -0.1182  0.1672  0.1669
10045W        W25939   2.022   0.250   2.756 -0.2378 -0.2546 -0.1222
10046W        W25940  16.350  15.420   0.099 -0.3031 -0.2680  0.0392
10047W        W25941  13.038   6.328   5.853  0.0657 -0.3509 -0.1569
10048W        W25942   8.435   7.888   4.523 -0.1814  0.0873  0.2413
10049W        W25943  14.799   4.134   1.584  0.1153 -0.0882  0.1102
10050W        W25944  10.741   3.688  14.212  0.0625  0.0903  0.2032
10051W        W25945   3.290   5.730  11.874 -0.1256 -0.0126 -0.0079
10052W        W25946  15.593   4.904   5.291  0.1105  0.5225  0.1068
10053W        W25947   7.641  16.980  13.667 -0.0969  0.0197  0.3313
10054W        W25948   9.713  10.850   3.394  0.3977 -0.1429 -0.3192
10055W        W25949   6.928   6.701  16.558  0.1379  0.0153 -0.0814
10056W        W25950   9.322   9.509   0.130 -0.1096 -0.1537  0.0227
10057W        W25951   7.317  14.440  12.768  0.1586 -0.2747 -0.1777
10058W        W25952   6.459   8.184   3.268  0.2852  0.0490 -0.0038
10059W        W25953  16.621   1.961  12.271 -0.2617  0.0696  0.0319
10060W        W25954   4.026   6.206   1.276 -0.1274 -0.0040  0.1447
10061W        W25955  14.183  14.902  16.798 -0.1219  0.1508 -0.0864
10062W        W25956   1.812   5.119   0.378 -0.0374  0.1550  0.0141
10063W        W25957  13.479   1.021   0.415 -0.2027  0.0443  0.1833
10064W        W25958   6.551   2.030   0.776 -0.0384 -0.1352 -0.1882
10065W        W25959   0.057   3.220  14.474 -0.2746 -0.1808  0.0050
10066W        W25960  16.206   3.624   2.554 -0.1390 -0.1714 -0.1750
10067W        W25961  15.329  17.539  13.645  0.2212 -0.1964 -0.2050
10068W        W25962   0.613   2.835   4.588 -0.2157 -0.4006 -0.0782
10069W        W25963   6.155  11.300   1.483  0.1232  0.0914  0.1725
10070W        W25964   7.093  14.130  17.066  0.2591  0.0377  0.2616
10071W        W25965  14.834   2.354  12.128 -0.0322  0.0728 -0.1602
10072W        W25966  17.400  16.111  14.977  0.1308  0.2358  0.4625
10073W        W25967   8.148   3.136   4.927  0.2385  0.0630 -0.2322
10074W        W25968  13.804   8.626   1.342 -0.1446  0.0748 -0.0322
10075W        W25969   4.092  13.653   1.713  0.0998 -0.1670 -0.0496
10076W        W25970   8.787  14.493   3.553  0.0428 -0.0991 -0.0342
10077W        W25971   8.659  14.038  12.195  0.1186 -0.1317  0.0252
10078W        W25972   6.148   9.714  17.002 -0.1349 -0.0937 -0.2223
10079W        W25973  16.016   4.407   3.198  0.0440 -0.0636  0.1252
10080W        W25974   5.856  10.889  14.618  0.2121  0.1527  0.2198
10081W        W25975  10.207   8.596   3.821  0.0608 -0.3333  0.2246
10082W        W25976   4.111   7.020   2.879 -0.1800 -0.0129  0.2228
10083W        W25977   0.797  11.152  14.750 -0.0492  0.0204  0.2763
10084W        W25978   8.244  17.291   2.896 -0.0649 -0.1721  0.3522
10085W        W25979   9.586  10.911   1.560  0.1096  0.1745  0.0567
10086W        W25980  14.906   5.739  17.059  0.0227  0.0931  0.1457
10087W        W25981  16.783   4.886   6.080  0.1665 -0.0159 -0.0885
10088W        W25982   9.390  15.233  16.721  0.2036  0.0679  0.0055
10089W        W25983  10.893   6.213  11.174  0.1031  0.0686 -0.0310
10090W        W25984   9.670  16.956   5.156 -0.2372 -0.1769 -0.1589
10091W        W25985  14.288  14.260  13.594  0.0221 -0.1677  0.0601
10092W        W25986  14.609  16.144   2.387 -0.1530 -0.0247  0.3466
10093W        W25987  14.967   5.822  13.709  0.1023  0.0881  0.1831
10094W        W25988   0.983   5.066   2.680 -0.3744 -0.0400  0.2559
10095W        W25989   3.604   9.290   2.373 -0.1688 -0.0547 -0.4207
10096W        W25990   7.688   2.056  12.815  0.0275  0.0050 -0.0439
10097W        W25991   9.382   9.496  15.627 -0.1403  0.1198  0.1363
10098W        W25992  14.367   4.201   0.981  0.1901 -0.1481 -0.0155
10099W        W25993  17.349   4.564  13.456  0.2303  0.1789  0.2911
10100W        W25994   1.297  14.557  15.404 -0.0234  0.0321  0.0261
10101W        W25995  13.970   7.427   4.956  0.0846  0.1690  0.0045
10102W        W25996   3.012   2.388  14.102 -0.3890 -0.2909  0.1277
10103W        W25997   1.624  12.500   1.177 -0.0057  0.3100  0.3089
10104W        W25998  13.659   7.333  14.391  0.2976  0.3034 -0.0203
10105W        W25999  15.406   6.695  15.146  0.2174  0.0661 -0.2338
10106W        W26000  12.560   1.955  12.999 -0.2183 -0.3072 -0.1173
10107W        W26001  16.398   0.025   0.548  0.0007  0.2471 -0.0247
10108W        W26002   7.461  10.984  12.711 -0.0442 -0.0214  0.0325
10109W        W26003   2.652  15.850  15.795 -0.1856 -0.0597  0.0332
10110W        W26004   6.011   1.453  14.358 -0.2474 -0.1663 -0.0104
10111W        W26005   0.934  14.516  16.269 -0.2785  0.1070  0.1998
10112W        W26006  14.622  13.223  14.287  0.0609 -0.2420  0.1249
10113W        W26007  13.196  14.058  11.635 -0.1728  0.2223 -0.0593
10114W        W26008   8.082  11.536   3.391 -0.0565  0.2449  0.0916
10115W        W26009  12.856   5.610   6.255 -0.0082 -0.1631  0.0305
10116W        W26010   9.369  17.008  14.751  0.1279 -0.0686  0.1654
10117W        W26011   0.542   9.409   0.155 -0.2853  0.4293 -0.0154
10118W        W26012   5.111   8.920   2.733  0.3624 -0.2994 -0.2572
10119W        W26013   7.482  15.350   6.081  0.0411 -0.2286 -0.3094
10120W        W26014   1.183  10.771  15.902  0.1708 -0.3641  0.2003
10121W        W26015  11.739   8.973  14.340  0.2123 -0.0488  0.0344
10122W        W26016   3.720  15.709   1.619  0.2183 -0.1969  0.0615
10123W        W26017   6.942   6.615  13.256 -0.0032  0.0110  0.1948
10124W        W26018   6.264  10.752   0.611  0.0403 -0.0228 -0.1863
10125W        W26019  14.829   1.377  13.792  0.3900  0.0467  0.2784
10126W        W26020   0.457   0.489   0.830  0.0141  0.0462 -0.1016
10127W        W26021  11.982   3.059  13.142  0.0991  0.0621  0.2013
10128W        W26022  10.914  10.160   2.777 -0.1680 -0.0908 -0.0622
10129W        W26023   8.141   3.359   2.055  0.0238 -0.0485  0.1452
10130W        W26024  12.222   6.959  14.215  0.0724  0.2305 -0.0185
10131W        W26025  13.861   9.650  12.370  0.2433  0.0611  0.2689
10132W        W26026  12.054   0.515   5.455  0.0846 -0.0700 -0.2236
10133W        W26027   1.745  11.718   3.016 -0.0629  0.0936 -0.0675
10134W        W26028  13.190   5.237   3.211 -0.1341  0.1271  0.1846
10135W        W26029  14.723  10.180   5.378  0.0082 -0.1281 -0.2495
10136W        W26030   6.197   9.379  13.473  0.0112 -0.2197  0.0857
10137W        W26031  11.038   3.253   5.025  0.0335 -0.0634 -0.1913
10138W        W26032   8.443  13.282   3.646 -0.2423 -0.0411  0.1671
10139W        W26033   3.408  13.606   3.416  0.1850 -0.2391  0.1894
10140W        W26034  10.833  13.346   3.888 -0.2162 -0.0054 -0.1038
10141W        W26035  16.142  14.367   5.615  0.0145 -0.0361  0.3389
10142W        W26036   2.888   6.033   3.475  0.1436  0.0228  0.1821
10143W        W26037  14.145  10.129  13.745  0.0100  0.3132 -0.1850
10144W        W26038  10.748  16.968   5.896 -0.0177  0.1241 -0.3534
10145W        W26039  15.892  15.077   3.793 -0.0647  0.2680 -0.0689
10146W        W26040  12.968   8.799  16.490 -0.0957 -0.5215  0.0773
10147W        W26041   3.958  13.834  12.612  0.0415 -0.0174 -0.0562
10148W        W26042   0.842   3.474   0.295 -0.3320 -0.1337  0.0324
10149W        W26043  10.278   8.630  14.878 -0.2060  0.2836 -0.0423
10150W        W26044   0.268   1.018  12.015 -0.0523 -0.0771 -0.3128
10151W        W26045   9.744  12.651   4.820  0.1454 -0.0381  0.2175
10152W        W26046  11.609   0.941   2.438 -0.2093  0.0449  0.0719
10153W        W26047   5.418   6.953   4.267  0.2342  0.2247 -0.0185
10154W        W26048  17.392   3.922   0.531 -0.1469 -0.0891 -0.1707
10155W        W26049   0.416  15.463   3.368 -0.3307  0.1792 -0.0977
10156W        W26050   1.711   3.105  13.411 -0.0384 -0.0149 -0.2860
10157W        W26051   8.171   2.940  11.671 -0.0951 -0.1598  0.2000
10158W        W26052  10.413  15.820   1.622 -0.0707 -0.1048 -0.0912
10159W        W26053   4.299   7.927  13.996  0.1325 -0.2326  0.1181
10160W        W26054  15.593   4.903  16.303 -0.0761  0.0208  0.1299
10161W        W26055  13.009  10.296   3.179  0.0859 -0.0959 -0.1627
10162W        W26056   4.258   6.006   0.244  0.0607 -0.0944  0.0217
10163W        W26057  16.013   6.790  13.537  0.0221  0.0730 -0.2156
10164W        W26058   2.883  16.727  14.604 -0.0859 -0.2400  0.0436
10165W        W26059   7.855  11.483   3.902 -0.2732  0.0224  0.2438
10166W        W26060   4.222   3.525   6.581 -0.3384 -0.1892 -0.0272
10167W        W26061   6.757   1.145  15.584  0.3264  0.1340 -0.0522
10168W        W26062  14.554   2.854   3.829 -0.1734  0.1934 -0.0053
10169W        W26063  14.521   2.393   2.230 -0.2116 -0.0551 -0.0911
10170W        W26064   0.859   2.277   0.838  0.0466  0.2524  0.2049
10171W        W26065  16.332  12.069   1.325 -0.0016 -0.0218 -0.0231
10172W        W26066  13.795   8.361  16.268  0.1487  0.1166 -0.3127
10173W        W26067   5.911  16.198   3.656 -0.1690  0.1284 -0.3154
10174W        W26068   7.986  15.035   4.371 -0.2723 -0.0381 -0.0095
10175W        W26069   3.252   6.788   7.222  0.1074 -0.0725 -0.0076
10176W        W26070   8.176   3.639   4.087  0.0618 -0.1240  0.0040
10177W        W26071  15.300   2.712  16.786 -0.0237  0.1132  0.1448
10178W        W26072  12.554   6.846   0.501 -0.0953  0.0863  0.0731
10179W        W26073   2.243   3.028   5.294 -0.0732  0.0450 -0.1123
10180W        W26074  16.289  12.833   1.140 -0.1980  0.0957  0.1862
10181W        W26075  10.434   7.712   5.177 -0.3311 -0.3399 -0.3800
10182W        W26076  13.115  14.017   4.166  0.0094 -0.1457  0.1041
10183W        W26077   4.464   8.254   4.223  0.0490 -0.1136  0.1090
10184W        W26078  14.780   7.431  13.952 -0.0795 -0.2458  0.0379
10185W        W26079   7.357   7.039   4.771  0.0725 -0.1297 -0.2795
10186W        W26080  16.147   6.234   1.836 -0.0627 -0.0400 -0.0096
10187W        W26081  15.552   6.711   4.334 -0.1191 -0.0496  0.1051
10188W        W26082   7.135   2.069   2.502  0.4624 -0.0875 -0.1835
10189W        W26083  14.741  15.041  16.711  0.0419  0.2576 -0.4758
10190W        W26084  14.349  13.012   4.686 -0.0177 -0.1124 -0.0009
10191W        W26085   0.569  12.492  15.644 -0.3257  0.0503  0.2930
10192W        W26086   9.147   8.263  12.249 -0.0920  0.2487  0.0078
10193W        W26087  13.975  17.144  16.782 -0.1032  0.1136  0.0529
10194W        W26088  11.147   5.380  13.805  0.0610  0.0308 -0.1649
10195W        W26089   1.851   2.616   0.907 -0.0624  0.1003  0.2030
10196W        W26090   3.841   4.108   5.964 -0.0348  0.0949 -0.1642
10197W        W26091   6.030   1.060  12.353  0.2104 -0.1935  0.0593
10198W        W26092  15.377   3.263   5.073  0.2190  0.3897  0.2512
10199W        W26093  12.636   5.378   2.434  0.2213 -0.2491 -0.2308
10200W        W26094  10.643   5.098   4.522  0.0532 -0.3314  0.1248
10201W        W26095  12.420  16.619   5.717  0.1201  0.0166  0.1976
10202W        W26096   5.807  17.434  14.108 -0.1640  0.3497  0.1672
10203W        W26097  13.524  10.357  12.334 -0.0204 -0.2934  0.2105
10204W        W26098   7.457  11.408  16.782 -0.1019 -0.0475  0.3552
10205W        W26099   2.286  12.999   3.846 -0.0789 -0.0431 -0.2295
10206W        W26100   0.071   8.361   6.515 -0.0300  0.0912  0.0639
10207W        W26101  12.261   3.141   3.103 -0.0693  0.0758 -0.1712
10208W        W26102  17.160   0.317  13.946  0.0086 -0.0792 -0.1438
10209W        W26103  14.781   7.845   0.125  0.1248  0.0174  0.1571
10210W        W26104   8.426   0.616  15.915 -0.1727 -0.0599 -0.0567
10211W        W26105  16.349   5.546  16.173 -0.0041  0.0536 -0.0192
10212W        W26106   4.171   7.632   3.067 -0.0948 -0.4028  0.2629
10213W        W26107   6.814  15.037   3.686  0.0092  0.3906 -0.1274
10214W        W26108   8.902  16.654  13.077  0.2791  0.0097 -0.1411
10215W        W26109   6.722   8.825  12.918 -0.2590 -0.1628 -0.2655
10216W        W26110   2.858  15.002  14.825 -0.2059  0.0962  0.1143
10217W        W26111  15.255   4.289   0.173  0.0784  0.0898  0.2645
10218W        W26112   8.954  16.196  12.867  0.1436 -0.3026 -0.0842
10219W        W26113   8.436   4.878   1.519  0.0111 -0.1348 -0.1540
10220W        W26114  13.416   1.564   0.627  0.1845  0.2111 -0.1197
10221W        W26115   9.527  16.759   2.766  0.2942 -0.0019  0.0728
10222W        W26116  12.023   0.418  16.757  0.2153 -0.1145  0.2209
10223W        W26117   1.810   7.736   0.981  0.1265 -0.1415  0.0795
10224W        W26118   9.294  15.535   4.776 -0.0040  0.1218 -0.1607
10225W        W26119   1.190   6.762   4.085  0.3118  0.0351  0.1165
10226W        W26120  17.482   7.602  14.249 -0.1264 -0.0788 -0.0263
10227W        W26121   0.426   0.846   1.614 -0.1140 -0.2958  0.0828
10228W        W26122   1.549   2.620  14.363 -0.0537 -0.5290 -0.1444
10229W        W26123   8.836   0.940   1.214  0.0435  0.0374 -0.0528
10230W        W26124   2.499  15.416   2.989 -0.1661  0.0960 -0.1986
10231W        W26125   9.380  12.715  16.150 -0.1400  0.2758  0.0428
10232W        W26126  14.400   1.065  13.691  0.1263 -0.1947  0.3278
10233W        W26127  12.196  12.509  13.729 -0.0146 -0.0201  0.0848
10234W        W26128   1.073  11.495  15.239 -0.0030  0.1544  0.2515
10235W        W26129  14.539  15.771  13.171 -0.3402 -0.0432  0.0534
10236W        W26130   2.683   9.497   2.320 -0.0327  0.2112  0.0618
10237W        W26131   4.070  13.804  13.122  0.0327 -0.0326  0.2493
10238W        W26132   8.385   0.077  15.934  0.2299  0.2395 -0.1027
10239W        W26133   0.990   9.661  13.750 -0.0707  0.2106  0.0198
10240W        W26134  16.287   9.451  16.616  0.0546  0.2410  0.0756
10241W        W26135   3.223   9.725  11.882 -0.1402 -0.0658  0.0611
10242W        W26136  13.783   5.828   5.915  0.0106 -0.4796  0.1157
10243W        W26137   2.550  10.411   0.158 -0.0759  0.1753 -0.0634
10244W        W26138   2.158  10.355   1.813  0.1276  0.0589 -0.0084
10245W        W26139   3.089  15.043   5.078  0.1213  0.2221 -0.1849
10246W        W26140  12.711   0.507   3.149  0.3139  0.0015  0.0690
10247W        W26141   2.781   7.000  14.778  0.1011 -0.1874 -0.1479
10248W        W26142   5.943   0.262   2.491 -0.1485 -0.0744 -0.0177
10249W        W26143   9.038  13.658  15.922 -0.2012  0.1329  0.4291
10250W        W26144   4.312  15.634   4.500  0.1815 -0.0515  0.1410
10251W        W26145  13.395  15.413  14.685  0.2293 -0.4714  0.1588
10252W        W26146   8.256  16.442   1.772 -0.2026  0.1686  0.2900
10253W        W26147  16.769   3.732   5.108 -0.0448 -0.0122  0.2929
10254W        W26148  11.387   2.162   0.937 -0.1580 -0.0077 -0.0508
10255W        W26149   7.099   5.988   3.732  0.1189 -0.2185 -0.3477
10256W        W26150   8.148  11.989  13.843  0.0780  0.2331  0.0167
10257W        W26151  16.813  12.990   1.869 -0.2282 -0.0159 -0.0997
10258W        W26152   8.781  16.576  14.102 -0.2479 -0.0612  0.0469
10259W        W26153   9.817   9.608   0.124  0.1841 -0.0109  0.4664
10260W        W26154   9.694   0.073  17.010  0.4664 -0.0083 -0.1287
10261W        W26155  13.158  14.505   4.124  0.0312 -0.1381  0.0219
10262W        W26156   7.055  16.235  13.419  0.1044  0.1747 -0.1334
10263W        W26157  13.603   8.281   1.728 -0.1238 -0.0971  0.0251
10264W        W26158   5.892   2.068  16.035 -0.0750  0.0008 -0.2814
10265W        W26159   6.986   3.947   4.902  0.1024  0.2686 -0.1600
10266W        W26160  12.274  16.094  12.017 -0.1146  0.0480  0.0326
10267W        W26161   9.051   6.701  12.709  0.3007  0.1606  0.0108
10268W        W26162  13.716   7.945   6.165 -0.1198  0.2092  0.3315
10269W        W26163  12.754   1.476   3.234  0.2194 -0.0678 -0.0154
10270W        W26164   6.085  17.560   3.949  0.2135  0.1286 -0.0667
10271W        W26165   7.839  11.006   4.116  0.3184 -0.1358  0.0536
10272W        W26166   8.249   0.057   3.117  0.1261 -0.0682  0.0342
10273W        W26167  10.934  16.106  16.253 -0.1606  0.1331  0.4475
10274W        W26168   1.032  12.966   3.143 -0.1088  0.3049  0.2977
10275W        W26169  15.541   4.913  13.699 -0.2542  0.2852  0.0371
10276W        W26170   5.882   8.306   6.624  0.3374  0.3251 -0.2850
10277W        W26171   3.698  15.910  15.264  0.1221 -0.3319  0.2509
10278W        W26172   2.172   2.359  15.429  0.1334  0.1694  0.0970
10279W        W26173   9.797  12.566   2.750  0.1072 -0.0975 -0.0989
10280W        W26174   7.747   8.371   3.615 -0.0590 -0.1344  0.1508
10281W        W26175   5.937   2.881   0.225  0.0778 -0.3587 -0.2076
10282W        W26176   9.205  17.621   2.080  0.1431  0.0476  0.2930
10283W        W26177  13.321   6.537   4.308  0.1593  0.2742  0.1652
10284W        W26178  10.935   4.682   4.621 -0.3330 -0.2557 -0.0649
10285W        W26179  12.638   7.471  16.909  0.0804 -0.0969  0.0242
10286W        W26180  16.770  11.640  10.869  0.0144  0.2041 -0.0063
10287W        W26181   5.241   8.570  15.534  0.1750  0.4196  0.0945
10288W        W26182  13.823   6.398  12.023  0.1931 -0.3724 -0.0531
10289W        W26183   3.326  10.098  14.645 -0.0925  0.3314 -0.0309
10290W        W26184   1.111   6.644   3.533  0.4519 -0.4435  0.0480
10291W        W26185   3.318  14.765  17.147  0.0761 -0.0621  0.1179
10292W        W26186   0.197   5.948   1.385  0.3009  0.0461 -0.0357
10293W        W26187   8.884  17.123  12.890  0.0848  0.1132 -0.2321
10294W        W26188  12.044  10.395   1.471  0.2782  0.0810  0.1684
10295W        W26189   6.095   0.921   5.846  0.0371 -0.1698  0.2117
10296W        W26190  12.443  14.097   4.255 -0.1884 -0.0201 -0.1024
10297W        W26191   5.087   4.785   1.698  0.3321 -0.1931  0.2234
10298W        W26192  17.179   3.055  14.234 -0.1402  0.2243 -0.1193
10299W        W26193  11.818  16.852   2.114 -0.0792  0.1558 -0.2141
10300W        W26194   7.021   5.303  15.971 -0.0457  0.0486 -0.0572
10301W        W26195   0.717  14.478   1.850 -0.0451  0.0438 -0.1817
10302W        W26196  10.176  17.390   1.214  0.0472 -0.0786 -0.2369
10303W        W26197  15.530   7.350   1.779  0.0495  0.0132  0.1346
10304W        W26198   8.670  12.742  13.616  0.1430 -0.0222  0.0105
10305W        W26199  16.672  10.200   2.447 -0.2779  0.3318 -0.1115
10306W        W26200   9.949  11.706   0.602  0.1371  0.2795 -0.1932
10307W        W26201  13.379  12.062  13.058  0.1332  0.0512  0.1483
10308W        W26202  15.381   9.927  15.096  0.1688  0.0329  0.2261
10309W        W26203  12.718  13.012   0.554 -0.0311 -0.1341  0.0960
10310W        W26204   0.861   8.415  16.825  0.0849 -0.4373  0.3095
10311W        W26205   1.181   3.469   1.207  0.1498 -0.0959 -0.0328
10312W        W26206   9.560  15.029   4.641 -0.1875 -0.0099 -0.1230
10313W        W26207   9.881  17.029   2.599 -0.3805 -0.2392 -0.1480
10314W        W26208  11.363   7.872   0.431  0.0867  0.4831  0.0876
10315W        W26209   5.050  12.212  12.962 -0.0345  0.2235 -0.1851
10316W        W26210   2.195   2.878  16.759 -0.0136 -0.1211  0.1956
10317W        W26211   8.991  16.158  14.291 -0.4336  0.2063  0.3954
10318W        W26212   6.704   7.709  14.666 -0.0462  0.0544  0.1327
10319W        W26213  15.490  12.827   2.142  0.0142 -0.0105 -0.0930
10320W        W26214  11.286   1.445  13.351 -0.1416  0.2017  0.0516
10321W        W26215  15.625  14.582   5.423  0.3176 -0.0119 -0.0447
10322W        W26216   7.268   0.157  11.987  0.1969  0.0028  0.0053
10323W        W26217  14.059   7.773  14.502  0.0368  0.1859 -0.1324
10324W        W26218  17.360   6.817   0.315  0.2953  0.0094 -0.0256
10325W        W26219   0.215   5.928  16.876 -0.3089  0.0761 -0.0599
10326W        W26220  11.171  17.154   4.106  0.1176 -0.1716 -0.1386
10327W        W26221  11.715  11.991  15.977  0.2231 -0.2066  0.3331
10328W        W26222   3.613   1.460   3.259 -0.0724  0.1046 -0.1355
10329W        W26223  13.472   5.672  17.053  0.1314 -0.2161  0.0375
10330W        W26224   5.503  10.704   0.351  0.0879 -0.2960  0.1817
10331W        W26225   1.254   8.467   5.756  0.0526  0.2400 -0.1645
10332W        W26226  17.383   8.083   5.508  0.0122 -0.0271  0.0528
10333W        W26227   5.375   0.734   2.078  0.1737 -0.0830 -0.0205
10334W        W26228   8.678  11.299  14.599  0.2661  0.1384  0.0232
10335W        W26229   1.808   9.610  13.016  0.3239  0.3410  0.1804
10336W        W26230   3.781   0.695  13.759  0.2076 -0.0180  0.0731
10337W        W26231  13.392   4.260  14.650  0.0670 -0.1054  0.2680
10338W        W26232   0.553  16.990   4.067  0.2025  0.2627 -0.0884
10339W        W26233   3.130   4.263  12.920  0.1336  0.0832 -0.1616
10340W        W26234   1.417   0.063   5.420 -0.3263 -0.0624  0.1535
10341W        W26235  15.058  13.003  17.115  0.2909 -0.0382 -0.1346
10342W        W26236   4.061  12.500  16.194  0.3599 -0.0680 -0.0990
10343W        W26237   4.831  10.368   0.550 -0.0555  0.0378 -0.2071
10344W        W26238  15.752   9.742  13.712  0.0766  0.3622  0.0121
10345W        W26239  12.800   7.624  16.353  0.0296  0.0202  0.0564
10346W        W26240  13.534   2.169  12.104  0.0431 -0.1092  0.1897
10347W        W26241   8.784  12.807   1.222 -0.0771 -0.0899 -0.0893
10348W        W26242   1.922   7.532   2.476  0.1317 -0.1418  0.0265
10349W        W26243   2.008   1.340   6.477  0.0606 -0.0326  0.0600
10350W        W26244   2.065  11.535  14.136  0.0360  0.0232 -0.1261
10351W        W26245  10.656   1.595   1.826  0.2216 -0.0088 -0.2032
10352W        W26246   7.116   4.768  13.921 -0.1181  0.1840 -0.3551
10353W        W26247  16.829   8.639   5.902  0.2145 -0.0465 -0.1868
10354W        W26248   5.932   9.033  17.039 -0.0189  0.0988 -0.2803
10355W        W26249   4.371   9.354  14.513  0.0572 -0.0707 -0.2861
10356W        W26250  16.615   3.141   1.325  0.0248 -0.2689  0.4419
10357W        W26251   1.320  17.097   1.623 -0.2741 -0.0469  0.1403
10358W        W26252   8.781   4.728   0.632 -0.1207 -0.3758 -0.2352
10359W        W26253  15.755   5.756  16.307  0.1227 -0.3406  0.2530
10360W        W26254   3.377   8.402   2.909 -0.1953 -0.3513 -0.2011
10361W        W26255  12.468  15.328   0.976 -0.0263 -0.1447 -0.2429
10362W        W26256   4.561  15.196  16.810  0.0701 -0.3937  0.1367
10363W        W26257   6.656  10.447  11.989  0.0551 -0.0613  0.3352
10364W        W26258   5.163   6.221   4.721  0.0375  0.2334  0.1646
10365W        W26259  15.522   1.462  12.752 -0.2944  0.1806  0.1348
10366W        W26260   3.680  11.415  14.605  0.1145  0.1018 -0.2005
10367W        W26261  13.265   0.867   4.537  0.2205  0.3226  0.2147
10368W        W26262   1.609   5.674   4.491  0.3586  0.2355 -0.1274
10369W        W26263   6.190   4.616  16.821  0.0188  0.1990 -0.1479
10370W        W26264  14.327   1.714  17.174 -0.2933  0.0371 -0.0350
10371W        W26265   3.372  14.529   4.103 -0.2043 -0.3249  0.2549
10372W        W26266   4.257  11.815   1.905  0.0685 -0.0738  0.0680
10373W        W26267  11.752  11.016   3.798  0.2041  0.0242 -0.1186
10374W        W26268  15.495   0.059  16.059  0.0936 -0.1921  0.2232
10375W        W26269   9.149   5.353  16.214  0.2617 -0.1327 -0.0646
10376W        W26270  14.843   5.538   1.515 -0.2298  0.1168 -0.0211
10377W        W26271   4.602  17.288   4.976 -0.2688  0.3196 -0.2129
10378W        W26272  13.571  16.435   3.895 -0.0973 -0.2467 -0.0480
10379W        W26273   0.253  17.202  16.322  0.1093  0.0989 -0.0612
10380W        W26274  12.107  10.674  13.036  0.0709  0.0381 -0.2464
10381W        W26275  16.399  14.623   3.109  0.0769 -0.1709  0.0981
10382W        W26276   9.661   7.518   6.004  0.4556 -0.1181 -0.0695
10383W        W26277  16.969   8.752   0.503 -0.1502  0.0182 -0.2278
10384W        W26278   2.270   7.653   0.520  0.4019 -0.0652  0.2044
10385W        W26279  12.026  10.702  12.514 -0.2844 -0.1676 -0.2118
10386W        W26280  12.311   6.979  10.318  0.1724  0.0056  0.0183
10387W        W26281  15.694   6.657   3.041 -0.2175 -0.0484  0.0892
10388W        W26282   5.426  16.525   4.256 -0.3288 -0.0644 -0.1665
10389W        W26283   9.191   9.401  16.068  0.1244 -0.2102  0.0872
10390W        W26284   3.717   8.467   1.296 -0.0901 -0.1254  0.0459
10391W        W26285  13.989  10.880   6.326  0.1852  0.0659  0.0313
10392W        W26286  13.989  10.955  14.767 -0.4499 -0.0119  0.2221
10393W        W26287   1.820  17.259  13.094  0.0274 -0.0993  0.0205
10394W        W26288   0.789  11.631  13.125 -0.0481 -0.0894 -0.0333
10395W        W26289   4.161   3.061   2.749 -0.1277 -0.3322 -0.0402
10396W        W26290   4.543  12.440   4.206  0.3180  0.1174  0.2381
10397W        W26291   4.733  11.723  12.311 -0.1277 -0.3182  0.0845
10398W        W26292   0.470  14.220  16.143 -0.1524  0.0022  0.1123
10399W        W26293   2.651   6.835   1.580 -0.1349 -0.1024  0.0670
10400W        W26294   9.247   1.802  16.624 -0.0926 -0.0955  0.0149
10401W        W26295   2.818  15.704   3.899 -0.2710 -0.2002 -0.0071
10402W        W26296   9.841   3.272  13.157  0.2081  0.1043 -0.0849
10403W        W26297  16.234   7.828   3.972  0.1969  0.3852  0.1263
10404W        W26298   8.195   7.063  14.785 -0.1605 -0.0677 -0.1544
10405W        W26299   0.145   3.925   4.875  0.0191  0.0125  0.4375
10406W        W26300  12.526  14.092   2.589 -0.3479  0.1628  0.2690
10407W        W26301   6.980   8.965  12.200 -0.0290 -0.1178 -0.0909
10408W        W26302  10.603   2.360   0.939  0.0036 -0.1348  0.3614
10409W        W26303  14.885   8.126   1.965 -0.0533  0.0836 -0.0186
10410W        W26304   6.838   1.924  16.111 -0.1711  0.3424  0.0070
10411W        W26305   8.626   6.887  10.671  0.0821 -0.0566 -0.2264
10412W        W26306  13.553  15.081   1.174 -0.0881  0.1159  0.0096
10413W        W26307   6.605   5.207  14.969 -0.3565 -0.2402  0.1675
10414W        W26308   2.655  15.959  12.144 -0.2366  0.1842 -0.0986
10415W        W26309   9.646   5.627   1.218 -0.0946  0.0268  0.1317
10416W        W26310   6.021   0.541   2.939 -0.0337  0.0119  0.3957
10417W        W26311  15.594   3.464   0.611 -0.1637  0.2567  0.0976
10418W        W26312   4.759   6.218   5.883 -0.0550 -0.0568  0.1406
10419W        W26313  17.363  11.014   3.008  0.0265  0.1368 -0.0585
10420W        W26314   7.601  16.560  11.847 -0.0041  0.1786  0.0663
10421W        W26315   2.830   5.562  13.562  0.1026 -0.4027  0.0865
10422W        W26316   9.059   2.402   2.016  0.0772 -0.1699  0.0500
10423W        W26317  16.905   4.352   3.774  0.0308  0.0408  0.2437
10424W        W26318   4.000   5.156  13.499 -0.3172 -0.0100  0.0387
10425W        W26319  13.934  15.985  11.389 -0.2082 -0.0408  0.3273
10426W        W26320   1.469   9.821  17.239  0.1884 -0.0850  0.0929
10427W        W26321  14.854   3.631  16.752 -0.1948  0.0891  0.1559
10428W        W26322   5.412  16.872  13.506 -0.0307 -0.1306 -0.0948
10429W        W26323  16.056   7.657   5.050 -0.1738 -0.2879  0.1529
10430W        W26324  11.741   8.926  13.351  0.2293 -0.0320  0.4428
10431W        W26325  15.416  11.817   5.210  0.1926 -0.1851 -0.0074
10432W        W26326  17.630  15.500  14.533 -0.0418  0.0515 -0.0894
10433W        W26327  11.013   2.513   5.810 -0.1039  0.1323  0.0856
10434W        W26328  12.455  16.308  11.557  0.2347 -0.0668  0.1439
10435W        W26329  14.433  10.368  14.074 -0.2563 -0.3128 -0.1657
10436W        W26330  12.153  15.293  16.074  0.2721 -0.0927  0.1545
10437W        W26331  12.503   6.855   5.264  0.0349 -0.0115 -0.0887
10438W        W26332   3.572   4.385   3.861 -0.1354 -0.1958  0.0217
10439W        W26333  14.397   5.137   1.476  0.1285  0.0746  0.4621
10440W        W26334   1.932  12.134   2.729 -0.0442  0.2847 -0.0175
10441W        W26335   2.673   6.575  12.541  0.3920  0.2175  0.1710
10442W        W26336   5.736   0.123  14.507 -0.0758  0.2765  0.1129
10443W        W26337  14.354  15.236   2.678  0.3721 -0.0904 -0.1488
10444W        W26338   3.081  10.332   3.642 -0.4208  0.0420  0.3414
10445W        W26339  16.620   3.032   1.945 -0.2317  0.0672 -0.0838
10446W        W26340   8.888  16.791   4.393  0.0457  0.0608  0.3717
10447W        W26341   1.501   4.336   5.147  0.3013 -0.2110  0.1189
10448W        W26342  10.424  11.205  14.603  0.0832 -0.2415 -0.0885
10449W        W26343  15.350  12.498   0.208 -0.2958  0.0916 -0.0394
10450W        W26344  14.717   5.925  13.200  0.1126 -0.1153  0.1003
10451W        W26345   5.579   5.334  14.958  0.0023 -0.0247 -0.2467
10452W        W26346   9.260   0.550   3.380 -0.0535  0.1762  0.0232
10453W        W26347  13.436  15.387  16.834  0.0323  0.1878  0.2767
10454W        W26348  13.098   7.606  16.781 -0.0718  0.4146 -0.1767
10455W        W26349   5.648   5.613  15.997 -0.1865  0.1161  0.2861
10456W        W26350   4.774   7.207  13.399 -0.1263 -0.4591  0.0269
10457W        W26351  16.910  15.548   5.346  0.2232 -0.0239  0.0509
10458W        W26352   8.502   0.726   1.614  0.0081 -0.1887 -0.1099
10459W        W26353  16.698  16.272  12.624 -0.0184  0.0631  0.0721
10460W        W26354  17.149   8.966   5.928  0.0836 -0.4051  0.0852
10461W        W26355  10.369  14.925   2.039  0.1201 -0.0794  0.5063
10462W        W26356   7.234   7.679   5.834  0.0814 -0.1637 -0.0455
10463W        W26357   1.866   9.421  14.986 -0.2988  0.0366 -0.1782
10464W        W26358   9.964  13.736   4.066  0.1708 -0.2642 -0.0414
10465W        W26359  10.122   0.626   6.171 -0.0067  0.1977  0.0016
10466W        W26360   7.873  15.549   6.419 -0.2052 -0.2157 -0.0694
10467W        W26361   0.968  11.796   3.906  0.1294  0.0801  0.0132
10468W        W26362   8.972   7.037  16.723 -0.3106 -0.0611 -0.0311
10469W        W26363  11.632  13.911   5.272 -0.1961 -0.1652  0.0442
10470W        W26364  13.291  15.992  13.689 -0.1247  0.1611  0.1276
10471W        W26365  11.493   0.610   1.035 -0.2118 -0.0014  0.3567
10472W        W26366   0.956   0.927   5.695  0.1027  0.0475  0.2306
10473W        W26367   2.485   7.379  15.619 -0.0176  0.1012  0.1441
10474W        W26368  13.527  16.167  17.197  0.1389  0.0142 -0.5010
10475W        W26369   4.719  13.610  14.276  0.0973 -0.1182  0.1165
10476W        W26370   2.090  10.570  16.216 -0.1849  0.0942  0.0202
10477W        W26371  11.093   8.546  13.576 -0.1194  0.2402 -0.3511
10478W        W26372   4.071   0.512   2.697 -0.1754  0.0927 -0.1427
10479W        W26373   7.848   5.345   1.969 -0.0973 -0.2389 -0.0056
10480W        W26374  11.702   4.010   3.601 -0.0813  0.1614 -0.1189
10481W        W26375   2.589  16.702   3.237  0.1665  0.1115 -0.0071
10482W        W26376  10.985   4.874  13.814 -0.0356  0.3044  0.1014
10483W        W26377   3.560  13.611   1.445 -0.3126 -0.0486 -0.0581
10484W        W26378  16.306  13.131  12.482  0.0278  0.1813 -0.1817
10485W        W26379   3.916  12.600   0.441  0.0375 -0.0940 -0.1390
10486W        W26380  11.715   5.769   2.939  0.2536 -0.0336 -0.2078
10487W        W26381   5.568  14.020   5.116  0.0833 -0.1136  0.0631
10488W        W26382   1.654  10.271   0.637  0.2081  0.1007 -0.0212
10489W        W26383  14.127   4.271  17.210 -0.0416  0.0351 -0.3638
10490W        W26384   8.646  11.374   1.004  0.0336 -0.3173  0.1173
10491W        W26385   8.991  11.976   1.024  0.0496 -0.3345 -0.3447
10492W        W26386   4.190   4.361   3.281  0.0265  0.3270 -0.0909
10493W        W26387   3.418   1.747  15.281 -0.0839  0.1572  0.0180
10494W        W26388   4.820  12.370  16.536  0.3368  0.1262 -0.0477
10495W        W26389   2.824  12.569  12.596 -0.1266  0.1153  0.0934
10496W        W26390  13.458  16.005  11.374  0.0878 -0.2580 -0.3265
10497W        W26391   6.011   8.850  11.390  0.1730 -0.0007 -0.0872
10498W        W26392   8.777   8.921   4.802 -0.0423 -0.0138  0.0311
10499W        W26393   4.569   0.444   0.827  0.0642 -0.0284 -0.3955
10500W        W26394  12.470  11.484   1.038  0.0630 -0.3240  0.0856
10501W        W26395   9.774  15.486   5.576 -0.2330 -0.0013 -0.0456
10502W        W26396   2.541   9.834  15.306 -0.0073  0.0229  0.3485
10503W        W26397  12.860   3.174  13.960 -0.3680 -0.3118 -0.1941
10504W        W26398   3.121  11.794   5.630  0.2372 -0.0502 -0.0610
10505W        W26399   0.556   1.879  15.987  0.0596 -0.1592  0.2032
10506W        W26400  13.388   7.389   6.342 -0.0242  0.0803 -0.1017
10507W        W26401   5.177  10.692   4.061 -0.2139 -0.0445 -0.0379
10508W        W26402   2.379   1.710   4.780  0.2181 -0.3892  0.2146
10509W        W26403  14.289  10.278   4.981 -0.1324  0.2667  0.1710
10510W        W26404  13.547  13.307   0.639  0.0257  0.3246 -0.2419
10511W        W26405   3.953   6.997  15.844 -0.3145  0.0624 -0.1821
10512W        W26406   5.492   5.179   5.942 -0.1786  0.0124 -0.0010
10513W        W26407   5.715  16.042   0.224 -0.1906  0.2689 -0.0238
10514W        W26408  14.861  10.701   5.389 -0.2493 -0.1374 -0.3028
10515W        W26409   2.579   0.607  12.091  0.2352 -0.1165  0.3952
10516W        W26410   9.194   6.234   0.618 -0.2906 -0.3363 -0.0722
10517W        W26411   6.965  10.409  13.274  0.0513  0.0690 -0.1475
10518W        W26412  17.454  15.373  14.081  0.0190 -0.3329 -0.0065
10519W        W26413  11.575   0.535  13.029 -0.1911 -0.4748 -0.2995
10520W        W26414   0.113   4.619  14.357  0.1037  0.0022 -0.1564
10521W        W26415  13.457   9.516  13.741 -0.1984 -0.1422  0.1304
10522W        W26416  12.009  12.572   3.703 -0.2752 -0.0573  0.0347
10523W        W26417  13.841  14.556  16.600 -0.2988  0.3269  0.1408
10524W        W26418   4.752  10.300   2.698  0.0762 -0.0138  0.0102
10525W        W26419  13.948  13.557  14.701  0.1448 -0.2614 -0.0187
10526W        W26420  14.612   6.016  15.357 -0.0876  0.2262  0.0742
10527W        W26421  12.818   8.938   1.627 -0.0492 -0.3732  0.1598
10528W        W26422  14.507   0.017  13.523  0.1675 -0.1779  0.0722
10529W        W26423   8.140  11.695  15.438 -0.1843  0.2272  0.0774
10530W        W26424   5.216  17.507  16.427  0.1338  0.3258  0.0807
10531W        W26425  15.555   5.833   3.006 -0.0285 -0.0123  0.2431
10532W        W26426   8.814   2.225   4.749 -0.2044  0.2732  0.1394
10533W        W26427  13.916   3.188   2.646 -0.1624 -0.2149 -0.1917
10534W        W26428   6.948   8.750   0.021 -0.0392  0.1875  0.2081
10535W        W26429  13.122  17.392   1.180  0.1133  0.0659 -0.4570
10536W        W26430   0.173  17.267  12.336  0.3878  0.1410  0.3487
10537W        W26431  15.233   9.456   3.849 -0.1656  0.0597  0.3061
10538W        W26432  16.425  10.497   4.335  0.0304  0.3579  0.1668
10539W        W26433   0.841  14.923  13.167 -0.1538 -0.2587  0.0402
10540W        W26434   7.352   7.775   1.300  0.1539  0.3074  0.0823
10541W        W26435  11.953   5.320  11.424 -0.0474 -0.0305 -0.1259
10542W        W26436   1.225  10.335  15.546 -0.1865  0.2971 -0.4072
10543W        W26437  12.923   0.859   0.322 -0.4177  0.1347  0.0505
10544W        W26438  11.084   3.219  15.794  0.0803 -0.2004 -0.2842
10545W        W26439  15.351   4.160   0.633 -0.1876  0.3916 -0.4066
10546W        W26440   2.067   9.662  17.094 -0.1363 -0.1112  0.1471
10547W        W26441  15.978   8.527   5.741  0.1167  0.0467 -0.1320
10548W        W26442  16.057   0.781   5.699 -0.3051  0.2210 -0.1068
10549W        W26443  10.924  10.480  17.095 -0.0522  0.1935 -0.0720
10550W        W26444   5.347   2.439   3.215  0.1031  0.2225 -0.1842
10551W        W26445   6.361   8.718  16.278 -0.0881  0.0618  0.3290
10552W        W26446   6.609   4.392   5.852  0.2388  0.0926  0.3543
10553W        W26447  13.530  17.075  13.980 -0.2414  0.1770 -0.3020
10554W        W26448   8.168  10.382  14.859  0.0154 -0.0911 -0.1846
10555W        W26449  12.438   5.113   3.255  0.2478 -0.2071 -0.1858
10556W        W26450  16.268  10.458   0.322 -0.3380 -0.3313  0.0371
10557W        W26451   5.124   4.892   2.757 -0.3753 -0.1638 -0.0799
10558W        W26452  13.629  14.520   3.823 -0.0771  0.3059  0.2770
10559W        W26453  13.724  17.355   4.447 -0.0982  0.1613  0.1808
10560W        W26454   8.043   8.678   5.063  0.1659  0.1734 -0.1116
10561W        W26455  14.052   3.183   3.139 -0.1385 -0.1566  0.0732
10562W        W26456  14.903  13.488  12.272 -0.0243  0.0996  0.0974
10563W        W26457   5.946   0.177  16.150 -0.0586  0.0455 -0.0402
10564W        W26458  10.572   6.283  14.637  0.0430 -0.3146  0.0498
10565W        W26459  15.723  15.696  13.348 -0.1979 -0.1596 -0.2148
10566W        W26460  16.202   6.786   0.602  0.1671 -0.0828 -0.0583
10567W        W26461  14.198   9.261  16.350 -0.0553 -0.0412  0.1797
10568W        W26462   9.064  12.193  14.186  0.3418 -0.2225  0.0729
10569W        W26463   7.562   6.739   4.094 -0.0359  0.3262 -0.2372
10570W        W26464  10.199  11.130  12.394 -0.1624  0.2554  0.3944
10571W        W26465  12.471   4.645   3.970 -0.0522  0.2683 -0.1393
10572W        W26466   4.372  13.730  13.626  0.0488  0.5015  0.0537
10573W        W26467   9.526   8.828   2.255  0.0271  0.0381  0.3270
10574W        W26468   2.895   2.013   6.278  0.1921  0.0627  0.4192
10575W        W26469   7.442   1.487   5.824 -0.0292 -0.1297 -0.0258
10576W        W26470   8.118  12.588   5.932 -0.1612  0.1356  0.2696
10577W        W26471   1.006   7.884   3.107 -0.1812  0.4856 -0.0415
10578W        W26472   8.235  11.499  12.898 -0.0250  0.2013 -0.1138
10579W        W26473   4.337   9.451  17.233  0.1605 -0.0003 -0.0520
10580W        W26474   8.348  17.385   3.462  0.0170  0.2040 -0.1674
10581W        W26475  11.994   0.678  14.605  0.1868 -0.0538 -0.0446
10582W        W26476  14.890   7.327   1.156 -0.1889 -0.0545  0.0742
10583W        W26477   7.309   8.696   4.816 -0.1652  0.1001 -0.1557
10584W        W26478  10.527  16.589   4.259  0.0020 -0.3220 -0.0009
10585W        W26479   6.025   0.040  12.744  0.1193 -0.0693  0.1357
10586W        W26480   3.917   1.967   0.625 -0.0479  0.2073 -0.1640
10587W        W26481   7.177   5.009  15.198  0.3462  0.2934 -0.0876
10588W        W26482  10.729   2.433  15.291 -0.1379  0.1415 -0.2960
10589W        W26483   7.500  13.863   6.433 -0.2149  0.3030 -0.2743
10590W        W26484   8.158  13.993  13.891  0.2653 -0.0386 -0.0225
10591W        W26485   9.776   4.288   2.483 -0.1710  0.4469  0.1622
10592W        W26486  13.028   5.477  17.154 -0.0246 -0.0227  0.0824
10593W        W26487   2.704   3.508  15.614 -0.1088  0.3058  0.0776
10594W        W26488  11.719  14.713   1.886 -0.2349 -0.1442 -0.2071
10595W        W26489  17.625   0.265  13.798 -0.3759 -0.1768  0.0948
10596W        W26490   3.751  11.511  12.129 -0.2456  0.2021 -0.0956
10597W        W26491  15.704   6.265  16.108 -0.4773 -0.0848 -0.1059
10598W        W26492   0.288   2.371  13.889 -0.0441  0.1219 -0.1922
10599W        W26493  10.877   0.365   0.049 -0.2634 -0.0830  0.2470
10600W        W26494   1.981   1.898   4.439 -0.1788  0.0546  0.1330
10601W        W26495   9.880   3.372   2.337 -0.0987 -0.5137 -0.0947
10602W        W26496  11.182  14.728   0.300  0.0719 -0.1837 -0.1452
10603W        W26497   1.069  17.047   2.399 -0.1872  0.0835  0.0874
10604W        W26498   5.677   1.402  13.645  0.1250  0.0744  0.0946
10605W        W26499  16.165  17.629   2.814 -0.1628  0.1409 -0.0455
10606W        W26500  11.563   9.783   2.083 -0.0016 -0.1510 -0.1326
10607W        W26501   7.943  10.207  11.626  0.1783  0.0983  0.1593
10608W        W26502  15.259  16.838   5.185 -0.0924 -0.1362 -0.1494
10609W        W26503  12.549  17.292  17.015 -0.2197  0.2519  0.0789
10610W        W26504   7.228   5.798  16.836 -0.3378  0.3100  0.1453
10611W        W26505  13.016   0.646  16.769  0.0474 -0.1254 -0.1668
10612W        W26506   3.980   4.601   0.728 -0.1103 -0.1635 -0.0199
10613W        W26507   7.317  10.918  17.022 -0.0928  0.1525 -0.2738
10614W        W26508   6.580  14.933   5.396 -0.1922  0.0750  0.0747
10615W        W26509  12.639  16.858  15.760  0.1199  0.1645  0.0604
10616W        W26510  17.357  14.438   4.184  0.3207 -0.2589  0.0158
10617W        W26511  11.402   9.428  13.483 -0.0613 -0.0567  0.1742
10618W        W26512  15.796   8.167   0.380 -0.0821  0.2499 -0.1654
10619W        W26513  16.759  13.559   2.387  0.1896 -0.0909 -0.0045
10620W        W26514   5.591  12.142  13.506  0.2046 -0.0595 -0.1586
10621W        W26515  12.354   3.888   5.312  0.1714  0.1181 -0.1343
10622W        W26516  11.978   7.152  16.263  0.0732  0.0507 -0.0895
10623W        W26517  13.028   5.169  14.966  0.0720  0.1865 -0.1551
10624W        W26518  14.855   0.695   5.709 -0.0555  0.0049  0.0741
10625W        W26519  16.311   0.879  12.786  0.0369  0.1067 -0.4688
10626W        W26520   9.540  14.559  11.687  0.1860  0.0203  0.1920
10627W        W26521  15.538   0.612   5.751  0.1909  0.0259 -0.0601
10628W        W26522  11.636   9.377   3.712  0.1601  0.0728  0.0511
10629W        W26523  17.100   5.795  15.270 -0.1669 -0.0806  0.0114
10630W        W26524   8.089   2.954   1.067  0.0252 -0.1245 -0.1407
10631W        W26525   7.865   6.304   3.777  0.1210 -0.1097  0.0450
10632W        W26526  12.214   1.246  12.822 -0.1053 -0.0799  0.1409
10633W        W26527  11.689  11.690  16.733 -0.3640  0.0507  0.2173
10634W        W26528  11.699   2.782  12.618  0.1055 -0.1262  0.0134
10635W        W26529   1.993   6.955   1.666  0.1999 -0.0147  0.1664
10636W        W26530  12.149   4.385  11.915 -0.0689 -0.2420  0.4875
10637W        W26531   2.052   9.486  14.526 -0.1915  0.0237  0.1811
10638W        W26532   0.369   5.635   1.748  0.3159 -0.0471 -0.1032
10639W        W26533  15.486  11.823   2.172  0.0273  0.1089 -0.1406
10640W        W26534  13.637   3.941   0.619  0.0842  0.1082 -0.0969
10641W        W26535   7.292   0.397  15.948  0.0394  0.0547  0.1055
10642W        W26536   5.435   8.359   0.037 -0.3275  0.4110 -0.2175
10643W        W26537  15.653   5.829   1.104 -0.1261  0.2175  0.1129
10644W        W26538  13.030  11.563   2.655 -0.0765  0.1996 -0.1940
10645W        W26539   5.738  11.557  12.490 -0.1223  0.0750 -0.3765
10646W        W26540  13.117  15.349   0.969 -0.1298  0.2230  0.0264
10647W        W26541   8.141   0.492  13.196 -0.1424  0.0302 -0.1807
10648W        W26542   9.848   8.758  16.240 -0.0242 -0.0702 -0.1195
10649W        W26543  15.887   0.578  15.790  0.0978 -0.2516  0.1089
10650W        W26544   1.672  10.196   4.259 -0.2416 -0.0751 -0.5259
10651W        W26545  11.755  12.998  15.051  0.1918  0.1150 -0.0142
10652W        W26546   5.367   5.601  16.824 -0.0122  0.3341  0.1961
10653W        W26547   8.962   7.310   2.189  0.0670 -0.0604  0.0328
10654W        W26548   4.978  17.211   5.367  0.1660  0.2584  0.1518
10655W        W26549   8.465   2.775   0.447  0.0025 -0.0308 -0.1007
10656W        W26550   1.367  16.488  12.223 -0.0931  0.3060 -0.4068
10657W        W26551  13.258   5.333   1.581 -0.2786  0.0620 -0.0720
10658W        W26552   7.729   0.736  13.628  0.0088 -0.1161  0.1519
10659W        W26553   7.767  14.538  15.349 -0.0523 -0.1054  0.2704
10660W        W26554  15.877   2.712   5.580 -0.0612 -0.4103  0.1037
10661W        W26555  15.476  14.643   2.111 -0.1331  0.0831  0.2874
10662W        W26556  13.732   1.666   4.974 -0.0219  0.1799 -0.0319
10663W        W26557   2.715   2.413  13.505 -0.1244 -0.0379 -0.0962
10664W        W26558   5.885   6.963  14.661  0.0615 -0.0951 -0.1401
10665W        W26559   8.548   8.679  17.005 -0.2744  0.2859  0.1718
10666W        W26560  11.454  15.603  12.123  0.0200  0.0522  0.2718
10667W        W26561  16.705   9.199   5.884  0.1072 -0.1421 -0.0308
10668W        W26562  17.262  12.619   5.355  0.0437  0.0244 -0.1817
10669W        W26563  14.731   3.739   2.811  0.2983  0.1175 -0.3175
10670W        W26564  10.180   7.361   4.299 -0.0385  0.0998 -0.1670
10671W        W26565   5.575   8.951   0.914  0.1012 -0.0811  0.1228
10672W        W26566   9.413   3.606   0.650 -0.3396 -0.0377  0.2626
10673W        W26567   0.933   3.107   3.047 -0.0542 -0.2348  0.1248
10674W        W26568   5.430  16.422  15.420 -0.1300 -0.1068  0.1557
10675W        W26569   1.742  15.996   5.901  0.1199  0.2006  0.3951
10676W        W26570  13.919  15.190   2.273  0.2596 -0.0580  0.0521
10677W        W26571  16.419  14.086  11.652 -0.0357  0.0780 -0.2163
10678W        W26572  13.056  12.320  13.356 -0.0793 -0.0843  0.3357
10679W        W26573   1.955   5.624   3.093  0.0608  0.0155  0.1747
10680W        W26574   9.913   9.911   3.511  0.0848 -0.2297  0.1277
10681W        W26575   6.196   6.136   3.737 -0.1413  0.0140  0.1739
10682W        W26576   4.031   0.751   5.458 -0.1499  0.2222  0.0280
10683W        W26577   0.778  12.091  11.779 -0.3063 -0.1380 -0.1766
10684W        W26578   9.564  12.332  12.741 -0.0200  0.4381 -0.0312
10685W        W26579   5.107  14.958  16.194  0.0701  0.0678  0.1239
10686W        W26580   3.374   5.901  14.390 -0.2266  0.2449 -0.0144
10687W        W26581   9.425   7.535   1.629 -0.2715 -0.0906  0.0266
10688W        W26582  12.957  16.458  13.439 -0.2182 -0.2241 -0.0457
10689W        W26583   8.733   3.548   4.226  0.1494  0.3418 -0.0732
10690W        W26584   8.169   0.858   5.309  0.2365 -0.0311 -0.0217
10691W        W26585  16.399  13.321  13.620  0.2297 -0.0666 -0.0171
10692W        W26586   0.041  17.195   1.848 -0.1066 -0.1911  0.0705
10693W        W26587  12.744   8.836   0.242 -0.0336  0.0375 -0.0722
10694W        W26588   9.911   7.788   4.303  0.1092 -0.3497 -0.0635
10695W        W26589  16.634   4.082  14.905  0.3030  0.4744 -0.3480
10696W        W26590   0.724   6.580   1.873  0.1598 -0.3227  0.2144
10697W        W26591  10.357   3.197  13.288 -0.0099  0.0594 -0.0767
10698W        W26592  16.851   7.420  16.926  0.0042 -0.0641 -0.4485
10699W        W26593  15.179  14.565   5.124 -0.0400  0.1244  0.0316
10700W        W26594  11.254   2.958  14.944 -0.0747 -0.2085  0.0606
10701W        W26595  16.696   5.603  14.904 -0.3034  0.5255  0.2092
10702W        W26596   1.583   7.723  15.451 -0.0627  0.1968  0.0029
10703W        W26597   2.164  13.126  15.030  0.4965 -0.2519  0.0923
10704W        W26598   5.028  15.110   4.532 -0.1736  0.2394  0.0445
10705W        W26599  11.605   8.455  16.767  0.0708 -0.4467 -0.0253
10706W        W26600   2.867  16.183  16.511 -0.0346  0.4190  0.1623
10707W        W26601  12.252  12.098   1.930 -0.0456 -0.0147 -0.2507
10708W        W26602   5.065  13.825   0.590 -0.1108  0.1293 -0.0042
10709W        W26603  15.980  14.205  16.488 -0.0374  0.1868 -0.0281
10710W        W26604   4.869   5.604  11.893 -0.2648 -0.2723  0.3013
10711W        W26605   2.678   0.698  12.657  0.1199  0.0588  0.1016
10712W        W26606  10.146  15.679  15.157  0.1631  0.4423  0.1231
10713W        W26607  16.672   7.037   3.828  0.0827  0.0581  0.2061
10714W        W26608  12.985  11.232  15.041  0.1515 -0.1101 -0.1254
10715W        W26609  12.004   6.431  14.261  0.3242 -0.1485 -0.0529
10716W        W26610  13.225  13.117  12.225 -0.0072  0.0395  0.0311
10717W        W26611   6.529  11.896  12.815 -0.4112 -0.0303  0.1151
10718W        W26612  16.419  15.435   1.094  0.0024  0.2431  0.2142
10719W        W26613  11.886  12.569   5.315 -0.1284 -0.2223 -0.0653
10720W        W26614  15.256   8.055  16.972 -0.2071 -0.1347 -0.0070
10721W        W26615   4.863  11.027  13.504 -0.0647  0.1564 -0.3500
10722W        W26616  15.782   4.204  13.300  0.1558 -0.0380  0.3316
10723W        W26617  12.979  16.601   5.588  0.1843 -0.2624 -0.3331
10724W        W26618   6.196  12.521  16.035 -0.1667 -0.0742 -0.0042
10725W        W26619   6.152   2.964  16.707  0.2709  0.1813 -0.1465
10726W        W26620  12.723   5.699   4.866  0.1076 -0.1500  0.3057
10727W        W26621  15.243   0.264  11.992 -0.0218  0.2369  0.1845
10728W        W26622  14.904   9.662   6.157  0.0431 -0.2185 -0.0295
10729W        W26623  14.531   0.451   3.327  0.0169 -0.0476  0.2790
10730W        W26624  16.780  10.329   3.777 -0.1323  0.1351  0.0212
10731W        W26625   4.596   8.961   1.187 -0.2806 -0.4157  0.0745
10732W        W26626   5.182   9.128  14.899  0.1152 -0.0735  0.2382
10733W        W26627   3.041   2.837  13.813  0.0327  0.2072  0.0256
10734W        W26628   6.822  11.634   4.364  0.0513 -0.2323 -0.1327
10735W        W26629  11.567  13.228  13.818  0.0978 -0.1206 -0.0373
10736W        W26630   8.236   9.390   1.906  0.0558  0.0377  0.0275
10737W        W26631  13.882  10.674  12.639 -0.2097  0.0569  0.0398
10738W        W26632  15.242   7.127   4.380  0.3754  0.0260 -0.0525
10739W        W26633   6.712  16.569  15.463 -0.1253 -0.2450 -0.1971
10740W        W26634   5.574  15.569   3.104  0.1734  0.2225 -0.0248
10741W        W26635   7.012  12.094  12.656  0.2917 -0.1568  0.0086
10742W        W26636   3.570   1.643   6.777 -0.0617 -0.2136 -0.1848
10743W        W26637   4.664   1.678   4.083  0.2091  0.1778  0.2469
10744W        W26638   4.622  15.283   5.836  0.1064  0.2732 -0.4449
10745W        W26639  10.081  14.260   4.250  0.1612 -0.1882 -0.0491
10746W        W26640   1.510  15.782  13.053 -0.0750 -0.3072 -0.1887
10747W        W26641  16.991  12.192   2.510 -0.1000  0.0107  0.1144
10748W        W26642   5.881  12.947  17.225  0.2319  0.1276 -0.2855
10749W        W26643   8.897   1.683  12.061  0.3648 -0.1181 -0.0012
10750W        W26644   4.932  16.279   0.845 -0.1119 -0.0410  0.3198
10751W        W26645  13.149   0.303   1.171  0.2639 -0.2058  0.1255
10752W        W26646  17.336   3.691   5.093  0.1618  0.0439 -0.2386
10753W        W26647   1.345   9.995  13.532  0.0619 -0.2143 -0.0270
10754W        W26648   1.040   0.691   0.050  0.2136 -0.3030  0.1868
10755W        W26649   7.687   0.345  13.177  0.1724  0.0028 -0.1855
10756W        W26650   2.322   6.843  12.806  0.0954 -0.1686  0.2649
10757W        W26651  12.130   3.808   5.779 -0.1865 -0.0583 -0.1215
10758W        W26652  10.375  15.542  16.049 -0.1685  0.1564 -0.3241
10759W        W26653   5.625  10.829   0.937 -0.0236  0.1717 -0.0288
10760W        W26654   2.325  11.891   4.216 -0.0599 -0.1388  0.4449
10761W        W26655  12.364  16.332  15.959  0.1319  0.1766 -0.0050
10762W        W26656   4.202  17.222   5.507  0.0883 -0.1259  0.1320
10763W        W26657  12.719   4.126   3.278 -0.1983 -0.0583 -0.1328
10764W        W26658   2.779  13.181  11.760 -0.1430  0.3466  0.1403
10765W        W26659   1.108   5.180   3.778 -0.2044 -0.0542  0.2551
10766W        W26660   8.051   1.076  17.148 -0.1302  0.0281  0.0884
10767W        W26661   0.661  17.517   4.847 -0.2191  0.0340  0.1480
10768W        W26662  15.551  11.568   0.805  0.2199 -0.2775 -0.2520
10769W        W26663  15.998  16.584  15.949  0.2936 -0.2131 -0.3500
10770W        W26664  10.087   1.774  15.410 -0.1338 -0.1332 -0.0311
10771W        W26665   5.642   8.311  16.356 -0.1486 -0.0586 -0.3084
10772W        W26666  17.549   7.688   0.860  0.0904 -0.0419 -0.2076
10773W        W26667  16.508  11.561   0.533 -0.2501 -0.0490 -0.1966
10774W        W26668  12.910   1.425   2.161 -0.1721 -0.0121  0.0117
10775W        W26669   2.691   3.688   5.595  0.2373  0.1156 -0.3307
10776W        W26670  11.822  17.479  11.846  0.1549  0.2127 -0.1873
10777W        W26671   7.697  13.314   2.087  0.4193 -0.2385  0.0661
10778W        W26672  13.760   9.782  17.092 -0.3670 -0.1759  0.1998
10779W        W26673  10.098   9.491   0.479 -0.4246 -0.1481  0.0510
10780W        W26674   3.312   7.080  13.099  0.1015  0.1434 -0.0317
10781W        W26675  14.824   7.480  15.411  0.0263 -0.1561  0.4304
10782W        W26676   1.450  10.920  14.074 -0.1648  0.0122  0.0278
10783W        W26677   1.642   0.648   1.376  0.2076  0.0818 -0.0904
10784W        W26678   6.651  10.258  11.096 -0.0338  0.0438  0.4874
10785W        W26679   8.146  14.360   1.488  0.0005  0.0468 -0.0334
10786W        W26680   7.084   4.732  16.681 -0.0590  0.0078 -0.1223
10787W        W26681   0.789   0.110   1.268  0.0787  0.0025 -0.0929
10788W        W26682   9.243   2.827   1.782  0.2285  0.2453  0.1266
10789W        W26683  17.110   4.219  12.506  0.1773  0.0165  0.1045
10790W        W26684  16.866  11.874  12.182  0.0796 -0.3108  0.0745
10791W        W26685   0.986  13.520   3.599 -0.2256 -0.0808 -0.0276
10792W        W26686  13.002   8.935  14.983 -0.1239  0.0533  0.0483
10793W        W26687  15.428  10.139  13.853  0.2904  0.0530  0.1322
10794W        W26688   5.838   8.028   1.362  0.1565  0.0375 -0.1634
10795W        W26689   7.676  16.690   1.796 -0.3490 -0.1202 -0.2528
10796W        W26690   0.895   7.258  13.669 -0.0325  0.1035 -0.2099
10797W        W26691   6.644  13.067   2.244  0.1196  0.1953  0.1136
10798W        W26692   3.358  14.870  10.923  0.1046  0.1080  0.2281
10799W        W26693  11.265   9.680  16.550 -0.2586  0.2393 -0.1696
10800W        W26694   7.376  16.218   1.615  0.0935 -0.0457 -0.4476
10801W        W26695   5.934  15.368  11.896 -0.0897  0.2559  0.0097
10802W        W26696  14.556   1.145   5.783  0.1246  0.0228  0.0617
10803W        W26697  12.995  14.367  15.207 -0.0004 -0.2039 -0.1073
10804W        W26698   8.818   8.856  16.539  0.0483 -0.1972  0.0261
10805W        W26699   3.479  11.670  15.033  0.0194 -0.0940 -0.0994
10806W        W26700  14.576   2.858  13.803 -0.1142 -0.1262 -0.1769
10807W        W26701   6.865   9.849  13.788 -0.0890  0.1175 -0.2707
10808W        W26702  16.967  17.158  11.675 -0.1207  0.1972 -0.3000
10809W        W26703   4.033   1.015  15.312  0.1976  0.0908 -0.0346
10810W        W26704   3.731  15.930   3.483 -0.0197 -0.0683  0.2254
10811W        W26705  12.266  11.122   2.785 -0.4742 -0.1682  0.2697
10812W        W26706   2.227  10.354   5.300  0.2391  0.2416  0.0184
10813W        W26707  16.245   6.423   2.311  0.0609  0.0292 -0.2833
10814W        W26708   8.589   6.942  12.812 -0.1141  0.2450  0.1003
10815W        W26709   8.478   2.490  14.924 -0.1992  0.0109  0.2387
10816W        W26710   8.590  14.655  13.511  0.2735  0.1240  0.1721
10817W        W26711   3.400  14.751   5.373  0.1049 -0.1526 -0.1755
10818W        W26712  13.950   1.870   1.108  0.0020 -0.0282 -0.2086
10819W        W26713   5.415  15.403   4.178 -0.0625 -0.0223 -0.3862
10820W        W26714   3.356  10.690  14.794 -0.1324 -0.2609  0.0913
10821W        W26715   1.318  10.041   5.115 -0.1780  0.0858 -0.0756
10822W        W26716   9.007   4.276   4.722 -0.1329 -0.1993 -0.1251
10823W        W26717   8.947  13.444   3.374 -0.1350  0.0084  0.1045
10824W        W26718   0.582   4.686  14.509 -0.0868 -0.1367 -0.1988
10825W        W26719  11.088  13.239  13.877  0.0493 -0.1434  0.2537
10826W        W26720  16.180   1.531  16.494  0.2767  0.1419 -0.2000
10827W        W26721   0.092   7.932   1.911 -0.2220  0.1939 -0.1454
10828W        W26722  12.331   9.334  14.867  0.0432  0.1365 -0.4169
10829W        W26723   2.144   6.773  15.528  0.1317 -0.0675  0.0469
10830W        W26724   5.783  10.394   0.688  0.0107 -0.1843  0.1003
10831W        W26725   8.328  15.665   1.102 -0.1089 -0.0648 -0.2070
10832W        W26726   7.099   7.684  15.443 -0.1296  0.0182  0.0033
10833W        W26727   3.272   1.472   3.654 -0.1412 -0.0377 -0.0352
10834W        W26728   8.138   4.979  15.828  0.0513 -0.0105 -0.1580
10835W        W26729   0.515  15.358  12.385 -0.0813 -0.3061 -0.1781
10836W        W26730   8.687  12.867  17.288 -0.1036 -0.2452  0.0783
10837W        W26731   6.166   5.325  15.981 -0.0650  0.2667  0.0560
10838W        W26732   1.096   8.853  12.601 -0.1771 -0.0804  0.0932
10839W        W26733  15.143   3.857  16.445 -0.0993 -0.1460  0.1177
10840W        W26734  16.340   6.046   0.397  0.0645 -0.2550 -0.2950
10841W        W26735  12.955  15.818   3.797 -0.0590  0.0535 -0.1030
10842W        W26736  14.897   7.823   1.486  0.2547  0.0714  0.0013
10843W        W26737  17.585  17.336  17.155  0.0977 -0.1527 -0.0126
10844W        W26738  13.588  11.661  12.720  0.0445  0.0391 -0.1994
10845W        W26739  12.473   9.889  16.396  0.0623  0.2254  0.1898
10846W        W26740  12.530  10.812   4.228  0.1416 -0.1155  0.3015
10847W        W26741   7.616   4.862  14.191 -0.2420 -0.0560  0.0621
10848W        W26742  11.394  14.390   1.625  0.4175  0.0537  0.0167
10849W        W26743   6.951   1.213  13.738 -0.0945 -0.4094  0.1267
10850W        W26744   4.544   7.147  14.204 -0.1991  0.2445  0.0216
10851W        W26745   4.974  16.799   6.740 -0.1852 -0.1195  0.0400
10852W        W26746   2.108   0.135  16.682  0.0077 -0.2680  0.1138
10853W        W26747   8.618  14.625   4.024 -0.4713  0.1489 -0.0818
10854W        W26748   2.228   5.147   0.641  0.0430  0.0660  0.4688
10855W        W26749  15.884   0.719   0.524  0.2274  0.0321 -0.3060
10856W        W26750   8.692   8.781   4.001 -0.0476  0.1641 -0.0381
10857W        W26751  17.139  14.827   1.612 -0.2445 -0.0029  0.0635
10858W        W26752   4.510   6.902  14.629  0.1248  0.0051 -0.3492
10859W        W26753  16.969   5.110   4.690  0.1566 -0.2407  0.2245
10860W        W26754   9.906   6.178  17.035  0.3450 -0.0473 -0.0753
10861W        W26755   7.607  13.858   3.656 -0.1577 -0.0241  0.2307
10862W        W26756   9.747  17.478   4.992 -0.2440  0.1276  0.0065
10863W        W26757   0.541   9.815  13.521  0.1104 -0.0662 -0.0782
10864W        W26758  15.009  11.925   4.891 -0.1700 -0.1164  0.2673
10865W        W26759  17.269  10.107   4.466 -0.7803 -0.0423 -0.2936
10866W        W26760   1.578  12.362  12.093 -0.1571  0.0515  0.0542
10867W        W26761  12.406   3.624  15.599  0.1016 -0.0282  0.1493
10868W        W26762  11.627  15.921  13.598 -0.0620 -0.0641 -0.2335
10869W        W26763  17.144  17.164   6.446 -0.2293  0.1768 -0.0324
10870W        W26764  14.362   7.699   4.361  0.0317 -0.0624 -0.2765
10871W        W26765   2.464  15.667   1.885 -0.0215 -0.0245 -0.1579
10872W        W26766  15.396   2.390  15.640  0.1260  0.2501 -0.1511
10873W        W26767   6.782   1.212  13.188 -0.1783 -0.0496 -0.0910
10874W        W26768   9.040   0.629   1.530  0.1181  0.1589  0.0941
10875W        W26769   0.042   4.054  12.348 -0.0430  0.2018  0.0955
10876W        W26770   2.540   4.239   5.849  0.1796 -0.2756 -0.1735
10877W        W26771  16.408   5.850  16.746  0.2503 -0.0387  0.0947
10878W        W26772   6.136  16.335   6.232 -0.1795 -0.1569 -0.0905
10879W        W26773   8.018   6.452   4.271  0.0511  0.1690  0.0251
10880W        W26774   7.712  16.857  15.027 -0.3104  0.2576 -0.2662
10881W        W26775   2.746  10.209   1.905  0.0087  0.0753  0.2475
10882W        W26776   5.403  14.070  12.025 -0.1282 -0.1910 -0.1013
10883W        W26777  17.108   5.165  16.682  0.1571 -0.0963 -0.0552
10884W        W26778   6.892   4.686  14.899  0.1520  0.0533  0.1175
10885W        W26779  13.318   2.520  16.257 -0.2855  0.1841 -0.4083
10886W        W26780   8.736   8.471   3.006  0.1551  0.1604 -0.0330
10887W        W26781   1.605   2.067   4.156 -0.0975 -0.2597  0.1099
10888W        W26782  14.250   8.049  14.079  0.3182  0.1524 -0.1344
10889W        W26783  14.626  17.036  17.087  0.3411  0.2754 -0.0290
10890W        W26784   5.775   5.392  12.860  0.0212 -0.0099 -0.0649
10891W        W26785   2.991   9.135  14.440 -0.4464  0.1731 -0.1537
10892W        W26786  16.461  16.144  13.428  0.1178  0.1744 -0.0089
10893W        W26787  13.074   3.938   1.197  0.1548 -0.1734  0.2973
10894W        W26788   0.734  15.609  16.734 -0.0262 -0.1444 -0.1181
10895W        W26789   2.259  16.332   3.361 -0.3014 -0.0433  0.1706
10896W        W26790   7.753   0.466  12.668 -0.0567 -0.3279  0.1031
10897W        W26791  13.120  13.033  14.704 -0.2379  0.3111  0.1256
10898W        W26792   8.720  13.548  12.497 -0.1203 -0.0068 -0.1332
10899W        W26793  16.240   3.517   1.325  0.2529  0.0692 -0.1328
10900W        W26794   5.794  10.031  15.717  0.0332 -0.1397 -0.3731
10901W        W26795  14.749  10.396   0.519 -0.3931  0.0207  0.0216
10902W        W26796   1.562  13.484  16.916 -0.0473  0.0429 -0.2961
10903W        W26797   8.175   8.954   1.680 -0.1019 -0.0684 -0.0538
10904W        W26798  10.507   0.529  12.881 -0.0267 -0.1020  0.0729
10905W        W26799   0.817  17.031   4.679 -0.0374 -0.1568  0.1716
10906W        W26800  12.135   2.951  16.852  0.0445 -0.1725 -0.0035
10907W        W26801  14.167   8.980   1.686  0.1899 -0.0916  0.0134
10908W        W26802  12.180  11.588  13.408  0.3180 -0.0480  0.2692
10909W        W26803   8.909  13.801  13.171 -0.0535  0.1829  0.2300
10910W        W26804  10.349  12.536   4.212 -0.1964 -0.3153 -0.1380
10911W        W26805  14.178  11.540  13.413  0.0313 -0.3766  0.3935
10912W        W26806   6.930  16.029  11.903  0.1029  0.0824 -0.3271
10913W        W26807   1.098   2.937  16.886 -0.0553 -0.1740 -0.1421
10914W        W26808   4.598   8.797   3.052 -0.1972 -0.0695  0.1042
10915W        W26809   1.726   9.776   1.175 -0.2176 -0.1921  0.2580
10916W        W26810   9.119  10.971  16.393  0.1126  0.3038 -0.1379
10917W        W26811   2.916   2.056   0.334  0.1657  0.0246 -0.1081
10918W        W26812   4.747  11.297  12.619  0.0040 -0.0456 -0.1266
10919W        W26813   1.045   9.312  16.347  0.4635 -0.1613  0.3383
10920W        W26814  17.107  15.888   0.858  0.2075  0.0856  0.1977
10921W        W26815  12.090   3.766  12.788  0.0160  0.1018  0.0979
10922W        W26816   5.004  11.683  17.121  0.0681  0.1408 -0.1168
10923W        W26817   5.347   2.045  13.156  0.1799  0.0100 -0.2461
10924W        W26818   0.598   0.765   2.977 -0.1715  0.1108  0.2975
10925W        W26819  10.248   1.201   3.526 -0.0547  0.0731  0.0579
10926W        W26820   6.954  17.391   3.774 -0.1977  0.1315 -0.4810
10927W        W26821   2.074  17.629   6.329 -0.1170 -0.3304 -0.2756
10928W        W26822   8.732   0.932   5.215  0.0963  0.0073 -0.0896
10929W        W26823  13.288  10.522  16.619  0.1064 -0.4249 -0.0533
10930W        W26824   4.827   2.802  14.369  0.1233 -0.1210  0.0611
10931W        W26825   2.931   4.628  16.254  0.2168  0.1578 -0.2604
10932W        W26826  11.065  14.254  16.800 -0.2785  0.0095  0.0865
10933W        W26827  11.609  16.344   5.205 -0.1409 -0.1966 -0.0191
10934W        W26828   9.446  15.434  11.969 -0.3194  0.1694  0.1215
10935W        W26829  10.380  15.771   3.750  0.3553 -0.0295  0.1542
10936W        W26830   2.141  15.733  14.828 -0.1918  0.1191 -0.1771
10937W        W26831  13.528   3.482   3.344 -0.0083  0.3392 -0.0794
10938W        W26832   6.751   0.807   2.707 -0.0360 -0.1424 -0.1462
10939W        W26833   6.384   8.001  12.717  0.1488 -0.1120 -0.0181
10940W        W26834  10.505   6.563  16.444  0.1331  0.0662 -0.0051
10941W        W26835   4.977   6.838  16.793  0.0285 -0.1066  0.0002
10942W        W26836   5.776   1.302  13.054  0.0390  0.0177 -0.1104
10943W        W26837   2.738  12.233  13.027  0.2878  0.2896  0.2226
10944W        W26838   9.304   2.762   2.936 -0.2530 -0.3259  0.3529
10945W        W26839  14.097   4.582  15.790 -0.2417  0.0740  0.2422
10946W        W26840   4.524  17.430  15.772 -0.0771  0.0661 -0.0978
10947W        W26841   7.517  13.834  15.598 -0.1688 -0.3355  0.0878
10948W        W26842   2.671   6.908   5.076 -0.0454  0.1340  0.0670
10949W        W26843   8.888   0.324  15.774 -0.0236  0.2104  0.0052
10950W        W26844  15.046   4.841  15.710 -0.1891  0.1210  0.5065
10951W        W26845   6.278  13.976   0.200  0.2264 -0.2467 -0.2758
10952W        W26846   0.273   4.959  12.760  0.1078 -0.2476 -0.1609
10953W        W26847   9.755   8.148  14.999 -0.2480 -0.1329 -0.0906
10954W        W26848  14.638   8.798   5.041 -0.0297  0.1211  0.1398
10955W        W26849   3.523   6.537  12.427 -0.4741  0.1451 -0.1337
10956W        W26850  17.580  16.916  14.523  0.0390  0.1052  0.1124
10957W        W26851   2.810  15.145   0.775  0.1384 -0.0902 -0.2778
10958W        W26852   2.104   6.675  14.215  0.3219 -0.1711 -0.0070
10959W        W26853  12.824   8.547   3.322  0.0506 -0.1064 -0.0615
10960W        W26854  14.319  11.595   4.376 -0.1900  0.0187 -0.2063
10961W        W26855  16.245  15.633  15.054 -0.0974  0.1248 -0.0899
10962W        W26856  10.865  14.773  12.867 -0.0007  0.1253  0.0181
10963W        W26857   6.176   3.974  15.793  0.1706 -0.0413 -0.1844
10964W        W26858   8.032  14.967  15.315 -0.1761 -0.0396 -0.1291
10965W        W26859   1.947   0.180  14.432  0.0510  0.4174 -0.1199
10966W        W26860   7.164   6.588   2.227 -0.0429 -0.1463 -0.0784
10967W        W26861  17.582   9.283  16.252 -0.1854  0.1532  0.2441
10968W        W26862   3.997   9.185  12.686  0.0780 -0.0817 -0.3588
10969W        W26863   0.552   7.237   2.269  0.0971 -0.0614 -0.3639
10970W        W26864  15.301  15.187  11.908 -0.1293  0.1198 -0.1538
10971W        W26865  11.243   7.337   3.243  0.0923 -0.0962 -0.0194
10972W        W26866  14.605  14.447   4.277  0.2473  0.0004  0.0997
10973W        W26867   4.893   1.070   1.559 -0.0967 -0.1656 -0.0439
10974W        W26868  12.289   4.134   2.139  0.0639 -0.0801 -0.2800
10975W        W26869   4.081   2.390   0.754  0.3188 -0.1003  0.0355
10976W        W26870  12.686  13.379  16.364 -0.2084 -0.1065 -0.1918
10977W        W26871  11.584   0.983   3.953  0.1799  0.2210 -0.2061
10978W        W26872  10.471   4.332  12.495 -0.0234 -0.1139 -0.0871
10979W        W26873   7.047   7.463  13.674  0.3181  0.0488  0.1351
10980W        W26874  17.056  12.507   3.017 -0.1245 -0.0430 -0.0165
10981W        W26875  16.754  12.068  15.513 -0.2916  0.0061 -0.1476
10982W        W26876   5.786   7.912   5.169 -0.0966  0.1987  0.0497
10983W        W26877   4.607  10.233   1.041  0.1764 -0.3181  0.1557
10984W        W26878  16.754   2.748   0.517  0.1552  0.1406 -0.2239
10985W        W26879   8.512  10.846   4.112 -0.1879  0.0042  0.1021
10986W        W26880  11.269   2.984  14.432 -0.2956 -0.0656 -0.0692
10987W        W26881   8.730   0.548  13.354  0.1394  0.3329  0.1859
10988W        W26882  12.216  11.118   2.231 -0.0663  0.0453  0.0897
10989W        W26883  15.010  14.100   0.993 -0.0533 -0.1798  0.0421
10990W        W26884  17.606  14.514   0.424 -0.1320 -0.1045  0.1564
10991W        W26885   0.662   9.002   1.060 -0.2405  0.2808 -0.4063
10992W        W26886  11.624   5.806  16.806 -0.0868 -0.2598  0.0829
10993W        W26887  10.792   8.544   3.059 -0.0738 -0.2743 -0.2396
10994W        W26888   6.303  13.716   5.594  0.2130  0.2700 -0.0201
10995W        W26889   6.426  15.938  13.121 -0.1302  0.1254  0.0118
10996W        W26890   6.543   0.423   1.310  0.0771  0.2237  0.1168
10997W        W26891   0.753  10.453   3.805 -0.1336  0.1745  0.1480
10998W        W26892   4.810   2.847   4.095 -0.1179  0.4151 -0.0277
10999W        W26893   5.620   1.139   5.949  0.4164 -0.2971  0.0878
11000W        W26894  17.255   2.602  13.937  0.1936 -0.0499  0.0624
11001W        W26895   4.737   3.654   0.819  0.0217 -0.1570  0.1222
11002W        W26896  14.637   0.266   2.870  0.0500 -0.1564  0.2460
11003W        W26897   5.474  15.793  14.549 -0.1759  0.0739  0.3557
11004W        W26898  17.238  14.745   3.187  0.1005 -0.2880 -0.1719
11005W        W26899  12.313   2.315   5.811  0.0273  0.1955 -0.1777
11006W        W26900   7.667   1.000  12.631  0.0307  0.1120  0.2402
11007W        W26901   4.614  11.417  13.502  0.1594  0.2384  0.0577
11008W        W26902  11.659  11.191   5.245  0.0269  0.0413  0.0391
11009W        W26903   3.420  15.584   6.201 -0.2024  0.2340  0.1736
11010W        W26904   5.532   0.692   6.807 -0.0804  0.0331  0.0536
11011W        W26905  13.550   2.615   3.325 -0.2814  0.0871 -0.0402
11012W        W26906  14.080  14.847  14.091 -0.0587  0.1910  0.0685
11013W        W26907  11.952  10.123  11.175 -0.0294 -0.2381 -0.3110
11014W        W26908  14.979   2.496   3.899  0.2074  0.3093 -0.1184
11015W        W26909  14.615  10.723   2.750  0.2260  0.1530  0.0243
11016W        W26910  15.142  11.905   1.725 -0.1309  0.0095 -0.2719
11017W        W26911  11.557  13.880   0.177 -0.4143 -0.0484  0.2585
11018W        W26912   1.637   4.762   1.349 -0.0162 -0.1876  0.1669
11019W        W26913  17.310   9.656  12.312 -0.0738 -0.0250  0.0300
11020W        W26914   9.627   8.942  11.247 -0.0104  0.0666 -0.0563
11021W        W26915   2.280  14.452  16.366  0.0621 -0.2689 -0.0593
11022W        W26916  16.455  11.163   3.317  0.2951  0.1394  0.2140
11023W        W26917   6.432  15.942   6.333 -0.3596  0.2993  0.0622
11024W        W26918   3.682  11.718   1.942 -0.0787  0.2421  0.2016
11025W        W26919   2.044   8.373   4.009  0.1811 -0.4108 -0.1214
11026W        W26920   3.559   6.155   5.687 -0.0202 -0.0230  0.0828
11027W        W26921  13.450   7.313   4.843 -0.1889 -0.0622 -0.1121
11028W        W26922   1.086  14.792  15.874  0.3189 -0.0843 -0.0153
11029W        W26923   8.200  17.162   1.077 -0.0510  0.3179 -0.2670
11030W        W26924  16.270   5.178  13.701 -0.0458 -0.1299 -0.2110
11031W        W26925   2.304   0.636   0.404  0.0160 -0.2676  0.0037
11032W        W26926  10.513   6.915  14.008 -0.0653 -0.0447  0.1064
11033W        W26927  17.260   8.468  12.335  0.4339  0.0986 -0.0791
11034W        W26928   9.897   0.758  15.256 -0.0433 -0.1665 -0.0739
11035W        W26929   5.378  15.581   5.307  0.0205 -0.0720 -0.1233
11036W        W26930   8.162   6.186   1.576  0.0913  0.1777  0.3256
11037W        W26931   4.913   2.644  13.913 -0.0723 -0.0918  0.1921
11038W        W26932   3.718   6.317   2.246 -0.2514 -0.2133 -0.0399
11039W        W26933  14.004  10.737   0.323 -0.0726  0.0475 -0.1063
11040W        W26934   9.117   8.291  13.869  0.0322 -0.1433  0.2282
11041W        W26935   4.545   8.669  15.040  0.2522  0.2162 -0.1670
11042W        W26936   9.968  11.519  15.193 -0.0753 -0.0390  0.2826
11043W        W26937   0.286   9.066   5.318 -0.0680 -0.0857 -0.1786
11044W        W26938   7.133   5.276  13.655  0.1340  0.2294  0.2867
11045W        W26939   6.020  13.226  13.297  0.0781  0.2201  0.1575
11046W        W26940  15.405   2.208  16.904 -0.1359  0.0934 -0.0925
11047W        W26941   8.702  10.177   0.541  0.1587  0.1748  0.0247
11048W        W26942  14.628  11.762  13.432 -0.0219  0.1332  0.0048
11049W        W26943  15.771   1.469  15.207 -0.0010 -0.1572 -0.1239
11050W        W26944  11.892  14.643  15.374  0.1162  0.2709  0.2324
11051W        W26945   1.833   8.305  16.460 -0.1679  0.0589  0.0475
11052W        W26946   1.561   5.617  11.283  0.1971  0.0769 -0.0222
11053W        W26947  16.069   6.672   1.318  0.0124  0.2527 -0.1576
11054W        W26948   7.011   8.720   3.315  0.1031 -0.0089 -0.1893
11055W        W26949   1.953   0.462   3.734 -0.2078  0.2838 -0.0472
11056W        W26950   8.353  12.697  12.270  0.1109  0.0664  0.1395
11057W        W26951   2.873   5.457  17.234  0.0623 -0.1664  0.2147
11058W        W26952  15.561   8.520  14.246  0.3511 -0.2031 -0.0973
11059W        W26953  16.474   7.353  12.103  0.0631 -0.1298  0.1829
11060W        W26954   0.645  13.593  15.206 -0.2684 -0.0153 -0.0916
11061W        W26955  15.154  12.554   1.971 -0.0037  0.0814  0.0912
11062W        W26956  10.067   9.545  13.325 -0.1968 -0.2536 -0.1039
11063W        W26957   1.647  13.816   5.641 -0.3534  0.0161 -0.0255
11064W        W26958   5.784  13.606   4.312  0.0560  0.0248 -0.0724
11065W        W26959   3.762   6.676  14.911 -0.4436 -0.0520 -0.1368
11066W        W26960   5.365   1.820  13.613  0.2247 -0.2310  0.0046
11067W        W26961  11.052   6.028  14.544 -0.4028  0.0568  0.3544
11068W        W26962  16.153  15.656   4.282 -0.5275  0.1152 -0.2757
11069W        W26963   8.123   9.079   3.172  0.2118  0.1224  0.1983
11070W        W26964   3.542  14.011   4.188  0.1408  0.0821 -0.1840
11071W        W26965   0.472   3.095   2.939  0.1996 -0.0987  0.1552
11072W        W26966  10.153   0.772  17.015 -0.2093 -0.3031  0.3019
11073W        W26967   5.001   0.219   2.680 -0.1138 -0.2854  0.2603
11074W        W26968  16.876   1.216  14.524  0.0313  0.0327 -0.1106
11075W        W26969  10.242  13.800   4.565  0.0039  0.0427  0.1965
11076W        W26970  12.629   6.293   2.642  0.1503  0.0576  0.0922
11077W        W26971  10.620   5.352  13.672 -0.2239  0.0858 -0.0835
11078W        W26972   6.928   8.301   2.995 -0.0656 -0.1029 -0.1940
11079W        W26973   1.707   7.215  12.310 -0.1298  0.1929 -0.3658
11080W        W26974  17.461  11.708   1.949 -0.3774 -0.1936 -0.2720
11081W        W26975   7.497   0.852  15.906  0.2109  0.3269 -0.0555
11082W        W26976   4.880  15.652  16.760 -0.1480  0.0104  0.0664
11083W        W26977  16.094   9.859  12.897  0.0753  0.1569 -0.0846
11084W        W26978  12.408   1.860   1.199  0.0520  0.1221 -0.2011
11085W        W26979  10.628   9.322   3.171  0.2390  0.1272  0.1215
11086W        W26980   7.369   1.862   2.972  0.0716  0.3237  0.2025
11087W        W26981  14.937   6.762   2.458 -0.1608  0.1778  0.0103
11088W        W26982   3.314  16.628   1.358  0.2168  0.1747  0.1796
11089W        W26983  15.830   5.155  11.710 -0.1022 -0.1420 -0.0575
11090W        W26984   7.520   9.349   1.275 -0.1054  0.0675  0.1180
11091W        W26985   7.227   0.818   2.677 -0.2737  0.1736  0.2529
11092W        W26986   0.585  10.187  11.063  0.0182 -0.1645  0.0945
11093W        W26987   9.094  15.709   1.885 -0.1021  0.0472  0.0953
11094W        W26988   7.510   5.753   3.926  0.0850 -0.1126 -0.0065
11095W        W26989  13.304  17.545  15.260 -0.1905  0.1038  0.1929
11096W        W26990   1.362  10.881   3.986  0.0928 -0.1051 -0.0246
11097W        W26991   4.239  14.581   6.210  0.3075 -0.0894  0.3877
11098W        W26992  11.605   6.600   1.217  0.2887  0.0668  0.4082
11099W        W26993  11.359   5.918  15.513  0.2973  0.2104 -0.0993
11100W        W26994  16.630  13.422   4.512 -0.1338 -0.1978 -0.1392
11101W        W26995   7.872  10.519  12.691  0.0768 -0.2790 -0.0446
11102W        W26996  13.030  16.087   5.604 -0.1728  0.0283  0.2833
11103W        W26997  16.375  13.854   0.854  0.0548 -0.0815  0.1911
11104W        W26998  17.073  14.242   1.948 -0.1805  0.0281 -0.1020
11105W        W26999  11.166  11.475  16.813 -0.3383 -0.2664  0.4034
11106W        W27000   9.824   2.448  13.325  0.0039  0.0298  0.0032
11107W        W27001   9.361  11.198   5.649 -0.4402  0.1414 -0.0332
11108W        W27002  15.875  15.923  14.158  0.0433 -0.0625 -0.2022
11109W        W27003   8.644  14.956   2.972  0.1733 -0.4400 -0.2372
11110W        W27004  16.598  15.735  16.228  0.2027 -0.0499  0.0585
11111W        W27005  15.980  14.173   0.839 -0.2994  0.2021 -0.0392
11112W        W27006   9.936   3.655  17.257  0.1228 -0.3023 -0.2444
11113W        W27007  11.079  14.177   0.313  0.0237  0.0100  0.1433
11114W        W27008  16.737   5.854  16.129 -0.1928  0.2197 -0.1088
11115W        W27009   1.743   1.119   1.512 -0.1106 -0.0214  0.0969
11116W        W27010   2.638  11.319  13.409  0.0287 -0.3073 -0.0064
11117W        W27011   2.796   1.929  13.422 -0.2175  0.2378  0.2147
11118W        W27012   8.059   1.702   1.271  0.0260 -0.3775 -0.1150
11119W        W27013   8.583   4.871   3.554 -0.3351  0.2107  0.0575
11120W        W27014  11.301   1.904  13.547  0.1603  0.2448  0.1388
11121W        W27015   0.428  11.531   5.499 -0.3126 -0.1754 -0.4574
11122W        W27016   8.085   0.685  16.782  0.1255 -0.0353  0.0576
11123W        W27017  14.080   5.934  12.104  0.0276  0.3476  0.0734
11124W        W27018  10.133   7.823   1.374  0.1672 -0.0047  0.0008
11125W        W27019   2.598  14.669   2.078 -0.1681  0.0700 -0.1340
11126W        W27020  12.145  10.661   2.454  0.2952  0.0805 -0.1234
11127W        W27021   0.922   1.479  16.334 -0.0441 -0.1007  0.3831
11128W        W27022  16.095  15.786  15.501 -0.2576  0.2101  0.3873
11129W        W27023   2.635   6.494   3.706 -0.0575  0.1460 -0.1768
11130W        W27024   7.677   9.306  14.856  0.3081 -0.5653  0.0311
11131W        W27025   9.575   8.427  15.937  0.0498  0.0643  0.2825
11132W        W27026  11.918   2.183   3.233  0.0155  0.1369 -0.0412
11133W        W27027   2.094   6.710  13.411 -0.0434  0.0681  0.0326
11134W        W27028   8.470   0.441  15.018  0.0024  0.3354  0.0916
11135W        W27029  13.103   4.130  14.205 -0.0149 -0.0740  0.2072
11136W        W27030  17.413  16.443   1.225 -0.0141 -0.1574  0.1091
11137W        W27031   6.112   0.235  16.659  0.1519  0.2957  0.0501
11138W        W27032   5.211   1.731   4.417 -0.0577 -0.0601 -0.0103
11139W        W27033  16.732   7.940   2.021 -0.2170  0.1502 -0.1021
11140W        W27034   3.675  15.236  16.996  0.2921 -0.0511  0.1141
11141W        W27035   8.722   0.237   5.740 -0.0329  0.2637 -0.1467
11142W        W27036   3.736  12.759   2.820 -0.3055 -0.1060  0.0540
11143W        W27037  14.621  14.917   4.090  0.0826  0.1810 -0.0316
11144W        W27038  14.221   6.543   3.453  0.1754  0.0726 -0.0410
11145W        W27039  11.595  13.345  11.722 -0.0524 -0.2305 -0.0143
11146W        W27040  12.426  11.742   1.595  0.1370  0.0767 -0.3297
11147W        W27041  11.798   1.054   0.569  0.0377 -0.2267 -0.0212
11148W        W27042   9.884   5.638   2.972  0.0173  0.2334 -0.0838
11149W        W27043   0.886   6.001   3.081  0.1026 -0.0799 -0.4484
11150W        W27044   8.444   1.372   2.060  0.1705 -0.2118  0.4463
11151W        W27045  17.075  17.232   4.518 -0.0763  0.0968 -0.0476
11152W        W27046   2.562  13.368  15.199  0.2389 -0.0077  0.2026
11153W        W27047  11.014  14.859   4.147  0.1592 -0.0625  0.0007
11154W        W27048   4.298   6.041  13.567  0.0207 -0.0139  0.1209
11155W        W27049   4.394  13.777  16.600 -0.2326  0.1031  0.1242
11156W        W27050   9.188  15.637   1.377  0.1652  0.0041 -0.0697
11157W        W27051  13.327  12.938  15.149  0.1093 -0.0697 -0.0680
11158W        W27052  12.303  12.964   2.181 -0.1494  0.0065  0.1533
11159W        W27053   9.360   2.733  14.743  0.0721 -0.0576 -0.0535
11160W        W27054   7.980   4.948   4.949 -0.1608 -0.0752 -0.0374
11161W        W27055   8.938   6.139  16.882  0.0540 -0.1276  0.0065
11162W        W27056   5.095  14.405   0.539  0.1817  0.0368  0.1532
11163W        W27057   2.329   2.207   5.325  0.0191 -0.0948  0.1491
11164W        W27058  14.748   4.969   5.033  0.2857  0.1294  0.1707
11165W        W27059  13.914   6.586  12.856  0.0429 -0.0181 -0.0833
11166W        W27060   3.923   6.829   4.939 -0.4420 -0.0860  0.2493
11167W        W27061  10.707   6.943   2.564  0.1104  0.1982 -0.0417
11168W        W27062  14.235   9.108  12.280 -0.0240  0.0400 -0.1510
11169W        W27063  14.166   4.298  16.698  0.3474  0.0459  0.1223
11170W        W27064  12.366  16.031  15.107 -0.3126 -0.2075  0.3038
11171W        W27065   0.767   9.348  13.259  0.0004 -0.0355  0.0307
11172W        W27066   7.384  12.204  14.264 -0.0368  0.0594  0.1008
11173W        W27067  12.361   8.710   2.951  0.2052  0.0146  0.0220
11174W        W27068  12.364  17.163  12.612 -0.0566  0.1992  0.1445
11175W        W27069   5.015  10.848   0.381 -0.1436  0.3563  0.0677
11176W        W27070   3.746  11.269   0.005  0.0071 -0.1209 -0.1528
11177W        W27071  16.762  14.246   2.352  0.2396  0.1481  0.2131
11178W        W27072  16.261  16.903   5.307 -0.0528  0.3537 -0.2226
11179W        W27073   6.280   6.505   2.721  0.0180  0.2561  0.0356
11180W        W27074   7.125  13.484  15.518  0.2005  0.0033  0.0365
11181W        W27075   1.485  12.147  13.274  0.0549 -0.1881 -0.2748
11182W        W27076   2.483   9.646  14.793 -0.0873  0.1219  0.1666
11183W        W27077   3.014   1.975   4.277  0.1275 -0.0376 -0.0439
11184W        W27078   7.172   0.813  16.438  0.0729 -0.0516  0.2950
11185W        W27079  15.255  11.547   5.622 -0.0900 -0.1640  0.2672
11186W        W27080  10.934   1.915  13.881  0.0739 -0.1331 -0.1860
11187W        W27081   5.418  14.404   2.398  0.0905  0.1170  0.0014
11188W        W27082  12.458   8.965  12.465 -0.1140 -0.1413  0.0529
11189W        W27083  16.207   6.280   0.910 -0.1966 -0.1079  0.2198
11190W        W27084  10.038   6.524  13.527  0.1623 -0.0698  0.0741
11191W        W27085   8.019  15.377  16.292  0.0223 -0.0081 -0.2982
11192W        W27086  12.861  16.548   2.531 -0.0957 -0.0995  0.4748
11193W        W27087   9.959   0.289   4.785 -0.1909 -0.0559 -0.0923
11194W        W27088   3.255   2.064  12.658 -0.1239 -0.5198 -0.0690
11195W        W27089  15.359  12.667   6.098  0.0072 -0.0572  0.0005
11196W        W27090  13.917  17.393   3.431 -0.2513 -0.0105  0.2375
11197W        W27091  14.675   7.874   3.701  0.1114 -0.0696 -0.0627
11198W        W27092  11.925  13.553   3.830 -0.2414  0.0882  0.4913
11199W        W27093   0.250  16.663   1.114  0.2059  0.0153 -0.2647
11200W        W27094   7.460  16.620   3.663 -0.2679 -0.1152  0.2844
11201W        W27095  12.496   7.660   2.108 -0.3859  0.2152  0.1194
11202W        W27096   7.080   1.244   5.608  0.0018  0.0533  0.1543
11203W        W27097   5.093   8.297   4.932 -0.0689  0.0620  0.1096
11204W        W27098  16.819   5.611  12.007  0.4001 -0.1124 -0.1443
11205W        W27099  17.151  17.589   4.938 -0.1309 -0.3815 -0.0296
11206W        W27100  17.622   0.025  16.616 -0.0736  0.0053  0.3836
11207W        W27101  12.704   9.475   4.233 -0.2316  0.3462 -0.1697
11208W        W27102  13.619  13.662  15.088  0.4303 -0.3038 -0.1798
11209W        W27103   4.598  16.556   5.998  0.1695  0.0810  0.0837
11210W        W27104   0.850  10.937   3.738 -0.5292 -0.1216 -0.2045
11211W        W27105  15.449   6.187  14.279  0.1897 -0.3039 -0.1709
11212W        W27106  17.042   5.156   0.687 -0.2502  0.0452 -0.0721
11213W        W27107   0.868  15.539   3.625  0.0737  0.1957 -0.1296
11214W        W27108   5.482   0.054   2.919  0.1404 -0.2201  0.3686
11215W        W27109  12.568  15.352  12.539  0.0627 -0.3473 -0.3563
11216W        W27110   3.800   0.118   4.137  0.0488  0.2346  0.1509
11217W        W27111  14.489  13.455  14.718  0.0414  0.0134  0.3185
11218W        W27112   0.486   0.292  13.934 -0.2387  0.1142 -0.2694
11219W        W27113   0.604   0.350  14.393  0.2191 -0.0567 -0.0176
11220W        W27114   1.995   4.928   1.660  0.0355 -0.1255  0.1539
11221W        W27115   9.293  14.285  16.901 -0.0082  0.4826  0.0717
11222W        W27116   1.985   4.911   4.037  0.4675 -0.1455  0.0151
11223W        W27117   0.572   2.778   5.895  0.3215 -0.1293  0.0857
11224W        W27118  16.813   0.431   4.467 -0.0566  0.2006  0.0703
11225W        W27119  15.522  16.223  12.104 -0.1249 -0.0691 -0.1644
11226W        W27120   5.098  11.556   1.764 -0.1537 -0.0804 -0.1959
11227W        W27121  13.005  15.862   4.780 -0.0587 -0.1682  0.0755
11228W        W27122  17.072   3.847   5.487  0.0016 -0.0275 -0.2528
11229W        W27123   0.311  16.889   3.471  0.0382 -0.1157  0.0928
11230W        W27124  16.984   4.199   4.995 -0.0483 -0.1490  0.0600
11231W        W27125   4.490  17.016   4.571 -0.1997 -0.0520 -0.1181
11232W        W27126   3.604  15.376   2.336  0.0708 -0.0457 -0.2273
11233W        W27127   6.392   0.712  15.857 -0.0269  0.2241 -0.5409
11234W        W27128  11.672  17.149  17.274 -0.2370 -0.1517 -0.1092
11235W        W27129   4.213  11.789  12.644 -0.2126  0.0555  0.1145
11236W        W27130   7.414   1.251  12.941 -0.3999 -0.0717 -0.1952
11237W        W27131   6.024  12.239   1.337  0.4020  0.2562 -0.2160
11238W        W27132   3.802  13.831   2.751  0.0495 -0.1762 -0.0820
11239W        W27133  14.765  14.527  15.432 -0.1946 -0.1672  0.0040
11240W        W27134  10.854   9.095  12.395  0.1673  0.0953 -0.1847
11241W        W27135  12.072   7.739  12.959 -0.0577 -0.1173 -0.3121
11242W        W27136  16.024   7.437   3.352  0.1725 -0.0616  0.1992
11243W        W27137  13.182   2.355  13.880  0.2830 -0.1461  0.0595
11244W        W27138  10.445   3.227   4.153 -0.6209 -0.0861  0.1318
11245W        W27139   3.381   1.861   1.526 -0.1540 -0.0918  0.0154
11246W        W27140   5.020   1.498  16.100  0.0137 -0.0245  0.1361
11247W        W27141  14.003  16.764   0.593 -0.0102 -0.1091 -0.0444
11248W        W27142  13.613   4.715   5.460 -0.0144 -0.0705  0.1747
11249W        W27143   4.330   5.690  15.289  0.0434 -0.0187  0.2867
11250W        W27144   9.195   2.129   0.703 -0.1335 -0.0649 -0.0967
11251W        W27145   1.400   5.054  12.856 -0.1645  0.2055 -0.1721
11252W        W27146   4.136   9.398   6.419 -0.1549 -0.3904  0.6637
11253W        W27147  15.749   0.291  11.991  0.1885  0.2652 -0.2232
11254W        W27148   7.761  16.389   0.270 -0.1190 -0.0963  0.1225
11255W        W27149   7.795   7.615  12.941  0.2756 -0.2659  0.2631
11256W        W27150  16.766  14.537   3.449 -0.0470 -0.1557 -0.2694
11257W        W27151   5.591  12.038   1.073  0.3168  0.0530  0.2289
11258W        W27152  12.781   5.587   0.250 -0.4770  0.2079  0.2204
11259W        W27153   8.866   7.690   4.785  0.1048 -0.0119  0.0209
11260W        W27154  10.482   2.750  17.189 -0.2368 -0.1068 -0.1259
11261W        W27155  12.290  15.779   5.225 -0.0386  0.0562 -0.0203
11262W        W27156  16.173  14.827  15.859  0.5054 -0.0740 -0.2607
11263W        W27157   3.164   1.988   5.052 -0.1183  0.0110  0.0310
11264W        W27158   0.037   1.337  12.888  0.0104  0.2391 -0.0841
11265W        W27159   7.861   7.852   1.588  0.0317 -0.2579 -0.5789
11266W        W27160   0.662  13.377   4.660  0.0549 -0.2833 -0.0122
11267W        W27161   5.627  16.403   5.197  0.2210  0.2623  0.0727
11268W        W27162  15.497  17.242   0.627 -0.1936 -0.1131 -0.3503
11269W        W27163  12.404  13.442   2.014 -0.1953 -0.0069  0.2110
11270W        W27164   6.267  12.664  15.524 -0.3194  0.0055  0.1244
11271W        W27165   9.605   1.894  14.468 -0.0510  0.0224 -0.2559
11272W        W27166   9.465  15.609   2.231 -0.0028  0.0546 -0.3029
11273W        W27167  16.348  17.600  14.454  0.1496  0.1810  0.1387
11274W        W27168  13.018   3.551   3.490  0.1124 -0.2457 -0.0660
11275W        W27169   4.087   0.515   3.910  0.1023  0.0052  0.0972
11276W        W27170   2.624   3.313  12.553 -0.0218  0.3581 -0.0843
11277W        W27171   7.282  14.100   6.007  0.1347 -0.0291  0.2690
11278W        W27172  14.849   6.896  15.498 -0.0012  0.0785 -0.0203
11279W        W27173   4.189   2.021  16.607 -0.0636  0.1507  0.0550
11280W        W27174   8.782  14.433  16.857 -0.0155  0.2030 -0.1940
11281W        W27175   3.486   1.195  15.962  0.0187 -0.0553  0.4253
11282W        W27176  11.878   2.580  13.350 -0.0559 -0.2467  0.0537
11283W        W27177  14.820  16.151  16.488 -0.1011 -0.2552 -0.1670
11284W        W27178   2.066   1.556   0.297 -0.0679 -0.0095 -0.0878
11285W        W27179   0.837  15.269  12.825 -0.2190  0.0229  0.1615
11286W        W27180   2.893  16.476   0.810 -0.4020  0.0682 -0.3593
11287W        W27181   8.581   4.179  11.630 -0.1044  0.1432  0.2052
11288W        W27182  10.254  12.945  16.694 -0.1771  0.0772  0.0572
11289W        W27183  17.430  17.337  16.313  0.2648  0.0064  0.1369
11290W        W27184   9.124  15.698  13.960  0.0948 -0.0672  0.1471
11291W        W27185   8.852   7.159   3.088 -0.4125 -0.0395  0.2095
11292W        W27186   1.814  11.175   5.196  0.0780  0.1342 -0.3402
11293W        W27187   1.721   3.739  13.511 -0.1553  0.1014  0.0494
11294W        W27188   0.337   8.296  16.934  0.2710  0.0587 -0.3524
11295W        W27189   3.571  13.904  17.032 -0.1777  0.1305  0.0208
11296W        W27190  15.928   8.446  13.304 -0.1886  0.0085 -0.0606
11297W        W27191   7.192   9.200   0.870 -0.0203 -0.2748  0.0199
11298W        W27192   9.303   4.223  10.732  0.0082  0.2179 -0.0105
11299W        W27193  16.852  17.481  16.404  0.5733  0.0359  0.0597
11300W        W27194  14.846  16.430  14.962 -0.1328 -0.0548 -0.0762
11301W        W27195   6.402  16.054   0.649  0.1456  0.0247  0.5324
11302W        W27196   1.881   2.997   5.805 -0.1879 -0.2177  0.1480
11303W        W27197   8.654   9.956   4.427 -0.1401  0.0681  0.0850
11304W        W27198   3.394   7.332  17.152  0.3074 -0.2379 -0.0144
11305W        W27199  12.127   9.143  14.014  0.0825 -0.1596 -0.4010
11306W        W27200  16.008   4.804  14.569 -0.1879 -0.0962  0.0327
11307W        W27201   9.120   1.170   1.582  0.5997  0.1193  0.3131
11308W        W27202   4.108  12.200  14.097 -0.1034  0.0890 -0.1487
11309W        W27203   6.277   6.787  17.073 -0.2456  0.1330  0.0032
11310W        W27204   5.742   4.353  16.821 -0.1084  0.0783 -0.1649
11311W        W27205   0.169  16.096   2.359 -0.1350 -0.1686  0.0146
11312W        W27206   3.658   3.452  13.924  0.0750 -0.1124  0.2941
11313W        W27207  11.985   0.520   2.250 -0.1100  0.1527 -0.1711
11314W        W27208  11.326  16.910  15.722 -0.0572  0.3808  0.0661
11315W        W27209   3.989   3.991  16.004  0.1649  0.0691  0.4125
11316W        W27210  11.780   3.202  15.050 -0.2294  0.1018  0.3393
11317W        W27211   0.288  12.357  11.794  0.1760  0.0572  0.0815
11318W        W27212  13.207  17.494   5.312 -0.2347  0.0359 -0.0300
11319W        W27213   6.542   1.153   0.034  0.1056  0.1238 -0.2294
11320W        W27214  11.935   5.713   1.431  0.0190 -0.2074 -0.1346
11321W        W27215   8.907   7.740  13.636  0.3119  0.0391  0.1102
11322W        W27216   1.557  14.647  13.851 -0.0628  0.0731  0.1451
11323W        W27217   3.634   7.439  12.824 -0.3498  0.2556  0.0639
11324W        W27218  13.516  10.776   2.150  0.1261 -0.0465 -0.2118
11325W        W27219   8.689   6.379   1.372  0.0500 -0.3199 -0.2876
11326W        W27220  10.669  11.776  14.678 -0.3202 -0.2676 -0.0155
11327W        W27221   5.522   4.134   2.823  0.1261 -0.0755  0.0992
11328W        W27222   5.586  14.375  12.795  0.1489 -0.0710  0.1915
11329W        W27223   4.434  14.345  14.331 -0.0758  0.1895 -0.0772
11330W        W27224  10.472   7.298   4.816 -0.1291 -0.1589  0.0917
11331W        W27225   8.627   7.383  12.305  0.0210  0.4208 -0.1284
11332W        W27226  11.314   4.680  15.889 -0.0273 -0.2843 -0.0252
11333W        W27227  17.614  12.922   6.083  0.0212  0.1046  0.1630
11334W        W27228   0.222  11.409   1.854 -0.3267 -0.2364 -0.1167
11335W        W27229   6.555   5.247   0.094  0.3452  0.0531 -0.1970
11336W        W27230   2.954   7.930   5.545 -0.1614  0.1399 -0.0085
11337W        W27231  12.428  14.850  12.638  0.1200 -0.0692 -0.0375
11338W        W27232   2.607  10.694   4.456 -0.1036 -0.1229  0.2734
11339W        W27233   6.930  11.137  16.307 -0.0660 -0.1168  0.4488
11340W        W27234   5.758   4.555   0.074 -0.1001 -0.2019  0.4450
11341W        W27235  11.778   1.342  15.973 -0.0454 -0.1723  0.1430
11342W        W27236   0.076   9.807   5.290  0.1621  0.0420 -0.0549
11343W        W27237   2.277   8.386   1.651 -0.3555 -0.0668  0.1632
11344W        W27238   2.000  11.248  12.620 -0.3878 -0.2120  0.2883
11345W        W27239  14.685   8.495  16.572 -0.1073  0.2544  0.0980
11346W        W27240  13.231  10.604   2.648  0.1850 -0.0918 -0.2503
11347W        W27241  10.629   7.673   2.402 -0.2159 -0.0561  0.1477
11348W        W27242   0.160  16.497  15.639  0.1285  0.2290 -0.2896
11349W        W27243   5.559  16.347  14.664 -0.1436  0.1848 -0.1574
11350W        W27244  16.677  12.340   1.116 -0.1468  0.0070  0.0011
11351W        W27245  17.364   0.250   2.097 -0.1216  0.0162  0.2187
11352W        W27246  17.073  17.628   3.579  0.5154  0.3418 -0.2503
11353W        W27247   2.076   6.310   3.904  0.3446 -0.0946 -0.0554
11354W        W27248   3.609  13.689  15.493 -0.0540  0.1225 -0.0816
11355W        W27249   3.171   3.606   0.078 -0.0799 -0.0056  0.0737
11356W        W27250   4.293   7.149   4.826 -0.0965  0.0919  0.0862
11357W        W27251  16.906   8.730  13.351 -0.1848 -0.2730  0.4171
11358W        W27252  10.335   9.072   1.448 -0.1476 -0.1415  0.0751
11359W        W27253   4.838   6.829  12.495  0.1004  0.2715 -0.0047
11360W        W27254   0.968   8.565  14.788  0.0969 -0.0727 -0.1731
11361W        W27255   2.125   0.200   2.268  0.0584 -0.1874  0.1090
11362W        W27256   9.802  15.324   0.644  0.0035  0.2065 -0.1804
11363W        W27257  13.991  17.505   2.314  0.2701  0.0207  0.1924
11364W        W27258  11.244  15.696  16.354 -0.0172  0.4061  0.0420
11365W        W27259   5.097   9.794  11.977  0.0455 -0.0812 -0.0289
11366W        W27260   1.745   0.098  12.970 -0.1577 -0.0925 -0.1843
11367W        W27261  12.285  12.891  15.636  0.0982  0.2197  0.0178
11368W        W27262  17.008   6.265   3.493  0.2813 -0.1892  0.6331
11369W        W27263   0.835  10.661   0.293 -0.1019 -0.0966  0.2500
11370W        W27264   8.602   5.842  14.082  0.1975 -0.2686 -0.0592
11371W        W27265  13.479   5.265   4.723  0.3079  0.5466  0.0722
11372W        W27266  11.750   4.591  13.120  0.0307 -0.0522  0.0463
11373W        W27267  11.642   6.275  16.490  0.0070 -0.1448 -0.0042
11374W        W27268   4.715  15.228  12.797 -0.2156 -0.0270 -0.0880
11375W        W27269  12.365  14.928  11.733 -0.0956 -0.0927 -0.1478
11376W        W27270  15.245   0.711   3.634 -0.1303  0.3196 -0.1868
11377W        W27271  14.411   7.702   0.499 -0.0272  0.0773 -0.2282
11378W        W27272  13.060  11.847  13.560 -0.0619 -0.0983 -0.3927
11379W        W27273   9.601   6.174  16.019 -0.0842 -0.1747 -0.1615
11380W        W27274   8.473  11.702  14.117 -0.1712  0.0667  0.2347
11381W        W27275   6.944   3.932  16.945  0.0383  0.2116  0.2193
11382W        W27276  15.766   9.508  11.707  0.3140  0.2549 -0.2645
11383W        W27277   2.774   9.567   3.296  0.0119  0.0289 -0.0306
11384W        W27278   8.198   0.429  16.314 -0.1996 -0.2983  0.0503
11385W        W27279   2.400  16.078   1.576 -0.0139  0.0806  0.2246
11386W        W27280   3.121  12.844  16.055 -0.3278  0.2748 -0.1382
11387W        W27281  14.906   2.270   5.799  0.2347  0.0858 -0.0481
11388W        W27282   1.532   6.238   1.809 -0.2791  0.1099 -0.1374
11389W        W27283   9.502  14.673   5.564  0.0927  0.2075 -0.2905
11390W        W27284  10.170   2.577   0.704 -0.0310  0.2179 -0.3302
11391W        W27285   4.913  12.550   0.199  0.0776 -0.1078 -0.0288
11392W        W27286  15.882  11.148   3.440 -0.1430  0.0901  0.1580
11393W        W27287  11.980   2.498   5.020  0.3102  0.1608 -0.1468
11394W        W27288   4.537   4.600  13.822 -0.1655  0.1231 -0.2325
11395W        W27289   3.953   7.956   4.423 -0.0458 -0.1508  0.1607
11396W        W27290  15.516  11.069   5.312  0.0450  0.1721 -0.0028
11397W        W27291   8.842   7.055   5.211  0.3953 -0.1840 -0.1203
11398W        W27292   4.373  10.505   1.392 -0.0327  0.5299  0.0413
11399W        W27293   7.590  14.759   4.487  0.0835 -0.0570 -0.0543
11400W        W27294  12.668  14.325  12.383 -0.4054 -0.2674  0.1181
11401W        W27295   4.663  10.154   5.422 -0.0855 -0.2153 -0.3124
11402W        W27296   6.988  11.773  14.441 -0.1111  0.0670 -0.4129
11403W        W27297   0.267  14.128  13.436 -0.0519 -0.0864  0.0155
11404W        W27298  10.497   3.750   4.351  0.0379 -0.1813 -0.2155
11405W        W27299   5.005   7.105  14.547 -0.1543  0.1518  0.0532
11406W        W27300   7.891   1.928  16.972 -0.2074 -0.2251 -0.1438
11407W        W27301  16.030  17.410   6.059  0.2917 -0.2587  0.2433
11408W        W27302  15.764  17.193  12.370 -0.1903  0.0826  0.0480
11409W        W27303  10.107   5.680  16.692  0.0137  0.1014 -0.2263
11410W        W27304  12.457   4.067  13.042  0.0144  0.2924  0.2488
11411W        W27305  16.379   8.909  16.996  0.3478 -0.2491  0.1402
11412W        W27306  16.432   1.759   1.091  0.4059  0.0953 -0.1630
11413W        W27307  10.595   9.749  13.476 -0.0068 -0.0207  0.1036
11414W        W27308  17.468  15.181   2.359  0.1182 -0.1443 -0.1290
11415W        W27309   3.482   7.795   2.937 -0.0865 -0.0752  0.1930
11416W        W27310  10.187  17.187  16.154  0.0020  0.1236  0.0191
11417W        W27311   1.653  13.259   4.312  0.0389  0.0994  0.3241
11418W        W27312  14.234  10.839  14.203 -0.0365 -0.0915 -0.0974
11419W        W27313  12.666   6.725   3.411  0.0696  0.1410  0.0444
11420W        W27314  12.294   4.392  12.738  0.0793 -0.2878 -0.0939
11421W        W27315   2.998  16.585   0.330  0.1243 -0.0795  0.1297
11422W        W27316   3.006   7.942  14.119  0.2206  0.2525  0.1447
11423W        W27317  13.518   1.215  11.702 -0.1077  0.1311 -0.2038
11424W        W27318  11.964  17.595   2.934 -0.0416 -0.0040 -0.0623
11425W        W27319  14.174   8.630   4.320  0.1186  0.2214  0.1753
11426W        W27320   6.586   3.804   2.928 -0.1368 -0.1983 -0.0373
11427W        W27321  11.248   6.559  11.156 -0.1182  0.1457 -0.1757
11428W        W27322   2.039  11.114  15.056 -0.1190  0.4317 -0.0444
11429W        W27323  10.345   1.206   4.777 -0.0297 -0.1426 -0.2871
11430W        W27324   2.948  17.403  15.423  0.0481  0.2262 -0.0503
11431W        W27325  14.455  13.750  12.597 -0.0635  0.1153  0.1728
11432W        W27326   5.851  16.516  17.158  0.0570 -0.1412  0.1199
11433W        W27327   3.805   7.323  13.776 -0.0246 -0.3853  0.0168
11434W        W27328  11.732  17.544  12.484  0.0234 -0.0044  0.0237
11435W        W27329  12.394  16.736  11.012  0.0979  0.0151 -0.1252
11436W        W27330   2.086   9.903   4.329 -0.0421 -0.0472 -0.1730
11437W        W27331   4.580   1.879   0.054 -0.0735  0.3211 -0.0123
11438W        W27332  15.933  17.417   0.964 -0.3098 -0.0596  0.0684
11439W        W27333  12.091  11.964   3.453 -0.1922  0.1297  0.0649
11440W        W27334   8.944  14.240  13.541 -0.1387  0.1401  0.1708
11441W        W27335  10.306   2.728   3.999  0.0847  0.1381 -0.2963
11442W        W27336  16.345   0.548  16.049 -0.1219 -0.1084 -0.0845
11443W        W27337   4.143  10.005   2.771  0.0501 -0.0489 -0.1209
11444W        W27338   9.006  13.197  14.522  0.5652  0.1116  0.0370
11445W        W27339   8.550   5.088  13.605  0.0615  0.1525 -0.0310
11446W        W27340  16.683   9.944  15.510  0.1491 -0.0209 -0.0586
11447W        W27341  17.068   9.589   5.682  0.2818  0.1521 -0.0622
11448W        W27342   8.868  11.296  14.141 -0.0406 -0.0588 -0.0639
11449W        W27343  16.454  11.025  12.315 -0.1796 -0.0248  0.0262
11450W        W27344  17.071   4.846  16.326  0.0251 -0.2300  0.0661
11451W        W27345  14.537  15.768   3.347 -0.1644  0.0413  0.4837
11452W        W27346  12.328  17.519   3.301  0.4039 -0.0220 -0.2931
11453W        W27347   7.375   7.450  15.113  0.2153 -0.0311  0.6590
11454W        W27348  14.768  11.046  17.149 -0.2430  0.1120 -0.0573
11455W        W27349   3.043  14.738   2.992  0.1043 -0.3231  0.2445
11456W        W27350  10.419  16.299   4.684  0.0304  0.0594  0.1438
11457W        W27351  13.621   1.665  15.229 -0.3607  0.0016 -0.3712
11458W        W27352   7.945  12.369  17.193  0.1137  0.3019  0.1481
11459W        W27353   1.072  14.975  15.003 -0.0144  0.0115  0.1583
11460W        W27354   5.937   4.506  13.052 -0.1081  0.1850 -0.1647
11461W        W27355  11.001   5.152  15.895  0.0537 -0.1896  0.1118
11462W        W27356  10.381   2.111   4.689  0.2565 -0.0038  0.1810
11463W        W27357   0.971   6.855   0.955 -0.1540 -0.2099  0.2160
11464W        W27358  11.006   7.559   5.701 -0.2356 -0.2063  0.2153
11465W        W27359   1.767   2.387   1.403  0.1007  0.0865 -0.1974
11466W        W27360   0.122   8.269  12.984  0.0798  0.0495 -0.1381
11467W        W27361  11.937   4.736  14.702  0.0567  0.1736 -0.1931
11468W        W27362  10.045   7.641   3.837 -0.1105  0.0744  0.1224
11469W        W27363  16.290  10.728  12.746 -0.0254  0.2342 -0.0247
11470W        W27364  12.579  17.292  11.719 -0.0502 -0.1241  0.3671
11471W        W27365  14.078   0.417   5.577  0.0675  0.2461  0.0897
11472W        W27366   8.103  16.864   2.056 -0.0307 -0.1553  0.2735
11473W        W27367  16.935  14.692   0.146 -0.1195  0.1451 -0.5655
11474W        W27368   4.316  15.857   2.999 -0.1775  0.0723 -0.2392
11475W        W27369   7.575   4.459  12.579  0.0546  0.2708  0.1421
11476W        W27370   3.302   1.511   4.987  0.0589  0.1231  0.0896
11477W        W27371   9.997  12.028  16.964  0.0633  0.1792 -0.1321
11478W        W27372  15.939  10.684  14.552 -0.3033 -0.2096  0.2135
11479W        W27373  14.426   9.353   4.113 -0.0423  0.2313  0.1182
11480W        W27374   3.493   9.263   1.240 -0.1426  0.0290 -0.3668
11481W        W27375   1.298   6.349   2.471  0.2777  0.0865  0.4727
11482W        W27376   1.846   8.498   1.367 -0.0341 -0.0376 -0.2858
11483W        W27377   4.230  12.286  14.697 -0.2401 -0.0829 -0.1478
11484W        W27378  11.878  13.453   2.894  0.1876 -0.0846  0.1553
11485W        W27379   3.042   2.861  14.351  0.0120 -0.0454 -0.0856
11486W        W27380  17.161   7.179   5.301  0.1769 -0.2521 -0.1049
11487W        W27381  12.721  15.419  16.128 -0.2070  0.0791  0.0272
11488W        W27382   2.301   8.903  12.283  0.0556 -0.0063 -0.1578
11489W        W27383  11.743   9.550  15.588  0.0120 -0.0099  0.0356
11490W        W27384  12.301  11.521   4.337  0.1467  0.0098 -0.0262
11491W        W27385  13.356   4.230   4.838  0.2925  0.0004 -0.3549
11492W        W27386  10.150  16.701  16.256 -0.0350 -0.1941 -0.1384
11493W        W27387  12.363  14.517   3.873  0.5337 -0.1446  0.2351
11494W        W27388   3.838   7.961  14.557  0.0162  0.1316  0.1116
11495W        W27389  11.951   8.141  14.955 -0.0289 -0.0682  0.1116
11496W        W27390   7.901  10.476  14.205 -0.1818 -0.3359  0.1720
11497W        W27391   5.045   6.608   4.320 -0.2477  0.1223 -0.2335
11498W        W27392   0.804   9.956   4.596 -0.2401 -0.0327  0.3594
11499W        W27393   9.453   7.143  14.954 -0.0740 -0.0946 -0.1715
11500W        W27394   3.448  15.276   1.568  0.0107  0.1030  0.1251
11501W        W27395   5.238   6.516   0.502  0.3595 -0.0294 -0.2063
11502W        W27396  11.062  16.432   6.559 -0.0414  0.2057 -0.2395
11503W        W27397   4.341  14.180  15.554 -0.1537 -0.2278  0.0523
11504W        W27398   8.697   9.909  11.666  0.3681  0.1056 -0.0662
11505W        W27399  15.230   0.191  17.018 -0.1672 -0.1594  0.0066
11506W        W27400   7.462  14.411   3.842  0.0037  0.3485 -0.2531
11507W        W27401  12.297   7.505   0.405 -0.2022  0.1717 -0.0047
11508W        W27402  11.360  10.562  12.048  0.0119  0.0892 -0.2424
11509W        W27403   0.600  13.007  15.395 -0.2036  0.1623 -0.2213
11510W        W27404   2.475  12.355   6.076 -0.0609 -0.0508 -0.0655
11511W        W27405  11.892   7.594  12.490  0.2382 -0.1530  0.1314
11512W        W27406   9.700  16.054  14.901 -0.0175 -0.4056  0.0104
11513W        W27407   8.510  10.085   5.361  0.1174 -0.0937  0.1006
11514W        W27408  15.831   7.695  16.862  0.1815  0.0619  0.0579
11515W        W27409   7.025   7.410  16.779 -0.2714  0.0258 -0.2402
11516W        W27410  14.165  16.733   1.859  0.0331 -0.2352 -0.1485
11517W        W27411  15.859   8.889  17.050 -0.3065  0.1237 -0.1482
11518W        W27412  11.764  17.171  16.805  0.0157 -0.1896  0.0604
11519W        W27413   8.925   4.401   3.773 -0.0671 -0.1925 -0.0893
11520W        W27414  11.426   2.618   3.988  0.0282  0.3095  0.1500
11521W        W27415   5.295   0.753   0.547 -0.1162 -0.3257  0.0651
11522W        W27416   8.857   1.610  13.894  0.1119 -0.1662 -0.1197
11523W        W27417   5.996  12.141  13.052  0.2918  0.2830 -0.4406
11524W        W27418   8.849   0.875   6.256 -0.0949 -0.0087 -0.4902
11525W        W27419   9.420   5.720  12.016 -0.0419  0.2852 -0.0503
11526W        W27420  13.452  17.558   4.837  0.0555 -0.0443 -0.1802
11527W        W27421   4.064   1.521   5.130  0.0907  0.0483 -0.0538
11528W        W27422   7.084   9.507  13.443  0.1942  0.2254  0.0888
11529W        W27423  10.787   4.185   0.434 -0.3033 -0.1885  0.2861
11530W        W27424  15.307   8.469   1.012  0.1462 -0.1589 -0.0732
11531W        W27425   6.908   7.399   4.481  0.1049  0.1441 -0.0170
11532W        W27426   0.359   2.726   0.257  0.0085 -0.0610 -0.4054
11533W        W27427  10.543   8.113   1.550 -0.2690  0.3714 -0.0881
11534W        W27428   0.503   0.907  16.780  0.0419  0.4166 -0.0384
11535W        W27429   9.590  15.371  12.801  0.3031  0.0362 -0.1640
11536W        W27430   7.905   7.003   0.996  0.2012  0.0278 -0.1276
11537W        W27431   2.532  12.873  12.071 -0.1788  0.0788 -0.0619
11538W        W27432  10.000   1.987  13.157 -0.2166  0.0268 -0.1872
11539W        W27433  11.366   8.030  15.606 -0.2853 -0.0114 -0.0465
11540W        W27434   4.537   4.832  12.910 -0.0231 -0.1434 -0.0064
11541W        W27435   0.747   3.016  17.269  0.1073  0.0313 -0.2107
11542W        W27436  11.234   0.260  15.591 -0.0890 -0.1260 -0.1026
11543W        W27437  14.393   5.211   0.637 -0.3271  0.2720 -0.0451
11544W        W27438   0.020   9.370   4.501  0.0272  0.0592 -0.3581
11545W        W27439  16.424  10.998  11.798 -0.1953  0.0889  0.2090
11546W        W27440   7.146  12.102   3.569  0.0426  0.1528  0.0686
11547W        W27441   2.023   4.224  13.727  0.3490  0.2255  0.0325
11548W        W27442   0.789   0.681   1.234  0.1289  0.2733  0.3033
11549W        W27443   6.380   0.183   3.260 -0.3409  0.2984  0.1668
11550W        W27444   9.422   7.617  14.693  0.3554 -0.2008  0.2840
11551W        W27445   7.926   6.415  14.519 -0.1329 -0.2183  0.2199
11552W        W27446   3.084  15.667   0.868 -0.0177  0.3067  0.1241
11553W        W27447   1.865   3.597  14.373  0.4107 -0.1736 -0.0532
11554W        W27448  10.030  16.816  17.117 -0.5918  0.1453 -0.1030
11555W        W27449   6.860   7.018  14.547  0.2902  0.0063  0.1669
11556W        W27450  15.440  16.137   2.612  0.0619 -0.2518 -0.0417
11557W        W27451  11.484  10.025   4.580  0.1952  0.1378 -0.0870
11558W        W27452   5.567   6.327   1.177  0.0176 -0.2970 -0.0359
11559W        W27453  10.562   7.683  11.033  0.4438  0.2784  0.0597
11560W        W27454  10.650   4.907  17.012  0.1833 -0.1391 -0.0419
11561W        W27455  11.038  10.080  13.751 -0.1614  0.1920  0.1921
11562W        W27456   6.360  12.691   2.923 -0.0287  0.3195 -0.0185
11563W        W27457   5.825   3.297   2.789 -0.1189 -0.3004  0.1289
11564W        W27458   6.188   8.437  13.555 -0.0113  0.1009  0.1345
11565W        W27459   0.127  12.803  13.200  0.0045 -0.2995 -0.1528
11566W        W27460   8.759  14.294   4.487 -0.1717 -0.1101 -0.1071
11567W        W27461   6.292   5.380  15.438 -0.1097  0.1810 -0.0955
11568W        W27462   7.103  16.620   1.685  0.1810 -0.1116 -0.0704
11569W        W27463  10.513   1.870  14.670 -0.1340  0.0077  0.1419
11570W        W27464   9.123   3.075  15.188  0.0428 -0.1262  0.2351
11571W        W27465  15.287   5.954  16.284  0.3314 -0.0338  0.3000
11572W        W27466  15.757  14.249   1.379 -0.0663 -0.0635  0.1926
11573W        W27467  13.578  11.290   1.982 -0.0167  0.2695  0.2495
11574W        W27468  11.972   0.890  10.857 -0.1872 -0.0099  0.0296
11575W        W27469   1.785  12.712   5.005  0.0555 -0.0814 -0.0088
11576W        W27470   0.643   4.507   2.694  0.1152 -0.1652 -0.2817
11577W        W27471   8.435   8.847  14.612  0.0184  0.0828 -0.0165
11578W        W27472   7.000   3.495  14.362  0.1556 -0.4933  0.1393
11579W        W27473  16.748  13.167  16.341  0.2710 -0.0164  0.2544
11580W        W27474  15.263  16.314   3.292  0.1891  0.0620  0.0795
11581W        W27475   1.948   5.564   5.327  0.1908 -0.0338  0.0675
11582W        W27476   1.778   4.238   0.335  0.0843  0.0921 -0.1187
11583W        W27477   2.952  17.057   3.111 -0.0394  0.2386 -0.3873
11584W        W27478   3.190   5.673   4.949  0.0616  0.1019  0.1635
11585W        W27479  16.658   9.656  13.487  0.0059 -0.4125 -0.0932
11586W        W27480   7.588   3.377  13.187  0.3122 -0.1282  0.1265
11587W        W27481   1.947  10.658   0.417  0.1212 -0.1704 -0.2470
11588W        W27482   6.780   8.592   4.877 -0.0563  0.2261  0.1632
11589W        W27483  17.289  16.359  12.785 -0.0426 -0.1905 -0.3566
11590W        W27484   2.084   2.907   0.538 -0.1155  0.1105 -0.0956
11591W        W27485   9.105   0.937   4.402 -0.1225  0.1173 -0.2103
11592W        W27486  10.244  14.281   3.252 -0.0293  0.1998  0.0383
11593W        W27487   9.691   1.971  16.547 -0.1629  0.0586  0.0341
11594W        W27488  14.422   6.286  12.248 -0.0926  0.1952 -0.0391
11595W        W27489  17.504  15.981  13.247  0.1581  0.0387  0.2278
11596W        W27490  11.390  10.318  16.006 -0.2288  0.0206 -0.0994
11597W        W27491  14.483   8.546   2.909 -0.1640 -0.0523  0.2398
11598W        W27492  11.434   3.574  14.066 -0.1428 -0.3128  0.1545
11599W        W27493  15.441  16.060  12.570  0.0969  0.0368 -0.0356
11600W        W27494   5.751  13.507  12.305 -0.2637  0.0445  0.0390
11601W        W27495   0.593  12.963   3.561 -0.3383  0.1155  0.1504
11602W        W27496   6.509   0.605  14.900 -0.0593  0.0993  0.0699
11603W        W27497  15.975   0.072  14.095  0.0293  0.1483  0.2262
11604W        W27498   7.340  14.379   5.474 -0.1895  0.3985 -0.1479
11605W        W27499   1.009  10.374   3.335  0.1661 -0.1759 -0.1183
11606W        W27500  12.448   6.681   1.608 -0.2497 -0.0088  0.0209
11607W        W27501   7.888  11.672   2.924  0.0662  0.3306  0.0614
11608W        W27502  10.898  13.490   5.420  0.0615  0.1296 -0.1148
11609W        W27503   9.033   4.677   5.587 -0.0401 -0.1511 -0.3032
11610W        W27504   4.940   4.148   0.042 -0.0792 -0.0842 -0.3006
11611W        W27505  13.543  13.343  12.770  0.0882  0.1195  0.1303
11612W        W27506   3.632   4.645   4.807 -0.0553  0.2055  0.0936
11613W        W27507   1.172   7.906   5.691  0.1262  0.0095 -0.0512
11614W        W27508  13.898  12.615  15.639 -0.2231 -0.0020 -0.1726
11615W        W27509  12.737   6.527  13.650 -0.0936 -0.1248  0.1638
11616W        W27510   4.350   0.434   5.212 -0.3170 -0.2071  0.0298
11617W        W27511  14.645  14.513   5.986  0.0525 -0.1674 -0.0176
11618W        W27512  12.970   1.865   5.622  0.0753  0.2917 -0.0388
11619W        W27513  12.600  11.174   4.619  0.1954 -0.0316 -0.1386
11620W        W27514   2.016  15.320   4.183 -0.0741 -0.0387 -0.0730
11621W        W27515  10.984  16.858  14.796 -0.1904  0.2048  0.0746
11622W        W27516  12.135  15.062  12.261  0.1495  0.0948  0.4297
11623W        W27517   6.166   2.039   1.154  0.1039 -0.4048 -0.1102
11624W        W27518  13.009  13.924  10.589 -0.0888 -0.1625 -0.0455
11625W        W27519  13.064  13.569  16.063 -0.3687 -0.0966  0.0734
11626W        W27520   3.593   9.327  16.395 -0.0559 -0.1485  0.1305
11627W        W27521   7.235   3.966  16.072  0.2374  0.0064  0.1732
11628W        W27522  15.736   5.340  12.155  0.1073 -0.3673 -0.1265
11629W        W27523   0.952   8.397   1.799  0.1886  0.0609  0.1857
11630W        W27524   2.046  14.588   5.012  0.1424 -0.0529 -0.1093
11631W        W27525  17.192  10.832  15.291 -0.0025 -0.0415 -0.0160
11632W        W27526   4.149   3.972  14.873  0.3105 -0.3477  0.2146
11633W        W27527   9.831  12.372   0.001  0.3850 -0.0923  0.0497
11634W        W27528  14.951   9.836  16.077 -0.2423 -0.2188 -0.2068
11635W        W27529   9.699   2.263   0.456  0.1764  0.0191 -0.1410
11636W        W27530   4.851  14.903   5.465  0.4202 -0.1036 -0.3460
11637W        W27531  16.239   4.763   4.159  0.0316 -0.2038 -0.1776
11638W        W27532   9.542   8.331   1.520  0.1139  0.1950 -0.1911
11639W        W27533   3.073  11.125   7.052 -0.0997 -0.1064 -0.2757
11640W        W27534  14.010   5.881   3.096  0.0253 -0.0729  0.2085
11641W        W27535  10.530  10.368   5.421 -0.2160  0.1749  0.5862
11642W        W27536   3.859  10.195   4.222  0.0489  0.0225  0.2056
11643W        W27537  13.264   5.375   0.282 -0.0447  0.0309 -0.0581
11644W        W27538   7.655  14.257   1.988  0.2533  0.2048 -0.1520
11645W        W27539  13.403  14.503  15.720  0.0323 -0.1199 -0.0515
11646W        W27540  12.673   5.725  12.549  0.0278 -0.1017  0.4605
11647W        W27541   6.348   3.234   1.080 -0.1633 -0.1818 -0.2941
11648W        W27542   8.436   0.409   3.953  0.1050  0.0671  0.0876
11649W        W27543   9.694   7.158  16.379 -0.3057 -0.0413  0.2837
11650W        W27544   2.231   9.043  14.104 -0.1503 -0.0195 -0.1213
11651W        W27545  16.557  11.186  12.849  0.0640  0.0280  0.1419
11652W        W27546   8.142  11.448  14.543 -0.0621 -0.2814 -0.2117
11653W        W27547   1.676   8.905  16.750 -0.0882  0.0647 -0.0416
11654W        W27548   8.809   0.689   3.491 -0.2569  0.3765  0.1971
11655W        W27549  11.370   0.856   3.262  0.0997  0.2591  0.2895
11656W        W27550   5.918  14.424   6.476 -0.0672 -0.1173  0.4642
11657W        W27551   1.206  11.511  16.694  0.3707 -0.0110 -0.3257
11658W        W27552   2.768   9.739   4.118 -0.2147  0.0994  0.1654
11659W        W27553   5.294   2.983   0.492  0.1172 -0.0005  0.1264
11660W        W27554  15.285   2.944  17.278 -0.0045 -0.3170 -0.1428
11661W        W27555   5.460   5.280  14.464  0.1549 -0.3972 -0.3492
11662W        W27556   8.037  15.654   2.727 -0.1646  0.1096 -0.0617
11663W        W27557  10.987  15.737  15.334 -0.3230  0.0799 -0.2913
11664W        W27558  10.137   3.965  14.740  0.1458  0.2350  0.0082
11665W        W27559   5.376  10.879  14.807 -0.1390  0.2471 -0.0395
11666W        W27560   3.778   1.444   3.724 -0.0315 -0.2230 -0.1811
11667W        W27561  16.153   3.825   5.781  0.2669 -0.0591  0.3701
11668W        W27562  10.992   4.929   2.049  0.1024  0.2062  0.3628
11669W        W27563   4.502  11.177  15.260 -0.0463  0.3807 -0.0485
11670W        W27564   2.543  14.519  15.029  0.2502 -0.1350 -0.1759
11671W        W27565   5.506   0.535  14.616 -0.0794  0.2103  0.2209
11672W        W27566  15.049  15.417  15.079  0.0506  0.0357 -0.1615
11673W        W27567   0.731  16.767   5.695  0.1918 -0.0051  0.2309
11674W        W27568   2.617  10.240  16.848  0.1937  0.0730  0.2616
11675W        W27569   3.950   4.713  13.150 -0.2376  0.0305  0.0900
11676W        W27570  14.530  11.295   0.162 -0.0496  0.1715  0.1190
11677W        W27571   0.684   8.231   4.966  0.2390 -0.2950 -0.0301
11678W        W27572   2.821   9.319   5.869  0.0627 -0.3323 -0.1291
11679W        W27573  17.386   1.654  15.683  0.0356 -0.0440  0.2310
11680W        W27574  15.224  16.179  15.790 -0.0405 -0.0321  0.2747
11681W        W27575   7.914   0.015  12.370  0.2070 -0.1537 -0.0909
11682W        W27576   4.793   1.031   3.908  0.3082  0.1845  0.2244
11683W        W27577  10.399  14.678   4.271  0.0688  0.0623  0.3131
11684W        W27578   9.123  13.995  12.407  0.1295  0.1980  0.2128
11685W        W27579  13.802  14.199   1.563 -0.2878 -0.0850 -0.0395
11686W        W27580   6.647   8.347   0.924 -0.0732 -0.0895 -0.1096
11687W        W27581  17.456  10.048  16.032 -0.0701  0.0282  0.0390
11688W        W27582   8.367  17.569   4.048  0.0414  0.1552 -0.1562
11689W        W27583  16.828  13.834  16.950 -0.2734  0.0006  0.0515
11690W        W27584   7.759   6.018   0.653  0.1887 -0.2114  0.2633
11691W        W27585   7.294  14.658  15.125  0.0811 -0.1554  0.0487
11692W        W27586   2.767   5.813   6.042 -0.2941  0.0246  0.1367
11693W        W27587   4.640   2.322  14.761  0.4052 -0.2633 -0.0234
11694W        W27588  11.542  10.919   0.270  0.1920  0.2297 -0.0071
11695W        W27589   1.316  14.283  16.504 -0.2418  0.1423 -0.2774
11696W        W27590   4.133   1.690   3.383 -0.0875  0.2205 -0.0891
11697W        W27591   3.724  11.426  12.625 -0.0319 -0.2952 -0.1097
11698W        W27592   2.631  11.847  15.252  0.2896 -0.1779 -0.0840
11699W        W27593  15.892  12.095   1.524  0.0800  0.1226 -0.1634
11700W        W27594   2.322  13.956  16.683  0.1555  0.2282 -0.0381
11701W        W27595  11.721  12.158   3.136 -0.0001  0.2125 -0.2277
11702W        W27596   2.840   9.726   5.128  0.0525 -0.1353  0.5092
11703W        W27597   7.060   7.798  14.992  0.0169 -0.0555  0.0703
11704W        W27598   3.989  14.979  12.920  0.1126 -0.1101 -0.2604
11705W        W27599   0.046  13.999  10.916 -0.2752  0.1919  0.1444
11706W        W27600  11.460   3.021  13.252 -0.1393  0.0553  0.0472
11707W        W27601   2.495  14.435  16.818 -0.0741  0.4990 -0.1302
11708W        W27602   4.041   3.129   1.571 -0.1807  0.0003  0.0747
11709W        W27603   5.127  13.391   5.746 -0.1014 -0.2787  0.3161
11710W        W27604  11.484   7.300  16.396  0.2080  0.4087 -0.2757
11711W        W27605  16.955   5.758   4.843 -0.2530 -0.1238  0.3728
11712W        W27606   6.460   3.676   3.410  0.3148 -0.1684 -0.0256
11713W        W27607   4.921  10.886   4.739  0.1324  0.2090 -0.3047
11714W        W27608  15.878  10.818  12.492  0.1826  0.4490  0.2430
11715W        W27609   2.734   0.143  12.224 -0.1279  0.2334  0.1114
11716W        W27610  11.573  14.672   2.992  0.3764 -0.1411 -0.0429
11717W        W27611  13.866  15.845   0.131 -0.0622 -0.2900  0.0062
11718W        W27612  16.261  11.001   4.346 -0.2124  0.0377 -0.0537
11719W        W27613  14.902  13.958   3.529  0.0774 -0.2306  0.1765
11720W        W27614   4.647  11.463   3.991  0.0908 -0.0978  0.0358
11721W        W27615  12.995   8.206   5.683 -0.1950 -0.2818 -0.1816
11722W        W27616  10.452   2.402  12.465 -0.1611  0.0675  0.0742
11723W        W27617   5.433   0.210   0.672 -0.1201 -0.3553  0.2986
11724W        W27618   8.276  14.610   3.511  0.0882  0.1909  0.0256
11725W        W27619  12.803  10.770   3.025 -0.3575  0.0608 -0.0198
11726W        W27620   7.920  13.569  15.301 -0.3785 -0.2923  0.0111
11727W        W27621  15.416  12.314   2.323  0.1497 -0.0903 -0.1361
11728W        W27622   1.145  17.054   2.888  0.0951  0.4274  0.0841
11729W        W27623  10.830  10.337  16.052 -0.0259  0.2157 -0.1325
11730W        W27624  11.153  12.593   0.232 -0.0011  0.0168 -0.2115
11731W        W27625   7.377   3.950   4.428  0.1249  0.1682 -0.0053
11732W        W27626   1.964   0.906   6.807 -0.1982  0.2420 -0.1864
11733W        W27627  11.331   6.579  15.135 -0.0519  0.1205  0.5481
11734W        W27628   2.747  16.398  12.355  0.5249 -0.0822  0.1420
11735W        W27629  13.420  12.554   5.600 -0.1437 -0.2017 -0.0902
11736W        W27630  10.373   2.145  15.090 -0.2066 -0.1447 -0.2185
11737W        W27631   9.213  10.802   1.184 -0.1548  0.2607 -0.1433
11738W        W27632  15.736  11.411  16.603  0.0837  0.0464  0.1132
11739W        W27633  13.252   9.528   2.634 -0.1918  0.1865 -0.0717
11740W        W27634   1.591  10.837  11.356  0.3621 -0.0049 -0.2064
11741W        W27635  16.598   8.196   2.468 -0.3409  0.1370  0.0432
11742W        W27636   0.079  14.632   3.273 -0.2624  0.0144 -0.0597
11743W        W27637  16.320   7.256  14.387 -0.2367 -0.0661  0.0002
11744W        W27638   7.165  10.242  11.127 -0.2567  0.2141  0.0130
11745W        W27639  15.963   9.803   2.979  0.1712  0.0785  0.0084
11746W        W27640   5.535   9.107   4.273  0.1261  0.0210  0.0438
11747W        W27641  15.917   4.681   6.226 -0.3820 -0.2001 -0.0238
11748W        W27642  14.513  11.995  12.900  0.4784  0.1704  0.0462
11749W        W27643   0.857   5.192  15.722  0.2280  0.0482 -0.1668
11750W        W27644  17.221  16.733  16.892  0.2182  0.0371  0.0093
11751W        W27645  11.601  10.800   2.012 -0.1095 -0.2835  0.0934
11752W        W27646   1.918   4.105  12.813  0.0011  0.0541 -0.3781
11753W        W27647   3.738   1.641  16.018 -0.1116  0.4213  0.0910
11754W        W27648  12.434   6.208  12.643 -0.1709  0.1402 -0.1963
11755W        W27649   5.090   3.481   2.320  0.1457  0.1220  0.0598
11756W        W27650  12.233   1.581  15.477  0.0612  0.1877 -0.0342
11757W        W27651  15.956  13.370   3.438  0.0862 -0.1540  0.0083
11758W        W27652   8.391  14.886  15.726  0.2995  0.3211 -0.3074
11759W        W27653   1.930   0.933   5.405  0.2404 -0.0056 -0.0376
11760W        W27654  15.328  10.152  14.442 -0.5640  0.0795 -0.2885
11761W        W27655  13.068  13.994   5.347 -0.2222  0.0235 -0.0245
11762W        W27656  12.068  14.548  16.763 -0.0690 -0.1193 -0.1196
11763W        W27657   0.777  11.399   0.579 -0.0020  0.0342  0.3404
11764W        W27658   9.036   6.616  14.568 -0.2081  0.0273 -0.0647
11765W        W27659  13.635  10.111  16.397 -0.0570 -0.0095 -0.2595
11766W        W27660  15.138  14.985   5.435  0.1165  0.0013  0.3174
11767W        W27661  16.311  15.299   3.923 -0.2820  0.0386  0.0936
11768W        W27662   4.532  16.566  15.254 -0.1013  0.3200  0.2686
11769W        W27663  15.872   3.951  16.019  0.0863 -0.1915 -0.2860
11770W        W27664   7.775   1.893   4.859  0.3598 -0.2023 -0.2948
11771W        W27665   8.631   6.160   5.101 -0.1937  0.2045 -0.1002
11772W        W27666   3.608   1.620  14.811 -0.0101  0.0289  0.0151
11773W        W27667  10.092   4.236  11.877  0.1496  0.0044  0.2504
11774W        W27668  12.585   8.224  12.206  0.2598  0.2406 -0.0599
11775W        W27669   8.411   4.849  16.215  0.0446 -0.2002 -0.0818
11776W        W27670  12.973   4.830   2.234  0.1466  0.3781  0.0858
11777W        W27671  10.707   4.823  14.814  0.0317 -0.1015 -0.1277
11778W        W27672   4.353   9.538  12.910 -0.1175  0.1479 -0.2862
11779W        W27673  16.182  14.555   4.642  0.1122 -0.0173  0.1700
11780W        W27674  12.945  13.631   1.892 -0.2446  0.0948 -0.1364
11781W        W27675   7.558   8.072  13.009  0.1478 -0.3537 -0.1223
11782W        W27676  11.019  14.759  15.003 -0.1155  0.2721 -0.1063
11783W        W27677   5.133   9.908  13.057  0.3082 -0.1707 -0.0608
11784W        W27678  14.901  11.593   2.545 -0.2738 -0.2491  0.0823
11785W        W27679   7.530   4.676  15.240  0.2005  0.0710  0.1215
11786W        W27680   9.151   6.689   2.609 -0.1898  0.1722  0.1180
11787W        W27681  13.464   9.060   0.404 -0.3196  0.0679 -0.1498
11788W        W27682  16.725   2.287  14.282 -0.0825 -0.2445 -0.2520
11789W        W27683  13.250   0.867   3.366  0.3285 -0.0135  0.2135
11790W        W27684  12.758   8.321   0.408 -0.2452 -0.2667  0.0215
11791W        W27685   1.674   4.270  15.840  0.1349 -0.1903 -0.2427
11792W        W27686   1.906   6.995  15.069 -0.4727 -0.0785  0.0431
11793W        W27687  16.671  12.074  13.822 -0.0433  0.0781  0.0411
11794W        W27688   3.622  15.982   4.001  0.1743  0.3359 -0.1949
11795W        W27689   7.218  10.631   1.589 -0.0090 -0.0330 -0.2618
11796W        W27690  16.576   5.095   2.397 -0.1033  0.2204  0.2214
11797W        W27691   6.369  12.793  13.420  0.0329  0.1990 -0.0527
11798W        W27692   8.371   2.729   2.608 -0.0954  0.1585 -0.0978
11799W        W27693   2.888  10.647   2.978 -0.2305 -0.2192  0.1319
11800W        W27694  17.334   2.962  14.733  0.2706  0.0402  0.1871
11801W        W27695   7.839   9.781   0.569 -0.0127  0.1283  0.0303
11802W        W27696  16.747  12.030  11.204 -0.0312  0.2114  0.2031
11803W        W27697  13.076  14.212  12.104 -0.2789  0.0897  0.1679
11804W        W27698  15.720   8.163  17.085  0.0832 -0.2025 -0.2394
11805W        W27699   8.546  17.085   4.139  0.1912  0.1335  0.4704
11806W        W27700   0.969  16.516  16.027  0.1805  0.2783  0.0296
11807W        W27701  12.207   8.878  14.469 -0.2148 -0.1987 -0.0516
11808W        W27702  11.377   4.042  12.151  0.0129 -0.1950  0.0797
11809W        W27703   1.981   4.938  12.637  0.0622  0.3927 -0.2413
11810W        W27704  13.487   1.097  14.109 -0.1012 -0.0033 -0.0760
11811W        W27705  14.282   8.687   1.215  0.0220 -0.1786  0.2312
11812W        W27706  16.688   5.812  12.892 -0.0738  0.2138 -0.0824
11813W        W27707  14.247   1.010   0.449 -0.0178 -0.4433  0.2710
11814W        W27708  16.707   1.707  16.502  0.1495  0.0982 -0.0177
11815W        W27709  13.784  11.655   5.554 -0.0629  0.0650  0.1696
11816W        W27710   2.959  10.397   6.298  0.1475 -0.0362  0.4135
11817W        W27711   2.471   0.905   5.304 -0.1732 -0.1881 -0.1070
11818W        W27712  11.639  15.527   4.485  0.1336  0.1286 -0.0585
11819W        W27713  11.534   9.504  14.548  0.2637  0.2782 -0.1742
11820W        W27714  13.196   1.842   0.025 -0.1126  0.0684 -0.0149
11821W        W27715   7.628  17.532   0.978 -0.1193 -0.0132 -0.0859
11822W        W27716  16.932  10.023  16.308 -0.0495  0.0801 -0.0472
11823W        W27717   7.741   5.533   4.325  0.1670  0.1029  0.1277
11824W        W27718   8.750  10.808  11.332 -0.1490  0.0921 -0.3738
11825W        W27719   6.779   7.730  11.875 -0.0958  0.2960  0.2894
11826W        W27720  15.937  17.241  14.179 -0.0927  0.2561 -0.2144
11827W        W27721   5.501   1.302   4.543  0.3016  0.0184  0.1057
11828W        W27722  11.023   9.106   1.520 -0.1180  0.3876  0.2721
11829W        W27723  15.523  12.863  13.488 -0.2470  0.1222 -0.1470
11830W        W27724  16.477   1.621  13.211 -0.0900  0.5089 -0.0462
11831W        W27725   1.102  14.548   1.563  0.0577 -0.3277  0.0578
11832W        W27726  11.519  12.724   3.832  0.0008 -0.0115 -0.1154
11833W        W27727   3.117   6.824  15.353  0.2816  0.0986  0.0634
11834W        W27728   2.407  11.624   3.754  0.1648 -0.2081 -0.0450
11835W        W27729  15.902  15.257  13.550  0.0720 -0.0750 -0.1569
11836W        W27730  15.825   3.077   5.933  0.2703 -0.2503 -0.4667
11837W        W27731   2.918   7.939  16.997 -0.1945 -0.1412 -0.2293
11838W        W27732   8.118   3.083   5.402  0.1082 -0.4847  0.0329
11839W        W27733   3.575   9.950  14.201 -0.1773 -0.0157 -0.0030
11840W        W27734   0.815   9.052  15.972  0.0951  0.0451 -0.2414
11841W        W27735   3.549   4.012   2.872 -0.1680 -0.0874 -0.0701
11842W        W27736  13.626   7.197  12.128 -0.0544  0.0599  0.0351
11843W        W27737   0.158  11.470  15.667  0.0138  0.1960 -0.0273
11844W        W27738   8.805   3.412  16.530 -0.0840  0.0290  0.0193
11845W        W27739  12.409   8.781  12.041  0.0719  0.1878 -0.0014
11846W        W27740   9.581  13.854   1.602 -0.0380  0.3192 -0.0355
11847W        W27741  14.197  13.294  13.963  0.0340  0.0843 -0.0666
11848W        W27742   8.432  14.853  14.012  0.2225  0.3881  0.1546
11849W        W27743  12.858   7.653   2.453 -0.1342  0.0525 -0.0132
11850W        W27744  13.936  11.825  13.730  0.0371 -0.0840 -0.0301
11851W        W27745   0.646  12.810   1.719 -0.0876 -0.2170 -0.1796
11852W        W27746   5.122   5.091   0.903 -0.1198  0.0162  0.3063
11853W        W27747  16.262   5.487   5.631 -0.1811  0.2256 -0.0597
11854W        W27748   5.374  17.587  13.441  0.2700  0.1096  0.0528
11855W        W27749   2.897   7.368   5.104 -0.0233 -0.0474  0.2083
11856W        W27750  13.365   0.701   5.986  0.0642  0.0078 -0.1693
11857W        W27751  11.054  13.785  14.287 -0.3136 -0.2356 -0.1699
11858W        W27752   5.820   3.182  12.516  0.0207  0.2361  0.1821
11859W        W27753   7.371   4.330   4.793 -0.2158 -0.2017  0.3670
11860W        W27754  12.317   1.278   2.916 -0.1057  0.1915  0.1666
11861W        W27755   1.762   8.429  14.800 -0.0811  0.1307  0.0844
11862W        W27756  11.746  11.340  12.512 -0.1472 -0.0170  0.0793
11863W        W27757  16.759   3.996  11.771  0.0006 -0.0246 -0.0747
11864W        W27758   9.662   0.276  16.426  0.4320  0.1600  0.2668
11865W        W27759  14.879  11.286  16.279  0.2550  0.0490 -0.1062
11866W        W27760  11.350   8.739   1.320  0.0114  0.1912  0.0268
11867W        W27761  14.980   4.352  15.746  0.1061 -0.1969  0.2590
11868W        W27762  10.005   3.587  12.817 -0.1364 -0.2553  0.3451
11869W        W27763   7.295  15.885  13.150  0.1202 -0.2209  0.0186
11870W        W27764   7.090  13.958   3.462 -0.2858 -0.0348 -0.0621
11871W        W27765   6.555   5.920   4.584 -0.0153 -0.0820 -0.3010
11872W        W27766   7.013  17.295  14.320 -0.2524  0.1584 -0.0625
11873W        W27767  12.707   8.973   4.284  0.0762 -0.1925 -0.1191
11874W        W27768   2.549  15.239  14.489  0.0388 -0.1889 -0.4326
11875W        W27769  10.655  11.952   0.747 -0.0236  0.2175 -0.0231
11876W        W27770   7.708   7.184   0.098  0.3229  0.1927 -0.0587
11877W        W27771   0.586  14.088  12.860 -0.1269 -0.0914  0.1180
11878W        W27772   6.602   2.423   5.920  0.1475 -0.1407  0.0705
11879W        W27773   1.599   1.003   2.979 -0.2090 -0.0342 -0.2740
11880W        W27774   5.380   7.859   1.839 -0.2899  0.1701 -0.0059
11881W        W27775   2.847  16.930  15.911 -0.0475 -0.4403 -0.0876
11882W        W27776   1.336   7.890  13.672 -0.1316 -0.3214  0.1211
11883W        W27777  13.510   7.281  16.346  0.0890  0.0677  0.1701
11884W        W27778   0.157  15.496  12.025  0.3209 -0.3058  0.0970
11885W        W27779   3.245  12.777  13.784  0.1903  0.0916  0.0804
11886W        W27780   5.013   1.824  15.056 -0.1369 -0.0771 -0.1143
11887W        W27781   5.239   0.032  14.630 -0.1216  0.0630  0.2627
11888W        W27782   3.807   9.919  14.772  0.3113 -0.1151  0.2080
11889W        W27783   8.592   0.039   2.754 -0.0268 -0.2141 -0.1087
11890W        W27784  14.529   2.355   4.172  0.1818  0.1454  0.0397
11891W        W27785   7.588   7.619  11.239  0.4376 -0.0793 -0.2757
11892W        W27786   7.463   4.015   0.516 -0.1060  0.1912 -0.1029
11893W        W27787   0.439   3.291   4.784 -0.0714  0.0669  0.0644
11894W        W27788   5.772  14.850   5.073 -0.1896 -0.0732 -0.3789
11895W        W27789   3.182   1.652   0.118  0.1034  0.2895 -0.0489
11896W        W27790   2.445   7.322  12.943 -0.0594 -0.1764 -0.0971
11897W        W27791  17.288   7.921   2.257 -0.0651  0.3169 -0.1678
11898W        W27792   4.310   6.567  12.364 -0.1925  0.2860  0.0255
11899W        W27793  13.261   1.607   1.177  0.0917 -0.1506  0.1066
11900W        W27794  12.060  11.055  13.398 -0.1028 -0.0119 -0.2938
11901W        W27795   7.007  16.862  13.970  0.3912 -0.0503  0.2329
11902W        W27796   2.897  10.330   4.664  0.0352 -0.4579  0.1331
11903W        W27797  11.773  15.783  12.910 -0.1453  0.1617 -0.0352
11904W        W27798  10.599   9.633   0.464 -0.1498 -0.2039  0.0708
11905W        W27799   3.843  16.533   3.733 -0.2226 -0.1036 -0.1292
11906W        W27800   3.341   3.418   2.112 -0.1073 -0.0984 -0.0150
11907W        W27801  10.423   1.705   2.229  0.2900 -0.2040 -0.1349
11908W        W27802   7.680   7.411  16.337  0.0990  0.0095  0.2242
11909W        W27803   8.314   2.445  14.155 -0.0179 -0.3229  0.0119
11910W        W27804  16.844  10.867  16.093  0.1717 -0.0763 -0.2507
11911W        W27805   4.705   7.354  16.872 -0.3032 -0.1499  0.0359
11912W        W27806  16.770  15.747   1.370 -0.2665  0.0415 -0.0518
11913W        W27807  11.206  17.275   3.119 -0.2079  0.0962  0.0669
11914W        W27808   5.828  12.847   5.584 -0.1357  0.0238 -0.2159
11915W        W27809   5.719   6.675  17.082  0.0270  0.2763  0.2409
11916W        W27810  11.166  12.116   2.564 -0.1286 -0.0138  0.0633
11917W        W27811   8.980   5.660   4.841 -0.0658 -0.1785  0.4818
11918W        W27812  10.131   8.839  16.965  0.0886  0.0798  0.0610
11919W        W27813  14.858   0.970  16.768  0.0962 -0.3196  0.4623
11920W        W27814  16.658  14.198   1.169 -0.2573 -0.3195  0.2474
11921W        W27815  17.516   8.278   4.480  0.1004 -0.0678 -0.0296
11922W        W27816   2.351   2.768   3.075 -0.0876 -0.1804  0.1833
11923W        W27817  12.914   3.434  15.443  0.3582 -0.0852  0.2967
11924W        W27818   9.351   8.759   1.251 -0.2153 -0.1283 -0.1355
11925W        W27819   3.692   2.585   4.477 -0.0625 -0.0461 -0.1652
11926W        W27820  17.175  14.363  12.069 -0.0748  0.1357  0.3181
11927W        W27821   3.193  13.901   1.240  0.0544  0.0272 -0.0954
11928W        W27822   1.519  16.269   1.836  0.2463  0.0574  0.1716
11929W        W27823  11.993   2.133   5.421  0.0581 -0.0476  0.1012
11930W        W27824   5.056  12.105   1.062  0.0761  0.0226  0.1472
11931W        W27825   0.821   4.529   4.527 -0.5020 -0.1865 -0.0410
11932W        W27826  16.469   0.559   2.596 -0.0189  0.3171  0.0658
11933W        W27827   4.034   8.319   5.177  0.1535 -0.1139 -0.0376
11934W        W27828  15.255  13.620   3.267 -0.0152  0.0914  0.1926
11935W        W27829   0.255  13.259  14.476  0.0778  0.1603  0.3045
11936W        W27830   0.480   3.130   4.211  0.0482 -0.0322 -0.1106
11937W        W27831  14.430  15.778  16.205  0.0597  0.2329  0.1242
11938W        W27832  10.842   4.316   1.362 -0.0401 -0.4554 -0.0056
11939W        W27833  14.615   6.485  13.917 -0.1746  0.1018 -0.1884
11940W        W27834  16.317   3.217  14.077  0.1018  0.0044 -0.0684
11941W        W27835  14.356   8.102   0.113  0.0040 -0.0660  0.1902
11942W        W27836  11.714  10.187   5.176  0.0788  0.0693 -0.1889
11943W        W27837   1.985  10.030   2.216 -0.1001 -0.0207  0.0286
11944W        W27838   0.587   0.839  12.649 -0.1059 -0.0926  0.2987
11945W        W27839   2.808   5.379  13.006  0.1426 -0.3281  0.1413
11946W        W27840  11.412   1.653   4.019  0.1417  0.1603 -0.3625
11947W        W27841   8.653  16.770  15.711 -0.3357 -0.1591 -0.0601
11948W        W27842  11.186  10.808  14.673 -0.1356  0.2893  0.0762
11949W        W27843  14.950  14.629  16.426 -0.0433  0.2152  0.1917
11950W        W27844  13.132  16.963   2.759  0.1141  0.0089 -0.0833
11951W        W27845  16.423   9.894  16.502  0.1816 -0.0915  0.1797
11952W        W27846   7.976   8.685   1.305 -0.2542 -0.1385  0.0901
11953W        W27847   4.705  11.935  16.819  0.0250 -0.1607  0.1100
11954W        W27848   9.993   9.461  11.988  0.0352 -0.4336 -0.2275
11955W        W27849   3.228   4.695   0.202  0.1566 -0.1427  0.0480
11956W        W27850   0.594  15.397   1.165 -0.3187  0.1699 -0.1391
11957W        W27851   7.170  12.844   4.571 -0.2543  0.2647  0.0690
11958W        W27852   3.716  10.317  16.140  0.1097  0.0731  0.0583
11959W        W27853  10.055   7.893   3.169 -0.1558  0.3753 -0.0302
11960W        W27854   9.289  14.938   3.741  0.0662  0.1792  0.3559
11961W        W27855  14.895  11.653   4.367  0.0913 -0.1185 -0.1153
11962W        W27856   6.307  15.284  12.445  0.0443  0.0030 -0.0868
11963W        W27857   8.832   9.376  12.535 -0.2901 -0.0238  0.0945
11964W        W27858   5.522   1.178  16.877  0.1696  0.0325 -0.1150
11965W        W27859   4.630  16.319  12.976  0.1448  0.2057 -0.2171
11966W        W27860  15.105  13.047  15.314 -0.1504 -0.1459 -0.1871
11967W        W27861   8.914   7.062   0.956 -0.1602  0.0924 -0.0133
11968W        W27862   5.579   5.838  13.127 -0.0039  0.0066 -0.1983
11969W        W27863  13.874   0.880   0.780  0.1339 -0.0226 -0.1970
11970W        W27864   7.409  16.482  10.852  0.0616  0.0696 -0.2205
11971W        W27865  16.194   1.899  12.578  0.0325 -0.0770  0.2108
11972W        W27866  10.134  12.429  16.590  0.0032 -0.0732 -0.1162
11973W        W27867  10.932   6.218   2.155 -0.1096  0.2387  0.3751
11974W        W27868  14.833   8.619  15.324 -0.0426 -0.0480  0.2075
11975W        W27869   4.617   8.318  13.935 -0.0202  0.1308  0.2801
11976W        W27870   4.966   8.836  14.108 -0.1134  0.0291 -0.1054
11977W        W27871   3.137  11.918   3.769  0.0696 -0.3117 -0.0437
11978W        W27872   1.107  11.191   1.338  0.0636 -0.0868 -0.4904
11979W        W27873   8.093   2.828   3.681 -0.2889  0.2519  0.2841
11980W        W27874  12.958   0.853  15.715 -0.2978 -0.0354 -0.0001
11981W        W27875   5.692  14.906   5.876  0.0865 -0.1403 -0.1238
11982W        W27876   7.205   4.450   0.573 -0.1141 -0.0220  0.0310
11983W        W27877  10.218  12.827   1.018  0.1226 -0.5041  0.1064
11984W        W27878   1.590   8.039   5.262 -0.0105 -0.0602 -0.2707
11985W        W27879  14.257   6.820   2.105 -0.0146 -0.1252  0.1256
11986W        W27880  10.809  16.124   1.870 -0.1116 -0.1161 -0.0888
11987W        W27881  10.435   7.352  14.269 -0.2639 -0.3047 -0.2617
11988W        W27882   3.742  16.723  14.566 -0.0944 -0.0503 -0.1135
11989W        W27883   0.450   1.579  14.401 -0.1584 -0.1410  0.0828
11990W        W27884   1.479  17.259   2.195 -0.2448 -0.1653 -0.0323
11991W        W27885  12.561   6.245  15.505 -0.0594  0.3380 -0.1887
11992W        W27886   3.175  12.297   4.477  0.2142 -0.1426  0.3967
11993W        W27887   9.267  17.491  17.061  0.4856 -0.0454  0.1218
11994W        W27888  13.001   5.326  12.475  0.1357  0.3429  0.0698
11995W        W27889   7.290   2.912  16.902  0.1869  0.4239 -0.0907
11996W        W27890   6.266  15.777   2.045  0.0039 -0.2240 -0.1188
11997W        W27891   8.736  13.246   5.570 -0.2556 -0.1889 -0.0882
11998W        W27892   1.562  12.712   4.563  0.2647 -0.1922  0.3255
11999W        W27893   3.934   6.645   2.546 -0.2115 -0.2876  0.1016
12000W        W27894  12.739   2.124  14.023 -0.0009 -0.0012  0.0378
12001W        W27895   4.008   2.745  15.642  0.1468  0.2036 -0.0438
12002W        W27896   1.742   1.571  15.618  0.0042 -0.0166  0.1336
12003W        W27897  15.563  14.686  15.312 -0.1343 -0.1710  0.0093
12004W        W27898   8.711  12.427  15.922 -0.1454  0.0417  0.1890
12005W        W27899  14.776   5.794  10.932  0.0326  0.0594 -0.1296
12006W        W27900   4.304   6.687  15.039  0.0776 -0.0999  0.0882
12007W        W27901   1.136   1.057   4.585  0.0470 -0.0311  0.0062
12008W        W27902   2.124  16.210   0.091 -0.2045  0.0296  0.2091
12009W        W27903   6.451  13.997   0.636  0.0567 -0.1039  0.1293
12010W        W27904   9.169   7.124  13.010  0.1703 -0.2103  0.0269
12011W        W27905   5.031   8.171   3.401 -0.0641  0.0145 -0.0059
12012W        W27906   3.847  10.405   0.621  0.0770 -0.3225 -0.0746
12013W        W27907   2.176   6.534   3.432  0.1006  0.2964 -0.1178
12014W        W27908   8.612   0.242   4.722 -0.2345  0.1297 -0.0338
12015W        W27909  14.292   3.505   4.386  0.0321  0.0349  0.1145
12016W        W27910   7.267   0.664   3.484 -0.1080 -0.1845 -0.3665
12017W        W27911   4.477  11.754  11.870  0.3574  0.1382 -0.1075
12018W        W27912  11.495   5.435   0.778 -0.0609  0.0441 -0.0582
12019W        W27913   7.809  16.574   2.831 -0.0233 -0.1722  0.0493
12020W        W27914   9.440   5.051   5.358  0.1203  0.1094 -0.0754
12021W        W27915  15.603   6.745  15.731 -0.0590  0.1179 -0.1781
12022W        W27916   7.872   4.091   2.075 -0.2187  0.3260  0.2238
12023W        W27917  12.148   0.023   2.486 -0.0769 -0.0052  0.1719
12024W        W27918  14.670   0.486  14.429  0.1078  0.2386 -0.0294
12025W        W27919   2.118   3.511   0.797 -0.1330  0.2275  0.2326
12026W        W27920  17.501   5.770  12.532  0.1424 -0.0946  0.2123
12027W        W27921   6.907  10.173   0.375 -0.0168  0.1313 -0.0392
12028W        W27922   3.863  16.317  14.772  0.0495 -0.1022  0.1329
12029W        W27923   8.456   3.211  12.637 -0.1800  0.0669 -0.0358
12030W        W27924  10.904   4.743  13.200  0.0554 -0.1826 -0.0387
12031W        W27925   8.626   0.942   3.001 -0.4376  0.1930  0.0589
12032W        W27926   4.134  16.818   0.150 -0.0839 -0.1642  0.0725
12033W        W27927  17.486   7.067   3.907 -0.1168 -0.0438  0.2624
12034W        W27928  14.843   2.495  15.617  0.1730  0.1595 -0.0800
12035W        W27929   0.587  17.259   3.367  0.0058  0.0723 -0.0734
12036W        W27930   6.997  16.945   1.144  0.1445 -0.3057 -0.1055
12037W        W27931   9.406  14.169   2.794  0.3903 -0.1522  0.0777
12038W        W27932   5.207   9.873   4.570 -0.1485  0.0682 -0.2256
12039W        W27933  10.738  17.442   4.290 -0.1210 -0.1440  0.0091
12040W        W27934   4.553  15.696   5.589  0.0840 -0.0771 -0.0587
12041W        W27935  13.672   3.485   6.537  0.1423  0.1447 -0.1626
12042W        W27936  17.584   8.274   3.598 -0.0903  0.0218 -0.1621
12043W        W27937  13.399   2.753  15.752  0.0032 -0.0937 -0.0585
12044W        W27938   0.684  14.415  15.184  0.3333 -0.1618 -0.0231
12045W        W27939   7.965   2.176   1.149 -0.3982 -0.1076  0.2141
12046W        W27940   9.011  17.439   5.793 -0.0023  0.0721  0.1276
12047W        W27941  10.941   0.656  13.876 -0.0081 -0.0780  0.0176
12048W        W27942  13.905  12.420  13.745 -0.0820  0.0393 -0.1287
12049W        W27943   3.227  16.310  13.266  0.0384 -0.0821 -0.2676
12050W        W27944  14.299  12.528  13.453  0.2812  0.1062 -0.0077
12051W        W27945  13.027   2.370   4.482  0.1870 -0.1018 -0.3866
12052W        W27946   7.930  10.050   5.225 -0.0060  0.0685 -0.2236
12053W        W27947  17.125   0.366   0.904  0.3611 -0.5496 -0.3578
12054W        W27948   4.251   1.510  16.559 -0.1310 -0.0713  0.2269
12055W        W27949  11.231   1.524  14.029 -0.1284 -0.0703 -0.0201
12056W        W27950   2.362   1.986  15.721 -0.1991 -0.2519  0.1548
12057W        W27951   1.643   7.868  14.079 -0.0933  0.1637  0.1538
12058W        W27952   5.172  16.036   4.911  0.0562  0.0679 -0.1812
12059W        W27953  17.246   1.974   0.589 -0.0316  0.4011 -0.2504
12060W        W27954   6.290  13.165   2.622  0.2739  0.0413 -0.0811
12061W        W27955   3.496  12.944   0.283 -0.0101 -0.2527 -0.1694
12062W        W27956  11.882   4.345   2.698  0.1597 -0.0300  0.0991
12063W        W27957  12.976  15.727   5.919  0.0409 -0.1037 -0.0802
12064W        W27958   3.927  11.809   1.533 -0.0546  0.0419 -0.0046
12065W        W27959  14.572  10.575  12.186  0.0545  0.0690 -0.0871
12066W        W27960   8.660   5.368   2.423 -0.1898 -0.0131  0.0873
12067W        W27961   2.404   1.690  14.101 -0.1153 -0.2243  0.0798
12068W        W27962  11.074  14.785  11.628  0.0537  0.3176 -0.3638
12069W        W27963  15.393  13.994   3.676 -0.1720 -0.0794  0.3612
12070W        W27964  11.466  15.976   0.682  0.0436 -0.0006 -0.0782
12071W        W27965   0.213   3.515   5.157  0.2830  0.1869 -0.0385
12072W        W27966  16.500  15.287  16.016  0.0541  0.0340  0.2678
12073W        W27967  13.690   9.161   5.211  0.0514  0.0006 -0.3303
12074W        W27968   7.285  12.344  13.593 -0.1507  0.0379 -0.2909
12075W        W27969  12.641   4.762  15.031  0.0513  0.0695 -0.1647
12076W        W27970   3.407  15.272  15.583 -0.3594 -0.0778  0.1917
12077W        W27971   5.252   8.079   2.495  0.0115  0.0562 -0.1420
12078W        W27972   8.609  11.701  15.286 -0.2329  0.0521 -0.1310
12079W        W27973   9.975  13.016   4.079  0.3000 -0.1471  0.1691
12080W        W27974   4.174  15.644  15.340  0.2339 -0.1387 -0.4208
12081W        W27975   5.090   5.996   4.268  0.1901 -0.0183  0.1735
12082W        W27976  12.439  13.313   5.193 -0.0621 -0.2441  0.3392
12083W        W27977   7.696  12.192  11.595  0.0029 -0.0002 -0.2099
12084W        W27978   2.642  13.401  12.202 -0.0303  0.2544  0.0605
12085W        W27979  11.635   1.650  14.288  0.1490  0.1743 -0.0798
12086W        W27980   9.895  10.379  16.332  0.0828 -0.0378 -0.1187
12087W        W27981   7.706  14.806  14.723  0.2082  0.3509  0.0145
12088W        W27982  16.541   6.825  14.284 -0.1630  0.2229  0.2647
12089W        W27983   9.372  10.211  14.168 -0.1616 -0.3056  0.0539
12090W        W27984  13.235   2.026  12.419 -0.4692 -0.0545  0.0423
12091W        W27985   8.668  15.222   1.877  0.0559  0.1456 -0.1059
12092W        W27986  14.315   8.941   5.404  0.0415  0.0761 -0.0798
12093W        W27987   5.332   5.756   1.764  0.1628 -0.1114 -0.2357
12094W        W27988   0.548   5.889   2.724 -0.0758  0.0532 -0.2003
12095W        W27989   1.471   4.827  12.306 -0.1443 -0.0760 -0.1671
12096W        W27990   7.967  10.544   0.869  0.0086  0.2243 -0.0870
12097W        W27991  15.938  12.525   5.506 -0.2559  0.2440 -0.1085
12098W        W27992   4.908  16.816  13.662 -0.2490  0.1441  0.1916
12099W        W27993   6.240   7.925  14.862  0.1021 -0.0519  0.0453
12100W        W27994  16.503  13.607   2.885 -0.2303  0.1267 -0.0990
12101W        W27995   1.937  16.120  12.905  0.3418  0.1161  0.0942
12102W        W27996  15.472   3.532  13.856 -0.1473 -0.1508  0.1699
12103W        W27997  13.289   6.310  15.206  0.0701  0.2381  0.3193
12104W        W27998   7.554  11.822   2.121 -0.3060 -0.0846  0.3845
12105W        W27999   9.689  12.555   4.238 -0.3616  0.0948  0.0242
12106W        W28000   4.847  12.955   5.605 -0.0289 -0.1620  0.3955
12107W        W28001   7.954   3.882  11.798  0.4649  0.0638 -0.1192
12108W        W28002   6.167   1.768   1.597 -0.1119  0.1472  0.1236
12109W        W28003  11.572   0.206   3.046  0.0335  0.1491  0.0171
12110W        W28004   3.131  15.331   2.336 -0.0190  0.1584  0.0406
12111W        W28005   8.472  11.593  13.620  0.3141  0.2678  0.2598
12112W        W28006   3.753  14.533  13.981 -0.0798 -0.1863 -0.4460
12113W        W28007  11.553  14.726   1.201 -0.0920 -0.1678 -0.2457
12114W        W28008  12.125   5.897   1.869 -0.1961  0.1566  0.1383
12115W        W28009  14.434   9.258  13.507 -0.2158 -0.3088  0.0270
12116W        W28010   2.724   1.340   1.427  0.1256 -0.2024  0.0077
12117W        W28011   9.348  16.138   5.257 -0.2029 -0.5650 -0.2889
12118W        W28012   0.597   0.334   1.658 -0.3731 -0.0704 -0.0889
12119W        W28013   3.578  14.571  15.324  0.3830  0.0376  0.1211
12120W        W28014   1.246  17.346  16.224  0.0898  0.2502 -0.0014
12121W        W28015   3.812   4.713   2.559 -0.2407  0.0846 -0.0751
12122W        W28016   0.418  13.789   0.672 -0.0877 -0.0320  0.1516
12123W        W28017   7.074   6.556  12.461  0.0380 -0.2499 -0.2563
12124W        W28018   8.413   8.475  16.555 -0.0238  0.3434 -0.3092
12125W        W28019   6.395  12.036  13.810 -0.0501  0.0071 -0.1800
12126W        W28020  14.924  11.354   1.512  0.0485 -0.1767  0.3242
12127W        W28021   6.928   6.538   4.249 -0.1294  0.0625  0.0890
12128W        W28022   4.787  12.148  11.891 -0.0646 -0.2553 -0.1648
12129W        W28023  11.528  14.694  15.015 -0.1920  0.0466 -0.0095
12130W        W28024  14.320   9.460   5.553  0.2781 -0.1916  0.1738
12131W        W28025  16.358   1.025   2.165  0.0741 -0.0008  0.0946
12132W        W28026  15.280  14.963  12.666 -0.1203  0.3846  0.0252
12133W        W28027   8.965  17.088  12.394 -0.0772  0.1659  0.1177
12134W        W28028   4.965   2.449   5.813 -0.1677  0.2222  0.0799
12135W        W28029  11.710  14.150  11.400 -0.0737 -0.1416 -0.1920
12136W        W28030  15.312  14.649  14.729 -0.0466  0.1084  0.2247
12137W        W28031  14.500  11.206  13.227 -0.2027 -0.2158  0.0368
12138W        W28032  10.111   4.791  15.596 -0.1949  0.1870  0.0291
12139W        W28033   7.484   4.460  16.200  0.2871  0.0346 -0.1265
12140W        W28034   8.425   8.049  11.520 -0.1228 -0.2498 -0.3374
12141W        W28035   1.553  13.628   1.663 -0.1725  0.2838  0.2200
12142W        W28036  17.577   6.528   3.768 -0.4477 -0.1673  0.0995
12143W        W28037   9.095  11.215  11.375 -0.1880  0.0736 -0.0536
12144W        W28038   0.039   2.073   3.624 -0.1443  0.1138 -0.0424
12145W        W28039  13.543  10.743   5.434 -0.2756 -0.0982 -0.0868
12146W        W28040   1.266   5.619  13.438 -0.0153  0.0429 -0.3759
12147W        W28041   2.965  11.003   2.634 -0.2317  0.0205  0.0137
12148W        W28042   8.518   4.885   6.397  0.0223  0.0062 -0.0215
12149W        W28043  11.460   8.998  11.333 -0.2988  0.4674 -0.1590
12150W        W28044   2.430   3.615   3.473 -0.0836  0.0678 -0.2327
12151W        W28045  14.681  12.823   2.020 -0.1636  0.3963 -0.0251
12152W        W28046  14.517   0.336   1.669 -0.0626 -0.2209  0.0929
12153W        W28047   5.014  12.798  14.539 -0.0692  0.0686  0.1226
12154W        W28048  10.074  16.221  16.424 -0.0327  0.1813  0.1675
12155W        W28049  16.781   1.412  13.992 -0.0147  0.2280 -0.1957
12156W        W28050  16.840   1.951  13.864  0.0173  0.0493 -0.0097
12157W        W28051   0.341  11.130  15.186  0.0320 -0.4983  0.1318
12158W        W28052   8.468  10.761  15.795 -0.0764  0.2514 -0.0822
12159W        W28053  15.762  10.739   3.044  0.1204  0.2045  0.1954
12160W        W28054  17.049  10.536   2.288 -0.1454  0.1458 -0.1686
12161W        W28055  13.994   2.080  11.625 -0.2494  0.1548  0.0512
12162W        W28056   2.756  13.501   5.103  0.0227 -0.2614  0.3394
12163W        W28057  12.376  11.449  11.482 -0.1423  0.0368  0.1518
12164W        W28058   3.262   2.264   6.054 -0.0575  0.0406  0.2224
12165W        W28059   6.862   5.899   1.624 -0.1518  0.4523  0.0226
12166W        W28060   1.124   5.570   2.805  0.1596  0.3981  0.1474
12167W        W28061   6.618  13.774  11.376  0.4977 -0.1776  0.2994
12168W        W28062  10.523   3.116  16.845 -0.1691  0.0548 -0.3536
12169W        W28063  11.447   4.420   5.230  0.1971  0.1461 -0.0256
12170W        W28064   9.963  13.754  15.559  0.0666 -0.2247 -0.2385
12171W        W28065  13.506   5.575   4.332  0.0607 -0.2599  0.0655
12172W        W28066  12.588   7.531   0.804  0.3219 -0.0607 -0.2238
12173W        W28067   3.151   4.551   3.557 -0.1381 -0.1478  0.0891
12174W        W28068   5.196  16.100   3.023 -0.0699  0.0621 -0.0676
12175W        W28069   0.931   4.058   4.350 -0.0443 -0.1150  0.1351
12176W        W28070   7.968  16.580   3.577  0.0090 -0.2259 -0.1628
12177W        W28071  10.666   1.267   4.343 -0.1038 -0.2607  0.0888
12178W        W28072  17.557   3.165   4.314 -0.2342 -0.0349  0.1253
12179W        W28073   6.875   8.025  13.027  0.1158  0.1778  0.2269
12180W        W28074  16.568   4.445   3.361  0.2560 -0.1147 -0.1796
12181W        W28075   9.414  16.760   0.632  0.0693 -0.0494 -0.0181
12182W        W28076  11.598  13.910   3.687 -0.0372 -0.1754  0.2043
12183W        W28077  17.307  12.634  13.755 -0.0855 -0.4990 -0.0440
12184W        W28078  10.802   1.644   3.189  0.2262  0.0122  0.2080
12185W        W28079  14.830   9.134   1.827 -0.1121 -0.3034 -0.1593
12186W        W28080   8.596  11.176   4.855  0.0577  0.0625 -0.0768
12187W        W28081   7.715  15.586  13.743  0.1587 -0.0116  0.0118
12188W        W28082  12.892   1.831  14.436  0.2672  0.0286 -0.3724
12189W        W28083  14.276   3.454  16.403 -0.0884  0.0576 -0.1252
12190W        W28084   3.458  16.648   0.017 -0.2036 -0.2970  0.1479
12191W        W28085   9.803   8.646  15.038  0.1281  0.1575 -0.0902
12192W        W28086   9.099  15.637  15.009  0.1439 -0.0726 -0.0307
12193W        W28087  17.042   2.551  15.339  0.2335 -0.0092 -0.0206
12194W        W28088   8.158   1.316   2.677  0.0314  0.2332 -0.2850
12195W        W28089   6.114   2.557  17.010  0.0949  0.0486  0.1123
12196W        W28090  15.405  13.832  14.351 -0.1754  0.2736 -0.0498
12197W        W28091   1.211   0.281   0.369 -0.0517 -0.0928 -0.3975
12198W        W28092   0.340  10.224  13.760 -0.0084  0.4118  0.1448
12199W        W28093  13.277  16.270  11.862 -0.0567  0.0328 -0.2012
12200W        W28094   5.676  14.002  15.992  0.2574 -0.1363  0.0982
12201W        W28095  15.221   6.986   6.151  0.1939  0.2593  0.1108
12202W        W28096   9.517  13.534  13.386  0.1000  0.1990  0.1062
12203W        W28097  13.471  11.203   3.500  0.0709  0.1943  0.0952
12204W        W28098  12.246  14.095  11.594  0.0457  0.1961  0.2254
12205W        W28099   7.697   1.643  13.192  0.2145  0.3959 -0.0505
12206W        W28100   1.026   8.598   3.853 -0.0237 -0.4280  0.1521
12207W        W28101   6.940   4.741  16.136 -0.2099 -0.0349  0.4101
12208W        W28102   7.649   2.947  13.008 -0.4296 -0.0263 -0.4222
12209W        W28103   7.978   3.817  15.400  0.0809  0.1632  0.1163
12210W        W28104  13.918  15.182  11.770 -0.1165 -0.3173  0.1910
12211W        W28105   4.622   1.334  13.661  0.0513 -0.1621 -0.1982
12212W        W28106  15.765   3.991   5.386  0.1816  0.1328  0.0793
12213W        W28107  14.714  13.304  13.258  0.4373  0.0440  0.0983
12214W        W28108   0.251  15.141   5.163  0.1679 -0.1130  0.2183
12215W        W28109   4.732   8.331  14.762  0.1793  0.1787 -0.0719
12216W        W28110   1.314  16.572  14.131  0.3458 -0.0141 -0.0829
12217W        W28111   3.112  14.415   5.690  0.2849 -0.1238 -0.0113
12218W        W28112  11.238  13.047   1.739  0.3326 -0.0791  0.2540
12219W        W28113  11.967   0.404   0.894  0.2001 -0.4275 -0.2353
12220W        W28114  15.517   3.487   2.325 -0.1361 -0.1126  0.0348
12221W        W28115  12.228   1.750  17.235  0.2363 -0.0085  0.1736
12222W        W28116  15.806  11.589   1.277 -0.1592 -0.0483 -0.0144
12223W        W28117  17.033   6.436  15.441  0.2265  0.1605  0.0231
12224W        W28118   7.190  15.829   4.611 -0.4450 -0.1199  0.0488
12225W        W28119  11.240   2.513   1.657 -0.1307  0.0255 -0.2544
12226W        W28120  11.804   8.570  14.778  0.2258 -0.4111 -0.0710
12227W        W28121  12.569   0.072  13.733  0.1341 -0.1834 -0.1701
12228W        W28122   7.973   9.443  12.563 -0.0390 -0.1883 -0.0079
12229W        W28123  13.435   8.901   5.516  0.0565  0.2273 -0.0022
12230W        W28124   4.710   0.467   3.768  0.0377  0.0170  0.0070
12231W        W28125   6.606   6.159   5.156  0.0471 -0.0825  0.0050
12232W        W28126   9.763   7.886  14.470 -0.3257  0.0172 -0.0056
12233W        W28127   3.821   1.384  16.857  0.1093 -0.1931  0.1414
12234W        W28128  14.784  11.871  16.587  0.3515 -0.5217  0.0094
12235W        W28129   8.995  14.620   2.565 -0.2146 -0.1002 -0.2280
12236W        W28130  15.596   5.169   2.269 -0.2466  0.0977  0.3815
12237W        W28131  13.253   8.523  12.590  0.0880 -0.0806 -0.2283
12238W        W28132   6.234   2.161   5.578 -0.1960  0.2168 -0.1657
12239W        W28133  13.738  15.349   3.752  0.1348 -0.1490  0.0397
12240W        W28134   2.537  15.399  15.027  0.0990  0.0940  0.3240
12241W        W28135   6.354   4.250  12.990 -0.1742  0.0231  0.0312
12242W        W28136   1.085   8.479   4.354 -0.0984  0.0061 -0.0098
12243W        W28137  16.808  17.341  12.393 -0.0163 -0.0800 -0.3127
12244W        W28138  11.081   6.772  15.778 -0.5304  0.1117 -0.0129
12245W        W28139   5.220   7.018  12.727 -0.1367 -0.0978  0.0459
12246W        W28140   7.535   7.873   0.823  0.2830 -0.0070  0.0592
12247W        W28141   6.508  10.295  16.279 -0.4469 -0.0169  0.1905
12248W        W28142  14.167  16.025   1.219 -0.1443 -0.0675 -0.2569
12249W        W28143   9.200  11.567   4.342 -0.0551 -0.0413  0.0105
12250W        W28144   6.659   7.757  11.365 -0.0939 -0.0502  0.0143
12251W        W28145   4.586   6.876   4.554  0.0277  0.1640 -0.2116
12252W        W28146   4.278   9.721  13.507  0.0314  0.0882  0.1330
12253W        W28147  14.091  17.295   1.119  0.1934 -0.2572  0.0636
12254W        W28148   4.596   3.504   5.179 -0.0561 -0.2332 -0.0005
12255W        W28149   7.230  15.806   5.967  0.0085  0.1119  0.1277
12256W        W28150   2.933   7.181  11.876  0.0070  0.1665  0.3100
12257W        W28151  10.596   4.821  16.474 -0.1297 -0.2786 -0.1808
12258W        W28152  14.201   9.010  15.894 -0.0561 -0.2032  0.0174
12259W        W28153  10.545   1.871  15.606  0.0678 -0.0693  0.0616
12260W        W28154  15.710   4.123  14.232  0.0601  0.1574  0.1492
12261W        W28155   4.364   0.993   4.193 -0.2365  0.2409 -0.2712
12262W        W28156   7.860  14.847   1.422  0.0856  0.1870 -0.1120
12263W        W28157   4.563  14.993   3.849  0.0577  0.0648  0.2615
12264W        W28158  16.411  16.567  12.952  0.0263 -0.0194  0.1364
12265W        W28159  12.769   3.101  13.443 -0.1000  0.0271 -0.1011
12266W        W28160   9.097   0.915   2.907  0.1388  0.2384 -0.1140
12267W        W28161  12.255   2.647   2.855  0.1788 -0.1069 -0.1136
12268W        W28162   2.526   6.050   1.305  0.0312 -0.0135 -0.1565
12269W        W28163   2.455   5.863  11.744 -0.0226 -0.0437 -0.1560
12270W        W28164  14.865  10.642  15.153  0.0900 -0.0061  0.1527
12271W        W28165   3.947   3.890  12.163 -0.0966  0.0326 -0.0835
12272W        W28166  14.273  10.069   3.206  0.2924 -0.2445 -0.1654
12273W        W28167   6.055  17.027  16.558 -0.0049 -0.0986 -0.2337
12274W        W28168   2.246   0.497   4.577  0.1695  0.3055  0.0268
12275W        W28169   9.650  11.642  12.085  0.3148 -0.3219  0.5767
12276W        W28170  14.064   5.628   5.591 -0.2826 -0.1592 -0.0602
12277W        W28171  11.090  15.073  14.276 -0.4298 -0.0529 -0.3263
12278W        W28172  14.193  15.452  13.919 -0.0749  0.2038 -0.0925
12279W        W28173  10.892   7.090   3.917 -0.4597 -0.2090 -0.0984
12280W        W28174  15.861   5.463   1.382 -0.0744  0.1180  0.0536
12281W        W28175   4.652   8.560  17.176 -0.0451 -0.1907 -0.4583
12282W        W28176   8.690  12.157  13.818 -0.1567 -0.1694  0.1144
12283W        W28177  16.801  15.061  12.047 -0.1506  0.0636 -0.3726
12284W        W28178  15.274   0.696  12.258  0.0362  0.1274  0.3888
12285W        W28179  14.538  13.391   6.037 -0.0109  0.0533 -0.1372
12286W        W28180   2.009   6.885   5.736 -0.2610 -0.2849  0.0658
12287W        W28181  11.733   8.240   4.983  0.0357 -0.0854 -0.1622
12288W        W28182  17.376  15.112   1.292 -0.1579  0.3943  0.1960
12289W        W28183   1.640   9.999  12.327 -0.1518  0.2020  0.0258
12290W        W28184   5.995  11.858   5.764 -0.2223  0.0112  0.2132
12291W        W28185   0.577   0.977   5.360 -0.1405  0.0765 -0.1759
12292W        W28186   1.852   0.001   3.917 -0.0642  0.2105  0.1392
12293W        W28187  15.287   0.261  12.505  0.1123  0.1015  0.4140
12294W        W28188  12.877   1.292   1.369 -0.0061  0.3916 -0.0563
12295W        W28189   5.156   6.926  12.052  0.1246  0.1231 -0.3847
12296W        W28190   1.753   8.322   3.548  0.1972  0.1745 -0.1976
12297W        W28191  11.091  15.275  15.132 -0.0535 -0.2015  0.1098
12298W        W28192   6.742  14.485  14.410 -0.0125  0.0624  0.2092
12299W        W28193  14.637  13.173  15.270  0.1965  0.2196 -0.1942
12300W        W28194   5.698   9.267  15.249 -0.0972 -0.1388  0.0342
12301W        W28195   0.277  13.077  11.087  0.1098  0.3286  0.2106
12302W        W28196   2.056   8.515   0.627  0.1384  0.0625 -0.1509
12303W        W28197   9.441   3.143   2.638  0.1190 -0.1549  0.1074
12304W        W28198   5.072   1.769   6.491  0.2522  0.0043 -0.3597
12305W        W28199   6.571   9.755   0.023 -0.1422 -0.2789  0.1757
12306W        W28200   5.295  15.968   4.341  0.0668  0.1142 -0.2511
12307W        W28201   0.304  13.605  11.684  0.1768 -0.0590 -0.1369
12308W        W28202   9.158   8.276   4.170  0.2206 -0.1997  0.0447
12309W        W28203  10.836  15.460   1.488  0.3277  0.0375 -0.0645
12310W        W28204   2.079  16.992   0.378  0.1656 -0.0716 -0.1550
12311W        W28205  16.867   3.624  14.975 -0.0906  0.0049  0.1015
12312W        W28206   4.929   5.470  14.117  0.0785  0.1540 -0.0767
12313W        W28207  12.998   3.966  12.847 -0.0340 -0.0385  0.1595
12314W        W28208  10.184  13.864  14.609  0.0537  0.2584  0.5001
12315W        W28209   7.813   8.548  11.881 -0.0124  0.3305 -0.1585
12316W        W28210   3.429   4.836   5.247 -0.1779  0.0857  0.1871
12317W        W28211  14.936   1.981  13.489 -0.1462  0.0510 -0.0795
12318W        W28212  17.042   0.853  15.828 -0.2811  0.1953  0.2458
12319W        W28213   5.767  10.259  12.968 -0.2293  0.2424  0.1463
12320W        W28214   1.373  15.782  16.445 -0.0726  0.1335  0.0614
12321W        W28215  14.730   4.680   2.315  0.1901 -0.2491 -0.0260
12322W        W28216   5.398  15.821   0.828 -0.1467  0.0580 -0.1644
12323W        W28217   9.099   6.052   5.198  0.3453 -0.2763 -0.0774
12324W        W28218   2.503   4.484  11.290 -0.1864  0.0310  0.3562
12325W        W28219  11.269  13.874   4.617  0.1162  0.1010 -0.3722
12326W        W28220  14.231   6.331   4.806  0.1316  0.1294 -0.1213
12327W        W28221  10.073   6.992   4.640 -0.3457 -0.1984  0.0631
12328W        W28222   3.035  12.817   0.016  0.2195 -0.0315  0.3979
12329W        W28223   3.860   6.243  15.229  0.0350 -0.3307  0.1075
12330W        W28224  13.493   8.529  13.031 -0.2501 -0.0963 -0.0478
12331W        W28225   3.475   2.005   0.379  0.3030  0.1582  0.1582
12332W        W28226  15.666   1.529   1.380 -0.1590  0.1503 -0.2157
12333W        W28227   0.402   2.814  16.544  0.4435 -0.1248  0.0542
12334W        W28228  12.939   7.663  12.780 -0.2861 -0.2231  0.2146
12335W        W28229  11.564   5.215  13.398  0.4263 -0.1209 -0.0758
12336W        W28230   7.572  10.748   5.495  0.2797 -0.1551 -0.1725
12337W        W28231  14.444   1.980   0.937 -0.1403  0.0243  0.2251
12338W        W28232   3.447   9.195   1.825  0.0841 -0.1553 -0.0932
12339W        W28233  12.526   0.050   2.886  0.1796 -0.0455 -0.2037
12340W        W28234  15.938   0.566   4.415  0.1337 -0.3308 -0.3483
12341W        W28235   1.116   8.172   4.750  0.0232 -0.0056  0.2013
12342W        W28236   6.157   1.663   0.751  0.0557 -0.3534 -0.2316
12343W        W28237  14.463   1.528   3.034  0.1265 -0.0560 -0.0359
12344W        W28238  14.181  16.163   3.256 -0.0374  0.2874  0.2082
12345W        W28239   6.576  16.394   2.551  0.0667 -0.1974 -0.2901
12346W        W28240   3.542   9.695   0.324  0.0265 -0.1617  0.1180
12347W        W28241   2.334   3.959   1.654  0.1194  0.2770 -0.1704
12348W        W28242   2.826  13.645   4.173 -0.0440  0.2814 -0.1505
12349W        W28243   6.547   3.860  11.941  0.0209 -0.1273  0.2057
12350W        W28244  16.788   5.754   3.625 -0.0928  0.0224  0.0026
12351W        W28245   6.593   6.069  16.223 -0.1351  0.0179  0.2769
12352W        W28246   4.782   5.501   3.437  0.0902 -0.0128  0.3597
12353W        W28247   2.409  12.975   0.705  0.1949 -0.1024  0.1421
12354W        W28248  14.916   9.865  14.782  0.0201  0.3166  0.0371
12355W        W28249   0.261   9.482   5.644  0.0271 -0.1120  0.2557
12356W        W28250  17.333  15.213  15.888  0.1187 -0.3609 -0.1323
12357W        W28251   0.569  11.944  12.771 -0.2564 -0.1448 -0.1095
12358W        W28252  14.868  17.632  12.537 -0.4841 -0.1394  0.1733
12359W        W28253  17.053   7.738  17.254 -0.1994  0.2360  0.2980
12360W        W28254   6.225   0.790   4.547  0.3374  0.0753  0.0804
12361W        W28255   3.831   2.321  15.401 -0.0511  0.1063 -0.5062
12362W        W28256  14.744   1.242  14.943 -0.1284 -0.1563 -0.0136
12363W        W28257  15.986  15.038   5.681  0.2294  0.0350 -0.2155
12364W        W28258   7.838  14.810   0.492 -0.0602  0.1100  0.0549
12365W        W28259  14.899   8.452  11.832 -0.0346 -0.1016  0.0598
12366W        W28260   3.512  13.504  16.757 -0.0400  0.1066  0.1912
12367W        W28261  13.809   0.969  15.780 -0.1459  0.1334  0.0055
12368W        W28262  13.384   8.183  11.704  0.1853  0.0320 -0.0087
12369W        W28263   2.734   1.560   3.425  0.1871  0.0246  0.2122
12370W        W28264   3.769   7.051   1.804 -0.0099 -0.1662  0.2840
12371W        W28265  11.634   4.008  11.190 -0.3499 -0.1032  0.1810
12372W        W28266   3.205   6.154   4.930  0.3324 -0.0997 -0.1053
12373W        W28267  13.889   1.333   2.800 -0.3394  0.0055 -0.0603
12374W        W28268   2.926  13.499  14.575  0.3058  0.0342 -0.0044
12375W        W28269   4.822  13.857  16.848 -0.0189  0.0716 -0.0314
12376W        W28270   3.247  12.563  16.527  0.3033  0.0726  0.0310
12377W        W28271   6.363   9.227   3.365  0.3513 -0.0369  0.0734
12378W        W28272   7.917   8.162  11.580  0.1891 -0.0491  0.1067
12379W        W28273   4.612  16.512   4.327 -0.1579 -0.1405 -0.0202
12380W        W28274  16.332  12.990  16.100  0.0267 -0.3035 -0.2820
12381W        W28275  16.303   2.028  16.431  0.1729  0.3837  0.1100
12382W        W28276  10.863  10.603  15.478 -0.2682 -0.1924 -0.0340
12383W        W28277  14.566   3.552  12.634 -0.0699  0.0873 -0.2828
12384W        W28278   0.041   7.255  13.949  0.2349  0.2052 -0.1063
12385W        W28279  14.437   6.876   2.552 -0.0240 -0.1979 -0.0989
12386W        W28280   0.732   7.678   5.597  0.2835  0.0414  0.1276
12387W        W28281  10.450  12.941   3.915 -0.0677 -0.1655  0.5854
12388W        W28282   5.364  11.351   2.408 -0.1463  0.1894  0.0720
12389W        W28283  16.148  10.025   2.547  0.1076 -0.0097 -0.3916
12390W        W28284  11.099   8.329   4.990  0.1656  0.1937 -0.0628
12391W        W28285  16.468  11.677  13.038  0.2553  0.1237  0.0217
12392W        W28286   7.116  14.807  12.489 -0.2589 -0.0075  0.1800
12393W        W28287   1.671   1.330   2.599 -0.3747  0.1192 -0.1157
12394W        W28288  17.345   8.847   2.187  0.2905 -0.2360  0.0929
12395W        W28289   7.961   5.895   4.077  0.0763 -0.2749  0.1599
12396W        W28290  13.961  15.745   2.790  0.2619  0.0730  0.1538
12397W        W28291  12.558   5.307  12.834  0.2081  0.2243  0.2408
12398W        W28292  16.220  15.726  14.533 -0.0267  0.0966  0.1633
12399W        W28293  14.463   7.912  16.995  0.1053 -0.0068 -0.1387
12400W        W28294   7.687  13.427  14.525 -0.1425 -0.0720  0.0131
12401W        W28295   3.092  12.381   6.728 -0.2328 -0.0503  0.0260
12402W        W28296  12.459   4.467   3.507  0.2978 -0.2451  0.0955
12403W        W28297  12.864  16.805  13.047  0.2720  0.0548 -0.2450
12404W        W28298  13.509   0.369  13.556 -0.1448 -0.3523  0.1668
12405W        W28299   0.510   0.175  16.779  0.0923  0.1704 -0.0819
12406W        W28300  13.253  16.776   5.977 -0.0197  0.0597  0.2539
12407W        W28301  16.320   9.776   1.491  0.0656  0.0277 -0.3304
12408W        W28302  14.539   4.329   2.051 -0.0720 -0.0501  0.0402
12409W        W28303   0.040  13.029   0.971  0.2201 -0.2637  0.1009
12410W        W28304  17.267   0.456   2.904 -0.0054 -0.4925 -0.0610
12411W        W28305  16.044  13.926  15.756  0.0072 -0.2881 -0.4470
12412W        W28306   3.534  16.078   2.418  0.0854  0.0661 -0.1900
12413W        W28307  11.177  15.521  14.027 -0.0737  0.1738  0.1034
12414W        W28308   5.210   1.640  12.750  0.2353  0.1290  0.1363
12415W        W28309   5.866   1.560   3.057 -0.0817  0.2502 -0.0435
12416W        W28310   7.803  12.277  15.841 -0.1915  0.0955  0.2304
12417W        W28311  11.983   3.735  16.640 -0.1589 -0.2098  0.1103
12418W        W28312   0.828   9.187   3.999 -0.0294 -0.3627 -0.1619
12419W        W28313  12.613  14.613   4.286 -0.1716 -0.1395  0.1446
12420W        W28314  15.390  11.749   4.112  0.0708  0.0821  0.1607
12421W        W28315  10.523  14.731  16.934  0.1289 -0.1501 -0.0356
12422W        W28316  13.496  10.016  13.070 -0.1108  0.3179  0.0545
12423W        W28317  17.024  12.045  15.026 -0.0508  0.0871 -0.0207
12424W        W28318  12.811  10.247   5.518 -0.0839  0.0224 -0.0054
12425W        W28319   9.803  13.202  13.075 -0.3216 -0.3203  0.0413
12426W        W28320   0.734  13.763   0.225 -0.0881  0.0929  0.1480
12427W        W28321   5.821   1.921  15.489  0.1437 -0.1417  0.0856
12428W        W28322   6.215   7.955   3.827 -0.2283 -0.0694 -0.0708
12429W        W28323   3.467  16.538   5.118 -0.0745 -0.1880  0.1930
12430W        W28324  17.375  11.312  13.900 -0.1848  0.1189 -0.0263
12431W        W28325   5.271   6.165   3.461 -0.1785  0.1625 -0.4210
12432W        W28326  11.630   2.711   6.321 -0.0093  0.2676 -0.0886
12433W        W28327   2.316   1.300   5.827 -0.1326  0.2622  0.0628
12434W        W28328  12.879  11.837   1.420 -0.0636 -0.0294 -0.0310
12435W        W28329   4.860   1.190  12.542 -0.2547  0.3289 -0.2166
12436W        W28330   6.992   1.676   3.785  0.1732  0.0012 -0.0199
12437W        W28331  15.834   6.329  17.076  0.2597  0.0537 -0.2543
12438W        W28332   2.981  10.997  15.113  0.0242  0.2778  0.1034
12439W        W28333  16.556   2.749  15.121  0.1530 -0.2175 -0.2078
12440W        W28334  16.458   7.715  14.855 -0.3091  0.4121  0.2895
12441W        W28335  10.675  12.013  15.630 -0.0578  0.3762  0.2934
12442W        W28336  16.038   8.249   4.331 -0.3429 -0.1823  0.0701
12443W        W28337   7.043   9.477   2.712  0.3630 -0.0642 -0.3242
12444W        W28338   3.473  13.009   1.299 -0.0691  0.4662  0.2441
12445W        W28339   6.163  15.337   1.807 -0.2047 -0.1347  0.2339
12446W        W28340   4.168   2.901   2.272  0.1497  0.0808 -0.1055
12447W        W28341  16.104  10.546   6.844  0.2492  0.0429  0.2247
12448W        W28342  11.613   7.292   2.803 -0.3549 -0.1683  0.2507
12449W        W28343   0.782   2.979  13.780 -0.2082  0.1347  0.1293
12450W        W28344  11.262   4.278   4.767  0.3812 -0.2255 -0.0077
12451W        W28345  10.662  10.122  15.577  0.0217  0.1664 -0.1009
12452W        W28346  12.039   8.541  16.548  0.0278 -0.1137 -0.0893
12453W        W28347   2.864   9.597   1.821  0.1431  0.1825 -0.0040
12454W        W28348   3.232   9.601   2.141  0.0807  0.0735 -0.1824
12455W        W28349  13.687   4.215   5.535 -0.0912 -0.0701 -0.0972
12456W        W28350   2.053   9.621  14.023  0.0103  0.0127  0.3245
12457W        W28351  14.850   1.647   2.663 -0.3731 -0.1065 -0.0943
12458W        W28352  12.290  13.991  10.622  0.2822 -0.0266  0.0367
12459W        W28353  12.454  14.448  13.538  0.0018 -0.2295  0.0011
12460W        W28354   5.756   3.651  14.933 -0.1465  0.3805 -0.0186
12461W        W28355  11.890  12.791  12.350  0.0863  0.0139  0.3975
12462W        W28356   8.318   2.778  15.282  0.0162 -0.1104  0.1377
12463W        W28357   0.780  11.134  13.447  0.0239 -0.1266  0.0120
12464W        W28358   6.765   3.370   3.109 -0.3785 -0.0709  0.3904
12465W        W28359  13.183  12.788   3.440 -0.0957 -0.2773  0.0876
12466W        W28360   0.156  11.861   5.205 -0.0842 -0.0357 -0.3057
12467W        W28361  17.136   7.969  14.305  0.0367 -0.0419  0.1121
12468W        W28362  11.479   1.047   6.081 -0.3605  0.3006 -0.1591
12469W        W28363   1.768  16.678  11.337 -0.0229 -0.3866  0.0357
12470W        W28364   9.291   1.759   6.299 -0.0144  0.3159  0.3092
12471W        W28365   9.940   7.293   2.993  0.1021 -0.0083 -0.1053
12472W        W28366   7.644   7.110   1.705 -0.3002  0.1171 -0.0775
12473W        W28367   0.383  12.316  14.071  0.1888 -0.1282  0.1652
12474W        W28368  14.287   5.486  11.885  0.1214  0.0073  0.0256
12475W        W28369   4.607   1.599  15.366 -0.1150 -0.0118 -0.0441
12476W        W28370   9.905  15.578  16.176  0.0870  0.0478 -0.0140
12477W        W28371   9.714  16.353   3.079  0.0724 -0.0853  0.1700
12478W        W28372  15.679   0.314   2.044 -0.2176 -0.0276 -0.1623
12479W        W28373  12.084   9.242   2.621 -0.4018 -0.2156 -0.0958
12480W        W28374   6.427  16.658   4.601 -0.0997  0.0266  0.0152
12481W        W28375  13.902   9.966   2.853 -0.0921  0.2723 -0.0567
12482W        W28376   6.718   6.503  14.688  0.1259 -0.1301  0.2129
12483W        W28377  11.977   3.271  14.452  0.0445 -0.0076 -0.0055
12484W        W28378   0.530  14.228  12.316  0.0113  0.0752  0.1023
12485W        W28379   9.304  13.684  16.341 -0.0369 -0.1446  0.1570
12486W        W28380  11.039   6.525   2.663  0.1266 -0.2394 -0.0973
12487W        W28381   3.864  12.037   0.224 -0.1258  0.0286  0.1034
12488W        W28382  12.310   3.254  12.778 -0.1338  0.0484  0.3336
12489W        W28383  13.230   2.085   1.552  0.2778 -0.0817  0.2349
12490W        W28384   1.505  15.715  15.943  0.1637  0.1705 -0.1856
12491W        W28385  17.066   3.156   0.321  0.1083  0.0860 -0.0588
12492W        W28386  14.039   5.809  13.603 -0.0533 -0.0686  0.3202
12493W        W28387   0.973   3.944   1.213 -0.3166 -0.0156 -0.3579
12494W        W28388   1.895  12.835   1.411 -0.0538  0.1264 -0.0908
12495W        W28389  11.075   0.504  14.444  0.1095 -0.0376  0.1806
12496W        W28390   7.393  11.321   2.076 -0.3051 -0.0219  0.1685
12497W        W28391  10.214   9.076  14.037 -0.0103  0.1029  0.2107
12498W        W28392  14.439   5.613  15.660 -0.1366  0.1163  0.3062
12499W        W28393   3.654  14.222  12.927  0.4072  0.0663 -0.0174
12500W        W28394   6.509   6.287  16.674  0.1348 -0.1217  0.2953
12501W        W28395  15.116  16.506  16.175  0.0332 -0.1229 -0.3121
12502W        W28396   8.703   4.447  16.263  0.6344 -0.0415 -0.1331
12503W        W28397   5.713   1.141  16.011  0.1825  0.1389 -0.0452
12504W        W28398   3.890  12.338   3.721  0.0232  0.1999 -0.0478
12505W        W28399  11.380   5.608  15.915 -0.1751  0.3284  0.0264
12506W        W28400   9.266   0.219  14.271 -0.1424  0.0853  0.0985
12507W        W28401  12.373   1.249   3.449 -0.0032  0.2819  0.3439
12508W        W28402   9.168  13.144  15.136 -0.2291 -0.1065 -0.0663
12509W        W28403   1.852  10.522   3.465  0.2999 -0.0650  0.0040
12510W        W28404   5.902   4.925  12.612 -0.0118  0.0871 -0.2388
12511W        W28405   9.213  12.422  16.535  0.4096 -0.0283 -0.2473
12512W        W28406   4.095  12.765   3.905  0.0534 -0.1688 -0.0328
12513W        W28407   8.002   7.566   6.290  0.3503 -0.2193  0.1196
12514W        W28408   7.503  13.170   3.444 -0.2133 -0.1162  0.2115
12515W        W28409  16.189  14.328  13.971 -0.1151 -0.1554 -0.3203
12516W        W28410   5.721   7.419  15.312  0.2580  0.1323  0.1964
12517W        W28411   9.577   3.819  12.393  0.1293 -0.0162 -0.0033
12518W        W28412  11.086   1.742   0.172  0.2418 -0.1784  0.0086
12519W        W28413   5.998  12.078   0.369  0.3023 -0.3091 -0.0740
12520W        W28414   5.719  12.753   1.292 -0.0535 -0.1775  0.1291
12521W        W28415   5.763   0.469  12.952 -0.1052  0.0770 -0.1380
12522W        W28416   0.943  13.646  16.317  0.2196  0.0145 -0.1621
12523W        W28417   6.569  12.617  12.980 -0.0457 -0.1815 -0.1433
12524W        W28418  11.500   5.367   1.573  0.2871 -0.1881  0.1612
12525W        W28419   7.652  15.929  12.562  0.1047  0.2750 -0.3221
12526W        W28420  11.777  11.290  11.644 -0.0737 -0.1024 -0.1288
12527W        W28421  15.351  11.397  16.184 -0.1377  0.1448  0.1738
12528W        W28422  12.558  15.579  17.270 -0.0866  0.1002  0.2729
12529W        W28423   0.668  12.400   6.837 -0.1080 -0.0183 -0.1120
12530W        W28424   8.223   8.042   3.833  0.1444  0.0376 -0.0582
12531W        W28425  15.583   2.976  16.375 -0.0280 -0.2232 -0.2552
12532W        W28426   0.411   9.760  17.047 -0.0433  0.0820 -0.1897
12533W        W28427  15.529  10.126  16.919 -0.2772 -0.1416  0.0883
12534W        W28428   7.737  11.396  13.112 -0.0184  0.0072 -0.1700
12535W        W28429  16.759   7.314   1.308 -0.1922 -0.2224 -0.1540
12536W        W28430   8.523   9.542  15.057 -0.0463  0.0675  0.3617
12537W        W28431   1.400  10.425  14.491 -0.4257 -0.0555 -0.0369
12538W        W28432  12.089  10.858  15.219 -0.1354  0.1745  0.1703
12539W        W28433  12.976  17.203   0.375  0.1024 -0.2238  0.0847
12540W        W28434   5.475   2.234   5.152  0.1575  0.3652 -0.1720
12541W        W28435   4.124   6.238   5.105 -0.0272  0.2460  0.2117
12542W        W28436   5.771  15.700   4.429  0.0107 -0.0604  0.2683
12543W        W28437   5.186  10.100  17.108 -0.1398  0.1728  0.2697
12544W        W28438   8.810  11.836  16.491 -0.1790  0.1821  0.0546
12545W        W28439   2.310   9.651  16.223  0.1213  0.0883  0.0530
12546W        W28440   1.815  15.677  12.665 -0.0865  0.0145  0.2523
12547W        W28441   7.074   2.202   5.848 -0.3655 -0.1872 -0.0374
12548W        W28442  12.625  12.212  15.091  0.0800  0.3089 -0.1222
12549W        W28443  12.515  15.308   6.353  0.4776 -0.1712 -0.1412
12550W        W28444   2.868   2.764  11.921 -0.0666 -0.3031  0.0754
12551W        W28445   7.736  12.062   3.344  0.0271  0.1757  0.1926
12552W        W28446   1.560   3.720   1.536  0.1453 -0.0788  0.0853
12553W        W28447   7.093   0.983  17.193 -0.0277 -0.1952  0.2702
12554W        W28448   0.888  12.475  12.034 -0.0142  0.0278  0.3445
12555W        W28449  16.081  14.380   4.149  0.0305 -0.1163 -0.1402
12556W        W28450   0.488  10.462   0.622 -0.3602 -0.0223 -0.1011
12557W        W28451   6.024  11.630  12.043  0.0852  0.2167  0.0450
12558W        W28452  15.897  16.816   1.349  0.0070  0.0924 -0.3222
12559W        W28453   0.468  12.216   5.015  0.0058 -0.1585  0.1597
12560W        W28454   4.648  16.758   0.182  0.0212 -0.1906  0.1152
12561W        W28455   0.105   7.586   1.528 -0.3144  0.1086  0.0773
12562W        W28456  15.489  13.275   1.429  0.0130  0.0390 -0.1170
12563W        W28457   8.549   4.706  13.936 -0.0533  0.0310 -0.1556
12564W        W28458  16.455   3.457  16.839 -0.1532 -0.1650 -0.2797
12565W        W28459  15.987   5.990  12.086  0.0769 -0.1194 -0.0703
12566W        W28460   9.621   8.557  13.098 -0.0899 -0.0874  0.0776
12567W        W28461   6.164  17.256   0.058  0.2301 -0.0881  0.0966
12568W        W28462  14.895  14.474  16.954  0.0819 -0.0654  0.0583
12569W        W28463  15.586  11.986  12.248  0.2221 -0.1016 -0.0388
12570W        W28464   6.366   6.998  14.846 -0.1100  0.0658  0.0946
12571W        W28465   5.585   8.670  14.972 -0.0815  0.0029 -0.1057
12572W        W28466   8.124   5.495  13.264  0.1515  0.1446 -0.2006
12573W        W28467  15.953  14.597  12.371 -0.0353 -0.1114  0.2673
12574W        W28468   0.988   7.970   0.296  0.1549  0.1161  0.0632
12575W        W28469  13.971   8.868  15.039 -0.0300  0.0515  0.1192
12576W        W28470   8.442   3.062   6.357  0.1206 -0.2740  0.1944
12577W        W28471  16.028  10.782  11.622  0.0233  0.0539 -0.0889
12578W        W28472  11.185   2.415  14.354 -0.0901 -0.0240  0.2771
12579W        W28473  13.398  16.742  15.557 -0.0256 -0.0978  0.1851
12580W        W28474   7.406  14.274   4.691  0.2785 -0.1544 -0.2407
12581W        W28475   5.858   8.987   0.464  0.1666  0.1159  0.3439
12582W        W28476   7.887  12.676  13.463  0.1151 -0.1785 -0.1020
12583W        W28477  16.893   6.960   4.620 -0.0298 -0.0677  0.0990
12584W        W28478   4.927   3.699  12.117 -0.1820 -0.0397 -0.1857
12585W        W28479  11.475  11.631  11.887 -0.3257 -0.2114  0.1962
12586W        W28480   9.624  11.486  16.912 -0.1415 -0.2680 -0.1827
12587W        W28481   4.532   7.812  13.508 -0.1546  0.0937 -0.3845
12588W        W28482  11.337   9.766  15.340 -0.1995  0.1063 -0.0338
12589W        W28483  10.667   4.725  12.235 -0.0216 -0.1080  0.1102
12590W        W28484   3.203   0.741  16.407  0.4236 -0.0362 -0.0858
12591W        W28485  11.593   4.804  14.366  0.0373  0.0521 -0.0434
12592W        W28486   9.743   7.953   0.070 -0.1735  0.1698 -0.0013
12593W        W28487   7.771   6.890  13.359 -0.2782 -0.0026  0.2002
12594W        W28488   5.635   4.012   4.236 -0.0387 -0.1769 -0.1971
12595W        W28489  11.456   4.749   4.855 -0.1102 -0.1917 -0.0120
12596W        W28490   4.726   2.661  16.786 -0.1116  0.0753  0.2270
12597W        W28491   8.287   8.526   5.575  0.5010 -0.1214 -0.1392
12598W        W28492   6.820  12.314   1.895  0.1253 -0.0513  0.0251
12599W        W28493   8.144  10.637   1.927  0.0960  0.0305  0.0715
12600W        W28494  16.092  12.051   5.844 -0.1541  0.3343  0.2397
12601W        W28495   5.295   7.281  13.607 -0.1129  0.1600 -0.0830
12602W        W28496   1.825  10.070  13.368 -0.0368 -0.0552  0.1753
12603W        W28497   9.307  11.241  15.973  0.1752 -0.0558  0.1820
12604W        W28498  13.919  10.305   3.539  0.1492 -0.1953 -0.0260
12605W        W28499   8.991   7.414  14.952 -0.2161 -0.1334  0.2722
12606W        W28500  15.616   5.833   4.840  0.2462 -0.1633 -0.1347
12607W        W28501   2.322  11.272  14.587  0.1812 -0.0960 -0.0235
12608W        W28502  10.540   3.108   1.809  0.0854  0.2587 -0.4600
12609W        W28503  15.142   0.626  13.210 -0.0722 -0.2130  0.1868
12610W        W28504  15.435  16.703   4.372 -0.1492  0.0483  0.1038
12611W        W28505   8.240   5.558   4.295  0.1509  0.3199 -0.2445
12612W        W28506  13.027  15.357   5.589 -0.2158 -0.2551  0.2415
12613W        W28507   1.768   6.677  14.669 -0.2770  0.0652  0.2190
12614W        W28508   0.948  16.255   2.891  0.0940 -0.0803 -0.0098
12615W        W28509  13.066   2.549   3.506 -0.1212  0.0826  0.0663
12616W        W28510  14.334  13.876   2.525  0.1768 -0.0557 -0.1258
12617W        W28511   9.593  10.284   3.429  0.3750  0.0512 -0.1542
12618W        W28512  13.103  13.630   3.667  0.1533  0.0808  0.0180
12619W        W28513   7.555  14.276  17.162 -0.4338 -0.1204 -0.2008
12620W        W28514   4.165   7.298   0.557 -0.0767 -0.2944  0.0796
12621W        W28515   1.692   3.081  15.532 -0.1527 -0.0492 -0.0773
12622W        W28516   6.286   8.855  16.753  0.1005  0.0710 -0.2169
12623W        W28517  14.142   9.421   2.973  0.0300 -0.0979  0.1749
12624W        W28518   4.602   3.408   2.584  0.1028 -0.0573  0.1373
12625W        W28519  15.566   4.592   6.548  0.0851 -0.1285 -0.0185
12626W        W28520   9.414  14.829  13.658 -0.0262 -0.0911 -0.2294
12627W        W28521   9.461   0.269  14.764  0.0776 -0.2490  0.3822
12628W        W28522  12.229   7.123   0.761 -0.0375 -0.0857  0.0101
12629W        W28523  15.206   2.141  15.258 -0.1162  0.0157 -0.5280
12630W        W28524  12.180   4.063   4.510 -0.0615  0.1711  0.1659
12631W        W28525  16.222  11.503   2.220  0.0308 -0.0397 -0.1868
12632W        W28526   5.573   2.881   4.466 -0.0440  0.2752 -0.0819
12633W        W28527   8.700  10.729   5.098 -0.3035  0.0923 -0.0602
12634W        W28528   6.291  11.993  11.751  0.2757  0.1521 -0.0997
12635W        W28529   2.388  14.674  13.286  0.2323  0.0661  0.0517
12636W        W28530  14.400   7.014   5.962 -0.0431 -0.0701 -0.0300
12637W        W28531   1.832  16.489   6.293  0.0027 -0.0593  0.1153
12638W        W28532  14.223  12.464  17.133 -0.1654 -0.1363 -0.0118
12639W        W28533   7.982  11.157   3.037  0.3653 -0.0523 -0.0610
12640W        W28534  12.359   5.949   5.454  0.0440 -0.0979  0.0973
12641W        W28535  17.518  16.355   0.712 -0.1303  0.0717  0.2256
12642W        W28536  17.403   9.346  12.921 -0.0382 -0.2531  0.2027
12643W        W28537   1.555   3.391   4.790  0.0153  0.3178 -0.2123
12644W        W28538  13.216   3.454  15.020 -0.2845 -0.0173 -0.1034
12645W        W28539  13.694   3.323  16.331  0.2346 -0.0415  0.0661
12646W        W28540  13.571   1.516   4.262 -0.1838  0.2092 -0.2230
12647W        W28541  16.086   6.484  15.700 -0.0257  0.3534  0.0547
12648W        W28542  10.620   5.805  14.718 -0.0471 -0.0143  0.2393
12649W        W28543   0.741  16.448  16.622 -0.0308  0.0170  0.1141
12650W        W28544  13.524   4.538   4.269 -0.0301 -0.1835  0.2126
12651W        W28545   7.081   1.772  14.667 -0.1990  0.0700 -0.0352
12652W        W28546   1.557   4.129  15.045  0.1953  0.2435 -0.4043
12653W        W28547   2.016   0.377  13.969 -0.1921  0.0874 -0.1920
12654W        W28548  12.942   6.473  11.295 -0.0891  0.0607 -0.1567
12655W        W28549   2.165  10.444   5.759  0.1799 -0.0063 -0.1303
12656W        W28550   9.482   7.155  15.914 -0.1736 -0.3563  0.0177
12657W        W28551  11.847   4.593  16.148  0.0487  0.3140 -0.1525
12658W        W28552  10.566  12.036  12.883 -0.2281  0.1559  0.1444
12659W        W28553   1.040  14.959   2.944  0.2060  0.0799  0.3131
12660W        W28554   6.712   3.903  16.447  0.2585  0.2835  0.2010
12661W        W28555  11.225  11.505  13.697  0.0254 -0.2620 -0.0087
12662W        W28556   6.837  14.981  16.715 -0.0697  0.1823  0.1195
12663W        W28557  12.513  11.230  14.252 -0.0170 -0.0462 -0.3717
12664W        W28558   4.610  14.237   4.422  0.3403  0.2220 -0.1029
12665W        W28559   1.716  16.682   5.418 -0.0429  0.0015 -0.1767
12666W        W28560   6.369  17.178   1.413 -0.2792 -0.2388 -0.0828
12667W        W28561   2.476   2.788  14.373 -0.1148  0.0740  0.1343
12668W        W28562   0.323   0.710   3.452 -0.0700 -0.2502  0.0967
12669W        W28563  13.221   0.669  13.973 -0.0298 -0.0920  0.1599
12670W        W28564  16.985  16.371  11.844  0.0931 -0.3442 -0.1855
12671W        W28565   9.743  17.485  16.173 -0.0843 -0.2240 -0.0752
12672W        W28566   0.379   4.079   2.605  0.0132  0.1203  0.2243
12673W        W28567   0.438  17.526  12.971 -0.1875 -0.0039 -0.2386
12674W        W28568   1.321  11.054   5.017  0.0155 -0.0522 -0.1818
12675W        W28569  11.348   3.203  13.717  0.1127  0.2592  0.1410
12676W        W28570   1.833  16.672   0.032 -0.3979 -0.0305 -0.0215
12677W        W28571   7.145   5.475   5.237 -0.0173 -0.1407 -0.0562
12678W        W28572  16.129   9.147  16.180  0.1452  0.1900 -0.5467
12679W        W28573   8.840   6.443   3.804 -0.5312  0.2801  0.2194
12680W        W28574  10.749   5.422   4.130  0.2413 -0.0667  0.0173
12681W        W28575   5.195   0.178   1.259 -0.1218  0.0900 -0.2490
12682W        W28576   4.958  11.582   5.506 -0.3137 -0.0566  0.0455
12683W        W28577   9.898  10.434   4.993 -0.0782  0.1969  0.0835
12684W        W28578  15.027  12.805  12.552  0.2717  0.0719  0.2472
12685W        W28579   4.550   7.483   0.859  0.0450 -0.0851 -0.2170
12686W        W28580   7.003  10.502   2.491 -0.3249 -0.0343 -0.1285
12687W        W28581  12.713  15.889  12.188  0.1584  0.0949  0.0625
12688W        W28582   3.364  12.294   4.008 -0.3657  0.1970  0.3677
12689W        W28583   6.189  15.197   5.093 -0.1192 -0.0014  0.1002
12690W        W28584  17.146   4.863  15.326  0.0208 -0.0746  0.2336
12691W        W28585   0.607   6.255   2.289  0.0503 -0.0340  0.1609
12692W        W28586  15.981  11.233  14.500 -0.2514  0.1358 -0.3569
12693W        W28587  16.002   0.695   4.873  0.0925  0.1826 -0.1181
12694W        W28588   9.759   5.297  14.444  0.0671 -0.0050  0.1150
12695W        W28589   2.495   0.605   3.575  0.1297  0.0905 -0.0615
12696W        W28590  17.356  15.701  15.810  0.1666 -0.1891  0.1774
12697W        W28591   4.581  10.077   2.236  0.0324  0.0128  0.2868
12698W        W28592  15.457  16.682  16.653 -0.1574  0.2436  0.1727
12699W        W28593   2.933   0.049   6.232 -0.0369  0.0326  0.0324
12700W        W28594   4.813   2.921   3.574 -0.0558  0.1227 -0.2852
12701W        W28595  16.877   5.683  16.603 -0.0141 -0.1684 -0.0323
12702W        W28596   6.370   7.363  14.552 -0.1424  0.2295  0.0163
12703W        W28597  15.750   3.686  14.933  0.0035 -0.2537  0.0750
12704W        W28598   4.099  15.538   5.363  0.0953  0.1766 -0.1488
12705W        W28599   3.655   9.951   0.727 -0.1133  0.4139 -0.1389
12706W        W28600  10.833   1.038   4.791  0.0964  0.1801 -0.0322
12707W        W28601   1.465   5.139  13.377 -0.1079 -0.0128 -0.0757
12708W        W28602   0.069   7.471  15.936 -0.0579  0.1741  0.2903
12709W        W28603   3.476  14.686  12.160 -0.1054 -0.0465  0.4615
12710W        W28604  14.185   9.600   1.003 -0.0591 -0.1499 -0.2892
12711W        W28605   1.955   8.021  12.524  0.3330  0.1159 -0.1086
12712W        W28606  11.100   4.119  17.146  0.1431 -0.0508  0.2068
12713W        W28607   3.882  10.980  12.850  0.0151 -0.0074  0.0569
12714W        W28608  14.940  10.734   4.541  0.2409 -0.1467 -0.0956
12715W        W28609   0.247   1.901  16.879 -0.2031 -0.0416  0.2121
12716W        W28610   3.307   0.005  12.085  0.0273  0.0667  0.2891
12717W        W28611   3.956  10.892  13.783 -0.0251 -0.1625 -0.2883
12718W        W28612  12.395   2.487  11.511 -0.3760 -0.1171 -0.0781
12719W        W28613   6.198   3.114  13.663  0.0141 -0.1829 -0.1818
12720W        W28614   3.559   8.166   6.140  0.0748 -0.0453 -0.2564
12721W        W28615  17.460  14.446   1.714 -0.1247 -0.2771 -0.0320
12722W        W28616   8.467   7.080  16.706 -0.2003 -0.1965 -0.1093
12723W        W28617   2.849  14.722   4.129 -0.1280 -0.0210 -0.2427
12724W        W28618   1.116  12.959  14.199  0.3346  0.0419 -0.0026
12725W        W28619   7.124   0.187   0.969 -0.0545 -0.0742 -0.4719
12726W        W28620  15.564  12.584   4.636  0.0797 -0.1159  0.1212
12727W        W28621  16.240   8.317  12.495  0.1494 -0.0911 -0.0289
12728W        W28622  14.193   1.631  11.846 -0.3280 -0.1548  0.0069
12729W        W28623   6.940   1.383   6.042  0.0519 -0.0020  0.0154
12730W        W28624   4.060   7.791   0.159 -0.0337  0.0851  0.0822
12731W        W28625   7.925   1.684   5.849 -0.1185 -0.1482  0.1490
12732W        W28626  17.162   0.391   0.146  0.0094 -0.0830  0.1274
12733W        W28627   1.862   9.839   5.092 -0.2431 -0.3702 -0.0729
12734W        W28628   8.540   6.937  11.828  0.1894  0.1082 -0.0370
12735W        W28629   2.479   4.437   5.360  0.1410 -0.0600  0.1723
12736W        W28630   7.486   7.589  13.828 -0.2236 -0.0481 -0.1968
12737W        W28631   0.401   6.121  15.287 -0.3570 -0.0685 -0.0003
12738W        W28632  10.277  12.836   3.395 -0.1815 -0.1799 -0.4501
12739W        W28633   9.116   6.585  16.964  0.1715  0.2379 -0.3590
12740W        W28634   7.230  13.361   2.839  0.1145  0.0976 -0.1199
12741W        W28635  15.904   3.934   1.209  0.3175 -0.0006 -0.1344
12742W        W28636   6.695  13.045  13.892 -0.0479  0.0274  0.3362
12743W        W28637  16.753   0.390   5.583 -0.0222  0.1239 -0.0462
12744W        W28638  12.618   1.065   3.845  0.0353  0.0887  0.0057
12745W        W28639   9.452   6.638   1.607 -0.3017 -0.0781 -0.2471
12746W        W28640   1.630   9.152   0.693  0.4348  0.0540  0.1298
12747W        W28641   7.814  11.844   4.649 -0.1945 -0.2490  0.1964
12748W        W28642  10.089  12.056   2.720 -0.3062 -0.1789 -0.2368
12749W        W28643  11.343  12.900   3.268  0.1004  0.2666 -0.2817
12750W        W28644   7.311  16.396   0.825 -0.1657  0.1086  0.0968
12751W        W28645  12.343  12.986   3.436  0.0979  0.1991  0.2777
12752W        W28646  11.703   3.562   2.414 -0.2660  0.0982 -0.0254
12753W        W28647   5.531   8.714  15.923  0.0945 -0.0557 -0.2727
12754W        W28648  16.368   2.370  13.873 -0.0090 -0.1268  0.0593
12755W        W28649   9.435  11.333   4.710 -0.0355 -0.1070  0.0504
12756W        W28650   1.134   5.635  15.893  0.0923  0.1446  0.2489
12757W        W28651   1.323  10.493  13.636  0.0278 -0.0432  0.2683
12758W        W28652  11.171  11.154  15.381  0.0412 -0.0635  0.1089
12759W        W28653   8.856   9.349   2.137  0.3582  0.0887  0.0997
12760W        W28654   9.915  13.323   2.752 -0.1289 -0.4625 -0.0429
12761W        W28655   1.509  12.228   3.011 -0.1284  0.0411  0.0316
12762W        W28656  10.174   8.529  11.894 -0.2094  0.0699 -0.2227
12763W        W28657   8.586   3.078   4.657 -0.4309 -0.2988  0.0689
12764W        W28658   5.946   4.740   5.711  0.2291  0.0201 -0.2858
12765W        W28659   5.720   2.541  12.346  0.1829 -0.0595  0.0616
12766W        W28660   4.427   2.058  11.818  0.1128  0.3281  0.0636
12767W        W28661  11.970  17.201   0.384 -0.1051 -0.0883  0.1948
12768W        W28662   9.206   1.638  13.472 -0.0932  0.3126 -0.4117
12769W        W28663   1.531   8.176   4.422  0.0948 -0.0192 -0.4722
12770W        W28664  17.037   6.214  13.669 -0.0413 -0.1501 -0.0863
12771W        W28665   1.645   4.664  13.714  0.0850 -0.3281  0.1141
12772W        W28666   1.839  12.628   2.709  0.2670 -0.0240  0.2491
12773W        W28667   3.316   9.261  14.946 -0.1977 -0.0212  0.1390
12774W        W28668  10.553  12.097   4.586 -0.0274  0.0935  0.1456
12775W        W28669  11.445   5.468  11.437 -0.0400  0.1947  0.1265
12776W        W28670   2.583   8.617   4.298  0.0604  0.1776 -0.0878
12777W        W28671  13.850   4.996  17.092  0.0178 -0.0781  0.0211
12778W        W28672  10.467   8.766  15.942 -0.1300  0.2005 -0.0051
12779W        W28673   6.608  10.704   6.383 -0.0975  0.2207  0.0121
12780W        W28674   1.814  11.318  13.288 -0.3196 -0.0614  0.0790
12781W        W28675   1.102   4.638   2.027 -0.0296 -0.1875  0.1085
12782W        W28676  11.175  15.647   2.419  0.2385 -0.4582  0.4084
12783W        W28677   7.924   5.158   0.709 -0.0116  0.1022  0.2321
12784W        W28678  11.746  16.882   3.466 -0.0288 -0.1952 -0.2890
12785W        W28679  11.301   9.793  12.654  0.1660  0.1027  0.0706
12786W        W28680   7.469   3.492  16.124  0.3134  0.1168  0.1986
12787W        W28681   2.754  15.137  13.333  0.1652  0.0192 -0.1545
12788W        W28682  10.842  15.956   1.359 -0.0801  0.1403  0.2391
12789W        W28683   6.917   5.056   4.059 -0.0888 -0.0747 -0.3100
12790W        W28684   5.989   8.519   1.620 -0.0727  0.1010 -0.2170
12791W        W28685  17.148   0.298  15.812 -0.0541 -0.1359  0.0283
12792W        W28686  14.595   4.691  15.848  0.0575 -0.0315  0.1555
12793W        W28687  15.297  12.371  12.600  0.0640  0.0287 -0.0363
12794W        W28688   0.660   2.511   4.028  0.2108  0.0251 -0.2608
12795W        W28689   6.011   2.246   3.909 -0.1138  0.1274  0.0831
12796W        W28690   7.840   6.221  14.986 -0.1264  0.1148  0.1318
12797W        W28691   7.548   6.570  14.271 -0.0511 -0.0652  0.1800
12798W        W28692   5.487   2.842  16.112  0.0710  0.1333 -0.2658
12799W        W28693  14.030  16.142  14.890  0.2888 -0.1824  0.1227
12800W        W28694  14.634  17.523  16.993 -0.1221 -0.1022 -0.2559
12801W        W28695   8.279  14.414   6.477 -0.0288  0.0059 -0.0153
12802W        W28696  13.213  14.098   3.162  0.1546 -0.3021 -0.1255
12803W        W28697   7.840  13.846   2.336  0.0190 -0.1578  0.0011
12804W        W28698   0.592  10.904   1.888  0.1852 -0.1280  0.0435
12805W        W28699   4.547   4.875  13.428 -0.1040  0.1955 -0.0005
12806W        W28700  10.798   5.418   1.902 -0.0514  0.3492 -0.3215
12807W        W28701   2.886   1.730   4.651 -0.0729  0.0730  0.0453
12808W        W28702   1.648  17.286  15.142 -0.4781 -0.1136  0.3391
12809W        W28703   7.336   3.067   4.332  0.0085  0.0897 -0.3552
12810W        W28704  14.098   1.783   3.523 -0.0250 -0.2101 -0.1442
12811W        W28705  12.615  17.186   1.969 -0.0384 -0.0290 -0.1418
12812W        W28706  14.333   4.854   2.028  0.0663  0.0426 -0.2062
12813W        W28707   0.580   0.150   2.898  0.2495  0.1201 -0.2049
12814W        W28708   8.351  12.133  15.070  0.1811 -0.2161  0.2133
12815W        W28709  11.813   8.541  17.210 -0.2762 -0.0222 -0.0098
12816W        W28710   5.806  14.012   0.160  0.0100  0.3703 -0.1682
12817W        W28711  10.215  13.344   3.794 -0.1060 -0.1988 -0.4049
12818W        W28712  10.202   7.454   1.728 -0.0209 -0.0428  0.0101
12819W        W28713   7.256  15.480   1.828 -0.1084 -0.0456 -0.1467
12820W        W28714  11.405  16.642   0.012  0.0707  0.0457  0.0784
12821W        W28715  11.444   4.567  14.849 -0.1842 -0.4664  0.1790
12822W        W28716   4.389   1.019   1.829  0.0959 -0.0363  0.1710
12823W        W28717   9.984  10.955  14.386  0.4673  0.0754 -0.1520
12824W        W28718   2.941   6.938   3.757  0.1882  0.2679 -0.0057
12825W        W28719   0.042   7.606  14.825  0.1265 -0.0450  0.0158
12826W        W28720  12.395  11.727  13.850 -0.2924 -0.1686  0.0532
12827W        W28721   3.594   0.391  12.972 -0.1666  0.1587  0.2419
12828W        W28722  17.564   0.531  16.729 -0.3644 -0.2572 -0.0835
12829W        W28723  12.241   3.334   5.561 -0.0381  0.3606 -0.0355
12830W        W28724  12.095   6.472  13.351  0.2097 -0.0322  0.3267
12831W        W28725   7.180   2.302  15.434 -0.3247 -0.1928 -0.1212
12832W        W28726   4.705   5.437  14.995  0.2876  0.1242  0.1006
12833W        W28727   9.553   5.480   2.486 -0.2155  0.2080 -0.3376
12834W        W28728   0.852   0.004   3.547  0.2421  0.3397  0.1910
12835W        W28729   0.618  13.395   1.816  0.0564 -0.1013 -0.3406
12836W        W28730   7.531   9.861   2.433  0.0992  0.1266  0.1009
12837W        W28731   0.056   0.119   1.071 -0.1774 -0.5130 -0.0435
12838W        W28732   9.276   8.334   4.655  0.1235  0.0404  0.2349
12839W        W28733   3.221  12.108  12.160 -0.3542  0.1372 -0.1531
12840W        W28734   4.650  11.198   1.096 -0.3787 -0.0700 -0.0448
12841W        W28735   3.264  15.829  15.639 -0.2111  0.0218 -0.0350
12842W        W28736  16.637   0.159  12.442  0.0844  0.2494  0.0742
12843W        W28737  12.866  13.171   4.839 -0.0247  0.0855 -0.0073
12844W        W28738  17.530  10.533   5.068  0.2530 -0.0681 -0.1652
12845W        W28739   0.769  13.454   0.644  0.2369 -0.4981  0.1421
12846W        W28740  16.202  15.729  13.263  0.2962 -0.2686 -0.1016
12847W        W28741   2.223   8.810  17.084 -0.0820 -0.0865 -0.0253
12848W        W28742   5.541  10.772  16.916 -0.2069  0.2616  0.2797
12849W        W28743  12.071  11.539   1.302  0.1748  0.1418 -0.0900
12850W        W28744   6.298  13.516   4.024  0.1843 -0.0140  0.0703
12851W        W28745   9.910  15.159  11.191 -0.3014 -0.1982  0.1537
12852W        W28746   8.668   7.640   0.575 -0.2862  0.2317  0.1095
12853W        W28747  10.866  14.251  14.348  0.2212  0.0307 -0.3503
12854W        W28748  13.424  10.003   5.596  0.0080 -0.1876  0.1070
12855W        W28749  16.961  14.970  15.655 -0.1708  0.0914 -0.2449
12856W        W28750  13.365   6.723   3.197 -0.0183 -0.0237 -0.2510
12857W        W28751  11.832  12.691   2.406 -0.0771  0.1206  0.0176
12858W        W28752   5.059  12.912   3.962 -0.0120 -0.2808  0.0633
12859W        W28753   4.971   1.675   2.699  0.1922  0.1331 -0.1212
12860W        W28754   1.860  11.441   3.411  0.1212 -0.2274 -0.0214
12861W        W28755  13.941   7.969  16.962  0.1201  0.1456  0.1893
12862W        W28756   6.635   9.125  12.507  0.2223 -0.2004  0.3170
12863W        W28757  11.605   6.563   0.753 -0.0201 -0.0528  0.0775
12864W        W28758  13.817   9.343   0.770  0.5106 -0.0277  0.0920
12865W        W28759   0.408  11.117   1.443  0.0008 -0.2025  0.0685
12866W        W28760   4.021   8.980  16.524 -0.2173  0.1689 -0.0034
12867W        W28761  13.239   2.473   1.052  0.1450  0.2764  0.0701
12868W        W28762  11.113  16.464   5.222 -0.1690  0.1476  0.1227
12869W        W28763  14.884   2.264  16.483  0.1539 -0.2025  0.0339
12870W        W28764  10.349  11.894  16.107 -0.3678 -0.0251 -0.1505
12871W        W28765  10.171  11.088   1.050  0.0978  0.4495  0.3591
12872W        W28766   2.528  16.166   5.134 -0.2985 -0.0606  0.0313
12873W        W28767   5.461   1.644   2.755 -0.0938  0.1296 -0.0934
12874W        W28768  13.849   3.647   3.040 -0.2175  0.1421 -0.1055
12875W        W28769   0.205  10.044   1.654  0.0996 -0.0310  0.3187
12876W        W28770   1.806   6.198   2.757  0.0105 -0.0947 -0.0963
12877W        W28771  14.926  13.842  14.043  0.1152  0.1353 -0.0839
12878W        W28772   7.162   5.456  13.114 -0.1918  0.0175  0.2205
12879W        W28773   8.981  12.406   3.037  0.2266  0.0355  0.2073
12880W        W28774  13.098   5.493   3.977 -0.0323 -0.0868  0.1029
12881W        W28775  14.293  10.849  12.440 -0.2177 -0.0053 -0.2703
12882W        W28776  12.187   8.787  17.010  0.1806 -0.0783 -0.0997
12883W        W28777   1.887  16.752   5.874  0.0922 -0.1150  0.0144
12884W        W28778   7.784   8.454   5.442 -0.0676  0.0512  0.1070
12885W        W28779  11.019  14.993   4.621 -0.0457 -0.1377 -0.3209
12886W        W28780  10.480  14.811  16.414 -0.1066 -0.0510 -0.0041
12887W        W28781   2.614  13.928  13.805  0.0946  0.0657  0.0448
12888W        W28782  16.193   5.216   1.093  0.2205 -0.1662  0.0303
12889W        W28783  14.051   2.676   1.474 -0.1417 -0.0363  0.0033
12890W        W28784   2.727   1.718  16.415  0.2788  0.0515 -0.3780
12891W        W28785   8.723   2.022  14.686 -0.0703  0.1947 -0.0799
12892W        W28786   8.248  16.639   1.236  0.0722  0.2279 -0.0391
12893W        W28787   2.347  12.975  13.952 -0.0805 -0.1564 -0.2072
12894W        W28788  10.843   7.510   3.486 -0.0065 -0.1698 -0.0288
12895W        W28789   5.325   2.967  14.319 -0.3914  0.0065 -0.2583
12896W        W28790   9.609   2.706  12.979  0.2344 -0.0639  0.2806
12897W        W28791   7.692  12.932  17.079  0.0074 -0.0446  0.2182
12898W        W28792  16.583   1.245  14.921 -0.0111 -0.1408  0.0878
12899W        W28793  12.761   5.420   3.529  0.0654  0.1586 -0.2314
12900W        W28794   3.317  11.227  14.253  0.1126 -0.0841 -0.0622
12901W        W28795   2.262   9.468   0.951  0.2727 -0.1116 -0.0839
12902W        W28796  17.263   8.749   6.646  0.0842  0.2342  0.2953
12903W        W28797   7.068  14.189   1.255 -0.1764  0.0291 -0.1847
12904W        W28798   3.692  14.394  17.156  0.0021 -0.0790  0.0012
12905W        W28799  16.238  11.732  16.860  0.1022  0.4724 -0.1185
12906W        W28800   4.279  10.983  17.159 -0.3608  0.0791 -0.2220
12907W        W28801   6.843   5.741   2.621  0.0733 -0.0317 -0.1552
12908W        W28802   1.770  10.894  12.977 -0.1455 -0.1360  0.0183
12909W        W28803  10.748  12.434   6.185 -0.1695  0.0508 -0.3566
12910W        W28804  11.620  11.081  13.801 -0.1628 -0.0448  0.2285
12911W        W28805   2.012  12.337   2.277  0.0671  0.0933 -0.0978
12912W        W28806   8.129  11.464   6.603 -0.1678  0.0724  0.0783
12913W        W28807  15.545  16.115  15.330  0.0549 -0.1150  0.2883
12914W        W28808  13.546  16.028   4.271 -0.0403  0.3002 -0.3308
12915W        W28809  16.059   9.396  15.347 -0.1116 -0.2710 -0.0150
12916W        W28810   6.835  12.625   3.178 -0.1583 -0.1792  0.1717
12917W        W28811   6.179   1.521  13.602 -0.2663 -0.0358  0.1578
12918W        W28812  17.523   6.763  14.673  0.2730 -0.2974 -0.2628
12919W        W28813  11.376   6.342   5.085  0.0804  0.1912  0.2033
12920W        W28814  11.005   1.038   0.669  0.1249  0.1361 -0.1190
12921W        W28815  15.213   0.743   6.101 -0.0946  0.1437  0.3496
12922W        W28816   4.046   5.764  12.308 -0.1495 -0.1427 -0.1419
12923W        W28817  13.022   1.950  16.872  0.0616  0.0428 -0.2958
12924W        W28818  12.085  13.689   5.375 -0.0106  0.4193 -0.0024
12925W        W28819   9.922   6.451  16.620  0.0301 -0.2260  0.0637
12926W        W28820   2.917   9.349   3.786  0.1077  0.1352  0.0768
12927W        W28821   1.027  12.040   1.738 -0.0369  0.0548  0.2225
12928W        W28822   0.499   3.298   3.450 -0.1741 -0.0078  0.0204
12929W        W28823  15.774   9.998  13.300  0.1778 -0.0758 -0.1318
12930W        W28824   3.088   0.438   4.655 -0.4439 -0.0487  0.2030
12931W        W28825  13.360   6.840  16.126  0.2779  0.2421 -0.1122
12932W        W28826  13.994   2.056   5.674  0.1811 -0.1080  0.0949
12933W        W28827  15.823   4.450  13.751 -0.1456  0.2277  0.2447
12934W        W28828  15.347   8.968   3.830  0.0643 -0.0581  0.0581
12935W        W28829  16.427  14.114  16.678  0.0932 -0.0093 -0.2420
12936W        W28830   4.462  17.031  13.516  0.0880 -0.2256  0.2232
12937W        W28831   2.320  13.935   5.179 -0.0008  0.3281  0.0543
12938W        W28832   9.568   5.336   4.390  0.2330 -0.1321  0.3908
12939W        W28833   3.143   9.687  17.288 -0.2453 -0.2120 -0.1134
12940W        W28834   7.568  12.298   3.768 -0.2513  0.2435 -0.0760
12941W        W28835   8.207   2.191  12.888 -0.0095 -0.4014  0.1131
12942W        W28836   1.195  16.927   0.582 -0.2053 -0.2116  0.0980
12943W        W28837  17.397   2.567   5.212  0.1874  0.0199  0.1731
12944W        W28838   4.013   5.885   2.376 -0.1987 -0.2288  0.2061
12945W        W28839  10.173   5.870   6.102 -0.0717  0.0773  0.0437
12946W        W28840  11.362  17.222  14.702  0.2376  0.0073 -0.1979
12947W        W28841  10.991   9.589  14.398  0.1617 -0.2682 -0.0339
12948W        W28842   3.542  11.831  16.577 -0.0637  0.0918  0.2370
12949W        W28843  10.157  10.068  15.822 -0.1622 -0.2086 -0.0879
12950W        W28844   2.214   0.591  16.277 -0.3120 -0.0648 -0.1908
12951W        W28845  14.412   2.145  12.430 -0.3088 -0.2397 -0.1099
12952W        W28846   3.426  12.274   0.131 -0.1388  0.1471  0.1761
12953W        W28847  13.828   2.462   4.818 -0.0121  0.1260  0.0729
12954W        W28848   4.645   2.566  12.978 -0.1430 -0.0042  0.1116
12955W        W28849   8.124  12.807   0.060  0.1697  0.0887 -0.0041
12956W        W28850  17.458   5.769  15.635  0.1463 -0.3173  0.0667
12957W        W28851  14.129   4.411  11.931 -0.0130  0.0882  0.0797
12958W        W28852  15.385  12.476  15.191  0.0936 -0.0641 -0.1408
12959W        W28853  15.206  14.192  15.096 -0.0809  0.2033  0.2128
12960W        W28854  14.415   5.358  16.124  0.0049 -0.0161 -0.2376
12961W        W28855  16.262   4.487  16.121 -0.0136 -0.1524  0.0674
12962W        W28856   4.653  14.069   0.453  0.1755  0.0281 -0.0677
12963W        W28857   9.742  15.260  15.445 -0.1032 -0.0018  0.2285
12964W        W28858   9.614  12.888   2.438  0.1658  0.0437  0.2816
12965W        W28859  15.302   9.390  11.525 -0.3155  0.2436 -0.1172
12966W        W28860  15.842   4.452   4.469 -0.3013 -0.1659 -0.1797
12967W        W28861  17.016   2.996  15.092 -0.2701  0.1655  0.1563
12968W        W28862  13.531   0.028  16.024  0.0128 -0.3069 -0.0663
12969W        W28863  12.473  12.223   3.721 -0.2996  0.2318  0.1368
12970W        W28864   7.106   4.766   0.936 -0.3053  0.1673 -0.0451
12971W        W28865   6.638  12.829  15.831  0.0983  0.4694 -0.0314
12972W        W28866   6.401   1.495   0.356  0.1255  0.3729  0.0653
12973W        W28867  11.219  13.231  16.444 -0.0837  0.2648 -0.0733
12974W        W28868   2.573  11.350  16.396 -0.1777  0.0857 -0.2515
12975W        W28869  11.756   1.444   0.155  0.1471 -0.0518 -0.2184
12976W        W28870  17.489  14.978  14.433  0.2858 -0.3180  0.1305
12977W        W28871  16.291  12.842   0.387  0.0851  0.0517 -0.0255
12978W        W28872   4.628  11.824   3.553  0.0180 -0.3075 -0.0484
12979W        W28873   4.801   7.675  15.365  0.0819  0.0532  0.3195
12980W        W28874   9.272   0.929  11.904 -0.0503 -0.0194  0.1045
12981W        W28875   5.698   9.843  17.207  0.1681 -0.2820  0.0250
12982W        W28876   7.785   9.067  15.251 -0.0856 -0.0121 -0.1051
12983W        W28877  14.556  14.990   2.272 -0.2094 -0.2303 -0.1633
12984W        W28878   3.389  14.172   6.585  0.0898  0.2037  0.3461
12985W        W28879   9.162  10.758   0.253  0.2097 -0.0700  0.2425
12986W        W28880  11.809   7.183   0.460 -0.1072 -0.3178 -0.0647
12987W        W28881   0.164  13.450   3.415 -0.2131 -0.0715 -0.1740
12988W        W28882  16.178   1.476   3.075  0.0732 -0.0495 -0.1669
12989W        W28883   4.746   6.128   5.010 -0.4214  0.4019  0.1340
12990W        W28884  15.904  14.153   0.322  0.1595  0.0071 -0.3312
12991W        W28885  14.225   4.801  14.554 -0.0830  0.0273  0.1332
12992W        W28886  13.028   6.895  15.736 -0.2893 -0.2300 -0.1519
12993W        W28887  17.153  13.391   4.454 -0.0262  0.2182 -0.1118
12994W        W28888   1.636  10.563   2.558 -0.1924 -0.1555 -0.2915
12995W        W28889  15.491   0.206  16.581 -0.3874  0.3153  0.0471
12996W        W28890   7.849  14.313  14.090  0.3910 -0.0712 -0.1532
12997W        W28891   2.156   3.144   2.680  0.0073  0.0629 -0.0336
12998W        W28892  12.433   6.484  15.965 -0.1088 -0.2240  0.1264
12999W        W28893  11.039   6.238   3.463  0.1338  0.1241 -0.1744
13000W        W28894  16.796  16.694   1.827  0.0016  0.0561 -0.1787
13001W        W28895   9.613  14.847   1.174 -0.2444 -0.3059 -0.2685
13002W        W28896   3.621   6.787   4.537 -0.4179  0.1082 -0.0840
13003W        W28897   0.554  10.945  14.384 -0.1454 -0.1251  0.0944
13004W        W28898   9.376   3.569  16.963  0.1499 -0.1631  0.3250
13005W        W28899   6.483  11.308   2.714  0.0134 -0.2116 -0.0149
13006W        W28900   7.748   4.992   3.609 -0.1741 -0.2185  0.0637
13007W        W28901   6.699   2.853   3.772 -0.0855 -0.3220 -0.0264
13008W        W28902  10.373  15.602   3.092 -0.1476 -0.2284 -0.0653
13009W        W28903  14.193  15.208  15.867  0.1691 -0.0093  0.1113
13010W        W28904  14.545   2.936  17.059  0.3352  0.1315  0.0160
13011W        W28905  13.693   5.575   1.206  0.1406  0.1317  0.3066
13012W        W28906   9.825  16.761  13.311 -0.1012 -0.4503  0.0112
13013W        W28907  13.138   8.150   3.289  0.1293  0.1222  0.0819
13014W        W28908  15.250  15.420  16.844  0.0536  0.1225  0.2613
13015W        W28909  15.279  11.609   1.315  0.0825  0.0733 -0.0967
13016W        W28910  15.575  13.454  16.805  0.0055 -0.0622 -0.1104
13017W        W28911  15.685  12.087  15.328  0.1440  0.0018  0.1194
13018W        W28912   5.412  14.524   5.053  0.0041 -0.0399  0.1273
13019W        W28913   9.456   2.942   5.096 -0.3194 -0.0113  0.3330
13020W        W28914  12.475   4.014   6.216 -0.2214 -0.2422 -0.0034
13021W        W28915   8.124   0.013  11.876 -0.2476  0.0283  0.2084
13022W        W28916  10.953  13.959  16.444 -0.2254  0.1979  0.1823
13023W        W28917   8.179   9.266  14.470  0.0358 -0.1306  0.1423
13024W        W28918   8.686  11.378  12.228 -0.1591  0.1066 -0.0089
13025W        W28919   3.889   0.239   5.230 -0.0540  0.0919 -0.3805
13026W        W28920   5.011  14.716   0.157 -0.5142 -0.0804  0.2426
13027W        W28921   2.771   8.798   5.674  0.0421 -0.0840  0.0943
13028W        W28922   9.743  13.816  11.418  0.0742  0.0533 -0.0955
13029W        W28923   1.220  15.958  13.422  0.1151  0.2038 -0.0784
13030W        W28924   0.728   6.856   4.335  0.2250 -0.1546  0.2164
13031W        W28925   0.804  11.764   1.347 -0.0990  0.2416 -0.0721
13032W        W28926  11.119   9.377   1.960  0.1240 -0.3811 -0.1748
13033W        W28927   9.371  15.172   5.694  0.2565  0.0201  0.0733
13034W        W28928   6.334  11.393   3.591  0.0546 -0.1444  0.5596
13035W        W28929   4.282  13.133  12.520  0.0609 -0.1201 -0.3124
13036W        W28930  14.390   0.989  16.496  0.2403 -0.0495 -0.1409
13037W        W28931  16.122  16.513  14.936 -0.5343 -0.1012 -0.1847
13038W        W28932   2.950   7.109  15.804 -0.0284 -0.2928 -0.3868
13039W        W28933   8.822  11.434   5.579  0.0828  0.1484  0.1628
13040W        W28934   3.210  17.372  13.340  0.3904 -0.0514  0.1595
13041W        W28935  10.653   4.308  16.431 -0.0735 -0.1895  0.1894
13042W        W28936  11.127  15.357   4.274  0.1710 -0.1587 -0.2167
13043W        W28937   9.057   6.176   4.147 -0.0064 -0.1455 -0.0486
13044W        W28938   6.331   1.696  16.202 -0.1824 -0.2412  0.0868
13045W        W28939  11.831  15.893   5.298  0.3820 -0.2117  0.1354
13046W        W28940  15.443  14.913  13.453  0.0504 -0.0728  0.1996
13047W        W28941   2.351   6.792  13.829 -0.1258 -0.0501  0.2646
13048W        W28942   9.707  11.888  15.410  0.1124 -0.0484  0.1519
13049W        W28943  15.740   5.814   0.161 -0.1599 -0.0390 -0.1849
13050W        W28944   2.641  16.198   4.197  0.0221  0.2397 -0.0669
13051W        W28945   8.756   8.626  14.196 -0.1041  0.2297  0.0810
13052W        W28946   1.903  16.845   4.129  0.1879 -0.2365  0.0625
13053W        W28947   8.209  12.488   3.574  0.0042 -0.0486  0.1400
13054W        W28948  13.507  12.468  14.846  0.2375 -0.4631  0.0543
13055W        W28949  10.414   0.371   3.194 -0.0658 -0.0120  0.0328
13056W        W28950   9.474   0.855  14.941  0.0201 -0.0887 -0.0067
13057W        W28951   0.943  17.209   3.794 -0.1277 -0.1029  0.1087
13058W        W28952   2.813   4.029   1.785  0.0474  0.0109 -0.0402
13059W        W28953  12.836  10.478  13.962  0.0167 -0.2702  0.1766
13060W        W28954  11.294  15.134   5.220  0.0340  0.0735  0.0499
13061W        W28955   9.352  11.421  13.995  0.1740 -0.3019 -0.1127
13062W        W28956  10.479  12.249   1.138 -0.0526  0.0951 -0.0794
13063W        W28957  13.371  15.848   1.613  0.2620 -0.0321 -0.1558
13064W        W28958  11.143   9.986  15.777  0.0956  0.0765 -0.1367
13065W        W28959   2.526   9.256   1.821  0.1752  0.5696 -0.1305
13066W        W28960   7.913   4.631  16.145  0.0389 -0.0918  0.2808
13067W        W28961  11.714   6.519  10.289 -0.0447 -0.0837 -0.2133
13068W        W28962  16.369  12.556   2.377  0.2288 -0.2911 -0.1787
13069W        W28963  15.966   0.892  17.267  0.1818  0.0575 -0.0482
13070W        W28964  11.386   3.515   5.328 -0.1042 -0.0299  0.1938
13071W        W28965   3.174   9.468  15.932 -0.2320 -0.1561  0.0063
13072W        W28966  13.509   2.500   4.430  0.1412  0.1252 -0.0493
13073W        W28967  11.716   2.994   2.397  0.0710  0.0166  0.2664
13074W        W28968  12.309   2.110   4.853  0.1050  0.1786 -0.1439
13075W        W28969   4.105  16.755  12.750 -0.0840  0.3005 -0.1981
13076W        W28970  14.321   4.690  16.984 -0.0242  0.0459  0.3477
13077W        W28971   8.622   9.177  15.348 -0.0296  0.2420  0.3642
13078W        W28972   4.974   2.079   4.014 -0.0978  0.1467  0.2855
13079W        W28973   0.274  13.718   2.911 -0.0551 -0.1215 -0.1163
13080W        W28974   7.777  15.426  15.485 -0.2263  0.3158 -0.4974
13081W        W28975   8.891   8.231  15.132 -0.0518 -0.2504 -0.3892
13082W        W28976  13.779  16.530   3.231 -0.0945 -0.0691  0.1999
13083W        W28977   8.482   8.416   5.084 -0.1698  0.4397 -0.0268
13084W        W28978   6.562   1.000   0.605 -0.0609  0.0105  0.1851
13085W        W28979  10.948   5.588  12.593 -0.2132 -0.0528  0.1121
13086W        W28980   2.000   5.945   5.630 -0.1518 -0.0473 -0.0136
13087W        W28981   9.873   1.753  12.135 -0.0684 -0.1885 -0.1416
13088W        W28982   4.321  13.211   1.285 -0.0483  0.0371 -0.1230
13089W        W28983  12.603   0.382  15.662  0.1821  0.1841 -0.0798
13090W        W28984   8.078   2.261   2.502  0.1144  0.1211 -0.0823
13091W        W28985  15.624   5.339   4.498 -0.2534 -0.1253  0.0227
13092W        W28986  15.955  16.096  15.042  0.0786 -0.0083  0.2877
13093W        W28987   7.076   7.843   4.266 -0.2104  0.1407 -0.3143
13094W        W28988   9.744  12.121   0.422 -0.0631  0.3818  0.1199
13095W        W28989   7.369   1.470  13.795  0.0793  0.1273  0.1640
13096W        W28990  16.683   7.906  13.958 -0.1205  0.2803 -0.1710
13097W        W28991   3.905  12.528  13.095 -0.1305  0.1214 -0.0350
13098W        W28992   9.045   6.432  13.553 -0.4414 -0.0432  0.2120
13099W        W28993   9.560  14.229   1.951  0.0541 -0.0229  0.0133
13100W        W28994   2.370   4.454  14.109 -0.0273  0.3318 -0.2035
13101W        W28995   9.420  10.506   4.904  0.0846 -0.0180  0.1243
13102W        W28996   3.385   9.206  12.061 -0.2499 -0.0998  0.0472
13103W        W28997  11.459  10.038  16.872 -0.1338 -0.0107 -0.0268
13104W        W28998   6.752   3.540  13.341  0.0541  0.0798 -0.0021
13105W        W28999  12.687   7.648   3.803 -0.2244  0.0593  0.0317
13106W        W29000  10.747   7.537   4.427  0.2247  0.3292  0.3554
13107W        W29001  10.603  10.377  12.903  0.0615 -0.0802  0.1989
13108W        W29002   6.185  16.888   6.103 -0.2435  0.1625  0.1130
13109W        W29003   1.642  16.143  16.729  0.2537 -0.0223 -0.0272
13110W        W29004   6.433   0.239  12.467 -0.0518 -0.0649 -0.3181
13111W        W29005  16.562   7.247   5.971  0.2847  0.1265  0.1517
13112W        W29006   9.988   6.062  12.013 -0.0060  0.0740 -0.1653
13113W        W29007   7.467  17.039  16.082 -0.2035  0.2133  0.0521
13114W        W29008   6.316   8.510  12.912 -0.0132  0.4785 -0.3610
13115W        W29009   1.623   9.160  11.406 -0.2265  0.1990 -0.2310
13116W        W29010   4.215  13.126  14.278 -0.2613  0.2771 -0.3934
13117W        W29011   0.636  15.207   2.011 -0.0772  0.2386  0.0550
13118W        W29012  12.999   9.429   1.644 -0.0511  0.1994 -0.1619
13119W        W29013   4.065   3.350  15.067 -0.0675  0.0288 -0.0226
13120W        W29014   4.615   6.441  14.744 -0.1209 -0.0605 -0.3377
13121W        W29015  11.791   7.084  14.502  0.0444 -0.0419  0.0115
13122W        W29016  12.747  13.246  12.156  0.1000 -0.1625  0.4609
13123W        W29017  17.261  11.707   5.427  0.0552  0.0063 -0.2397
13124W        W29018  11.767   7.760   3.714  0.0153  0.0140 -0.2506
13125W        W29019   8.300   9.718  13.830 -0.2371  0.1388  0.0365
13126W        W29020  15.348   8.128  11.727 -0.2617 -0.0822 -0.3223
13127W        W29021   5.064  15.586  15.161 -0.3234 -0.1758  0.2104
13128W        W29022   8.513  11.374   1.512 -0.1256  0.2871 -0.0683
13129W        W29023  11.793   5.608   5.053  0.0230 -0.0596 -0.0127
13130W        W29024  13.384  15.967   0.363  0.0421 -0.1711 -0.0988
13131W        W29025   9.525   0.800   3.068 -0.0935 -0.0918  0.2565
13132W        W29026  14.353  12.728  14.044  0.1010  0.1802 -0.1009
13133W        W29027   0.780   6.544   3.155 -0.1310  0.0955  0.1437
13134W        W29028   0.212   0.934  13.712 -0.1213  0.1779  0.0747
13135W        W29029   2.090   8.606  14.393  0.0342 -0.3245 -0.0206
13136W        W29030  10.624  16.037  15.182 -0.2175  0.0569  0.2035
13137W        W29031   1.920  16.894  16.179  0.2231 -0.0604 -0.1492
13138W        W29032  12.004   7.941  13.423  0.0484  0.2007  0.1088
13139W        W29033   1.891  11.967   4.508 -0.0834 -0.0629 -0.0145
13140W        W29034   8.173  14.276   5.146  0.0826  0.0483 -0.2444
13141W        W29035   3.269   2.676   4.151  0.1643  0.0940 -0.4290
13142W        W29036  13.974  12.390   1.265 -0.0541 -0.0722  0.1584
13143W        W29037   3.169   6.985  14.478  0.0178  0.0468  0.0521
13144W        W29038   7.518   1.662   4.487 -0.1741  0.6234  0.1971
13145W        W29039   6.124   5.620   3.562 -0.2134 -0.0254  0.1590
13146W        W29040   3.910  15.466   4.193 -0.2743  0.1041 -0.2238
13147W        W29041   4.025  13.365  16.663  0.3848 -0.2099 -0.0917
13148W        W29042   4.156  16.213   2.424 -0.1431  0.0609  0.3547
13149W        W29043   1.460   4.011   3.171  0.0888 -0.0232 -0.1010
13150W        W29044  10.984  12.429   0.898 -0.0736 -0.1631  0.2261
13151W        W29045   9.231   8.519  14.356  0.2761  0.1906 -0.1321
13152W        W29046   5.932  13.116   1.575 -0.0682 -0.1020 -0.0488
13153W        W29047  11.174   6.146   5.970 -0.0310 -0.3061  0.1365
13154W        W29048  11.058   0.913   1.126  0.1337  0.2122 -0.3792
13155W        W29049   6.918  14.382  15.972  0.0185 -0.2826  0.1792
13156W        W29050   9.127   5.365  15.144  0.2549 -0.1147 -0.0517
13157W        W29051   3.471  15.777  13.016  0.3058 -0.0306  0.1194
13158W        W29052   8.015   1.950  14.210 -0.1626 -0.0721  0.0335
13159W        W29053  11.351  12.799  13.986 -0.0458 -0.1866 -0.0138
13160W        W29054  16.867   0.904   4.110  0.0619  0.0808  0.3421
13161W        W29055   2.944   3.287  13.538 -0.1966  0.1880  0.0960
13162W        W29056  14.374   2.765  15.692  0.3304  0.1364 -0.3225
13163W        W29057  11.642   3.433   4.824 -0.2975 -0.2270  0.0500
13164W        W29058  12.698   3.323   1.677 -0.1625 -0.0521 -0.3435
13165W        W29059   3.153   4.426   1.814  0.3386 -0.3113 -0.0826
13166W        W29060   1.569  11.774  13.583  0.3031  0.1139 -0.0201
13167W        W29061   7.863  11.740  11.730  0.1583 -0.2263 -0.1717
13168W        W29062   7.754   7.940  16.338  0.0648  0.0830  0.0098
13169W        W29063  12.060  12.127   2.423 -0.1278 -0.2764  0.1730
13170W        W29064   0.579   8.736   4.092 -0.0950 -0.3801 -0.0497
13171W        W29065   6.619   9.426  13.831 -0.0098  0.3035  0.0541
13172W        W29066   7.843   5.041   4.305  0.1727 -0.2653 -0.1549
13173W        W29067   6.379  11.518  16.821 -0.0623  0.0940 -0.0357
13174W        W29068   8.525   1.699   1.400 -0.0631 -0.1715  0.2426
13175W        W29069  12.176   6.972   3.458 -0.1091 -0.0694  0.4431
13176W        W29070   4.931   7.034   3.266 -0.2248  0.2395 -0.0626
13177W        W29071  14.308   5.531   0.216  0.0030  0.0525  0.0654
13178W        W29072   4.445   5.953   2.587 -0.2157 -0.1548 -0.0232
13179W        W29073   2.000  17.494   5.874  0.0957  0.2866  0.2335
13180W        W29074   5.436  16.564  12.370  0.2496 -0.1059  0.1982
13181W        W29075   2.665   6.929  15.457  0.0889 -0.0760  0.2891
13182W        W29076  14.498   8.141  15.615  0.3437 -0.3923 -0.0132
13183W        W29077   2.048   9.895  14.917 -0.0016  0.0299  0.1006
13184W        W29078  13.811  11.578   4.491 -0.0902 -0.0272 -0.0941
13185W        W29079  10.826  10.964  14.996  0.0426 -0.1650  0.2294
13186W        W29080   9.499   7.698  15.587 -0.0753  0.0632  0.0033
13187W        W29081   7.049   9.405   5.394 -0.1496 -0.0955 -0.3353
13188W        W29082   7.753  14.208   2.762  0.2784 -0.0416 -0.2706
13189W        W29083  13.868  12.953  12.675  0.0911  0.0468  0.0281
13190W        W29084   0.310  15.402   0.688 -0.1029  0.1888  0.0230
13191W        W29085   8.566  17.185   2.315  0.0307  0.4356  0.2522
13192W        W29086   9.086  14.020   4.748  0.2301  0.3219  0.1101
13193W        W29087   6.209  12.137   1.796 -0.3996 -0.0885 -0.2119
13194W        W29088  16.432  10.811  11.295 -0.2084 -0.3990 -0.0249
13195W        W29089  13.485   7.238  11.463  0.2183  0.1174  0.0762
13196W        W29090   2.490   0.835  16.709  0.1021 -0.0007 -0.0109
13197W        W29091   1.861  16.537  15.864  0.1886  0.0372 -0.4410
13198W        W29092   6.584  13.528  12.765 -0.0410  0.3526 -0.1634
13199W        W29093  10.671   6.006  12.487  0.0028 -0.4136  0.2843
13200W        W29094   4.367   3.111  13.482 -0.0375 -0.1277 -0.0318
13201W        W29095   7.022   4.468  15.309  0.0828  0.2217  0.2913
13202W        W29096   4.455  13.393   5.156  0.0453 -0.3427  0.2260
13203W        W29097   4.154  17.423   1.147 -0.1172  0.1788  0.0928
13204W        W29098  17.415  16.932   0.999 -0.0792  0.2140  0.0116
13205W        W29099   1.616   9.110  15.290 -0.6270 -0.1562 -0.2169
13206W        W29100   4.608  13.425   5.702 -0.0113 -0.0332 -0.2726
13207W        W29101  13.747   5.231   1.630  0.1667 -0.0564 -0.0259
13208W        W29102  13.536  12.125  12.486 -0.2176 -0.0682  0.1540
13209W        W29103  12.371   0.613  16.460  0.4677 -0.2272  0.1332
13210W        W29104  12.579   4.532   4.499  0.1177 -0.2641  0.0992
13211W        W29105   8.015   4.877   0.160  0.2946  0.0506  0.2281
13212W        W29106   5.075   9.524  15.206 -0.1054  0.1840  0.2270
13213W        W29107   5.447   9.932   5.057  0.1066 -0.2903 -0.0497
13214W        W29108  13.762  10.508  13.510  0.0117  0.3853  0.2008
13215W        W29109   8.838   0.932   1.929  0.0330 -0.1725 -0.0717
13216W        W29110   8.635   8.284   1.777 -0.1640 -0.0002  0.1211
13217W        W29111  14.093   1.513   4.645 -0.0707  0.3367  0.3216
13218W        W29112  13.504   9.700   3.904  0.0798 -0.1433  0.2228
13219W        W29113  14.471  13.820   0.821 -0.2048  0.1065 -0.1459
13220W        W29114   8.193   3.400   4.511  0.1142 -0.2578 -0.2097
13221W        W29115   7.014  14.729   5.412 -0.2690  0.1108  0.4828
13222W        W29116   2.888  16.809  17.181 -0.0017  0.4178 -0.1993
13223W        W29117   9.102  12.403  12.094 -0.0825 -0.0732  0.0110
13224W        W29118  11.262  17.454  13.629  0.1612  0.0112  0.0488
13225W        W29119  15.385  10.690  14.924  0.0037  0.1438  0.1107
13226W        W29120   6.392  12.296   3.201 -0.1131  0.1193  0.1946
13227W        W29121  15.194   2.373   2.800  0.0881 -0.2452  0.0407
13228W        W29122  10.172  16.838  15.404  0.3016 -0.0417  0.0720
13229W        W29123   7.204  10.963   3.306  0.0810 -0.2224  0.0041
13230W        W29124   5.280   3.374   4.443 -0.0053  0.2773  0.0265
13231W        W29125  14.532   3.807   2.362  0.2944 -0.1896  0.1707
13232W        W29126   7.401  15.187  14.312 -0.1327 -0.3118  0.2138
13233W        W29127   4.995   0.716  12.413  0.0695  0.0908  0.1210
13234W        W29128  11.961   7.797  17.109 -0.0532  0.2579  0.1205
13235W        W29129  17.030   7.313   3.621 -0.1836 -0.0767 -0.2686
13236W        W29130   2.982   2.801  13.246  0.1387  0.0854 -0.1011
13237W        W29131  17.605   4.643   6.640 -0.1425  0.2766  0.0317
13238W        W29132   8.120  14.579  15.002 -0.0750  0.3002  0.1572
13239W        W29133   6.121   1.718   6.469  0.1950 -0.2509  0.3417
13240W        W29134   4.456  12.153  12.302 -0.0160  0.0712  0.4373
13241W        W29135  13.018  14.971   4.294 -0.2078  0.1085  0.2536
13242W        W29136  12.186  13.587   4.260 -0.1863 -0.0103  0.2998
13243W        W29137  15.155   7.987   3.995  0.1801  0.1611  0.3528
13244W        W29138  14.477   0.145   4.099 -0.1947 -0.2662  0.0761
13245W        W29139   7.411  10.537  15.425 -0.1166 -0.1537  0.0326
13246W        W29140   5.141   6.476  12.402  0.0805  0.2366  0.1325
13247W        W29141   0.096  16.831   0.592  0.0630 -0.1035  0.0451
13248W        W29142  14.533   4.693  16.540  0.3178  0.2327 -0.1921
13249W        W29143  12.203   6.202  16.462  0.0857  0.1622 -0.1598
13250W        W29144  15.497  17.452  12.657 -0.1219  0.1908 -0.0106
13251W        W29145   7.961  13.014   1.678 -0.2080 -0.3681  0.1407
13252W        W29146   4.250  14.879   1.261 -0.2802  0.0958 -0.2464
13253W        W29147  13.002   7.440   1.454 -0.0178 -0.1583 -0.1110
13254W        W29148  16.906   3.346  12.417 -0.2872 -0.1879 -0.1457
13255W        W29149   2.531   6.385  14.103  0.3223 -0.0680 -0.1155
13256W        W29150  11.359   5.967  13.711 -0.0718 -0.1518  0.1041
13257W        W29151   5.239   3.171   0.936  0.0442  0.0416 -0.0188
13258W        W29152  16.598  10.083   0.503 -0.0842 -0.1949  0.1289
13259W        W29153  14.690  10.836   5.855  0.1657  0.0283 -0.4498
13260W        W29154   1.613   8.599   4.227 -0.0740  0.1454 -0.1743
13261W        W29155  12.976   8.927  12.013  0.5536  0.3605  0.2407
13262W        W29156   4.422   5.874   2.027  0.1343 -0.0148 -0.5050
13263W        W29157  11.714   9.936  12.526 -0.1966  0.0532 -0.4114
13264W        W29158  12.842   4.358   2.536 -0.0567 -0.1612 -0.0937
13265W        W29159   1.731  15.358  16.370  0.0152  0.0860 -0.0614
13266W        W29160   0.422  11.479   2.732 -0.2561 -0.1560  0.0401
13267W        W29161   6.664  10.744  16.515  0.0191  0.2731  0.2754
13268W        W29162  16.256  10.351   5.258 -0.1245 -0.1689  0.2036
13269W        W29163  11.595  10.809  11.532 -0.0010 -0.0046  0.0620
13270W        W29164   6.462  11.070  12.923 -0.0404 -0.2141 -0.3867
13271W        W29165   7.015   3.880   1.185 -0.0396 -0.1644 -0.2777
13272W        W29166   8.151   5.256   2.419 -0.1334  0.1889 -0.1635
13273W        W29167   7.364   3.121  13.691 -0.0513  0.0003 -0.2180
13274W        W29168  14.373   8.159   3.424 -0.0201  0.0935 -0.2875
13275W        W29169  14.906   4.214  14.832 -0.0092 -0.1391 -0.0805
13276W        W29170  17.235   8.526  15.959 -0.1566  0.1417  0.0642
13277W        W29171  12.857   2.731  16.326  0.0978 -0.2077  0.0814
13278W        W29172  15.968   4.689   1.775  0.1998 -0.1080 -0.0261
13279W        W29173   7.492  17.051  11.851 -0.1696 -0.0791  0.1128
13280W        W29174  10.104  10.069   2.588 -0.1457 -0.1064 -0.2696
13281W        W29175   6.280   3.157   4.671 -0.2483  0.2477  0.2147
13282W        W29176  16.102  12.476   4.768 -0.0346  0.0935 -0.0850
13283W        W29177   1.799   5.788   1.921 -0.1625 -0.0881 -0.4772
13284W        W29178  13.211   5.489   1.068 -0.2737 -0.4435 -0.0002
13285W        W29179  16.839  11.101   0.371  0.1258 -0.0783 -0.3560
13286W        W29180   6.617   7.720  13.980  0.1022  0.0296  0.0213
13287W        W29181  10.210   3.802  15.936 -0.1797  0.1247 -0.0630
13288W        W29182  13.548  12.324  16.344 -0.3443  0.0012 -0.1322
13289W        W29183   2.128   2.794  15.739  0.1500  0.4762 -0.0999
13290W        W29184  16.039   5.086   0.076  0.2670 -0.1705  0.1201
13291W        W29185   8.160  13.541   2.581  0.1065  0.1272  0.1798
13292W        W29186   1.863  11.807  15.752  0.2061  0.3947  0.4168
13293W        W29187   9.565  17.276  15.518 -0.1602  0.0072  0.0625
13294W        W29188   5.492   7.081   2.869 -0.1104  0.2613 -0.0382
13295W        W29189   7.277   0.228  12.940  0.1952 -0.0194 -0.1098
13296W        W29190   0.265  15.765  13.913 -0.0470  0.4343 -0.0912
13297W        W29191   1.507  12.944   5.312 -0.2384 -0.0684  0.0295
13298W        W29192   7.881   1.815   3.830 -0.1188 -0.0758  0.1928
13299W        W29193  10.930  11.814  16.111  0.1137 -0.1029 -0.0605
13300W        W29194   9.472   8.814   1.744  0.0859 -0.3601 -0.4225
13301W        W29195   0.893  17.488  15.513  0.3125 -0.0322 -0.2300
13302W        W29196   5.527   7.624   0.672 -0.3284 -0.2467  0.0232
13303W        W29197  13.207  12.324  14.449  0.0624 -0.6379  0.0040
13304W        W29198   2.715  11.895   3.444 -0.3428 -0.0070 -0.2254
13305W        W29199   9.596   4.241   0.769  0.4820  0.1353  0.0776
13306W        W29200   2.093  13.178  12.344 -0.3965  0.1902 -0.0156
13307W        W29201   5.962  16.139   1.786  0.0576  0.2307  0.3265
13308W        W29202  12.396  11.793   2.315 -0.2223 -0.1398  0.1380
13309W        W29203   7.302  12.586   4.943 -0.0613  0.1307  0.0390
13310W        W29204   6.842  17.582   4.799  0.3429 -0.2393 -0.3218
13311W        W29205  14.370   3.379  14.732  0.2512 -0.2477  0.0801
13312W        W29206  10.952  11.874  13.216 -0.1174 -0.0874  0.0028
13313W        W29207  13.100   5.233   2.484 -0.1010 -0.1733  0.0974
13314W        W29208  15.255  10.203   0.313 -0.2560  0.1092  0.1636
13315W        W29209   1.471   8.622  13.544 -0.1654 -0.0300  0.3132
13316W        W29210   8.830   8.006   0.191  0.0041 -0.1123  0.2920
13317W        W29211   8.296   1.085   0.435 -0.1177 -0.2372 -0.0882
13318W        W29212  10.469   3.075  16.313  0.1256 -0.1787 -0.2412
13319W        W29213   5.360  12.690   6.550 -0.1650  0.0706 -0.0122
13320W        W29214   2.713  15.359  12.917  0.0772 -0.0286 -0.0205
13321W        W29215   4.821  17.483   3.759 -0.0337  0.0644  0.3350
13322W        W29216   4.970  14.666  16.631  0.0308 -0.2323 -0.1404
13323W        W29217  17.553   3.380  16.023 -0.1382  0.1988 -0.0476
13324W        W29218   7.886  17.019  14.098 -0.2768  0.0506  0.2157
13325W        W29219   1.263  10.941   1.726  0.1526 -0.2263  0.0674
13326W        W29220  15.693  17.085  13.463 -0.2053  0.0813  0.0900
13327W        W29221  16.058   8.420   2.361 -0.0034 -0.1757 -0.7187
13328W        W29222   7.910   2.750  14.207 -0.0926 -0.2377  0.0770
13329W        W29223   5.796   3.117   0.646 -0.0726 -0.0880  0.1695
13330W        W29224  17.154  14.688   1.013  0.0571  0.2859  0.0406
13331W        W29225   7.173  17.139   0.077 -0.2389 -0.0604  0.1509
13332W        W29226  14.792   4.389  12.223  0.2485 -0.1893 -0.0552
13333W        W29227   3.568   6.030   1.406 -0.3182  0.0815 -0.1066
13334W        W29228   0.503   4.447  14.045 -0.0591  0.0462  0.1130
13335W        W29229  17.527   0.778  15.306 -0.2081 -0.2909 -0.2403
13336W        W29230   0.242  11.090  12.501  0.1331 -0.2578 -0.2494
13337W        W29231   6.162   2.357  14.533  0.1284 -0.0725 -0.0649
13338W        W29232   8.185   0.984   1.917  0.0841  0.2957 -0.0684
13339W        W29233   7.286  11.096   5.128 -0.0520  0.2789  0.0111
13340W        W29234   7.021   8.920   4.488 -0.0429  0.3269  0.1718
13341W        W29235   5.741   4.922  13.998  0.0012  0.1931  0.1528
13342W        W29236   3.478  11.008  13.841 -0.1913  0.2063  0.1397
13343W        W29237   4.857  12.180   4.537 -0.2622 -0.1907 -0.2134
13344W        W29238  14.621  14.069  15.397  0.1458  0.3030 -0.2957
13345W        W29239   5.990   6.029   2.746 -0.2974 -0.0390 -0.0465
13346W        W29240  12.922   0.524   2.267 -0.1995  0.0613  0.2639
13347W        W29241   1.435  16.089   3.618 -0.0291  0.1430 -0.1653
13348W        W29242   3.149   1.175  15.512 -0.0496 -0.1808  0.3574
13349W        W29243   7.689   2.715  13.548  0.2607 -0.2945 -0.0757
13350W        W29244  16.382   1.985  14.653  0.1242 -0.2082  0.2274
13351W        W29245   6.312   3.002   0.608  0.0022 -0.0152  0.0825
13352W        W29246  12.814   1.745   1.424 -0.1092  0.1304  0.2005
13353W        W29247   9.226   1.018  16.810 -0.1818 -0.0015  0.0806
13354W        W29248   7.683   8.758   2.553 -0.1977 -0.1122  0.3009
13355W        W29249   7.624   9.259  16.694  0.0298 -0.0078  0.1710
13356W        W29250  15.675   1.965   4.923  0.2098 -0.1793 -0.0765
13357W        W29251  15.659  11.622  14.605 -0.1626 -0.2395 -0.2879
13358W        W29252   3.569  10.566   1.121  0.2359 -0.0921 -0.1045
13359W        W29253  10.403   2.131   2.025  0.2013 -0.1350  0.1666
13360W        W29254  14.511   9.899  12.744  0.0631  0.0325 -0.1431
13361W        W29255   2.008  16.651  14.821  0.0384  0.1279 -0.2278
13362W        W29256  14.263   1.670   5.842 -0.0064  0.1100 -0.0715
13363W        W29257   2.931   0.845   6.258  0.0170  0.0207 -0.0033
13364W        W29258  13.097   0.549  12.580 -0.2038  0.5779  0.2357
13365W        W29259  16.885   1.660  15.877  0.1561  0.2445  0.1060
13366W        W29260   3.770   4.534  16.634 -0.1093 -0.3046  0.0973
13367W        W29261   1.036  14.680   5.870 -0.0662  0.1278  0.0728
13368W        W29262  13.206  11.256   4.810  0.0916 -0.3116 -0.1607
13369W        W29263  10.176  15.732  16.562 -0.1917  0.0795  0.1125
13370W        W29264   6.833   5.392   2.960 -0.0425  0.3975  0.2863
13371W        W29265  10.970  14.306  11.691  0.1000  0.2237 -0.2700
13372W        W29266   7.249  16.120   4.212  0.1754 -0.2362 -0.0038
13373W        W29267  12.950  12.532   3.795 -0.1519  0.2008 -0.2089
13374W        W29268  17.313  11.144   1.074 -0.1726  0.0408  0.0457
13375W        W29269   4.008   3.296   6.173  0.0020 -0.0547  0.2037
13376W        W29270   8.044   5.258   1.486  0.0306  0.1339  0.0396
13377W        W29271  10.058   0.174   3.475  0.0657 -0.0025 -0.2404
13378W        W29272  12.687  13.517  15.318 -0.0136 -0.3303 -0.0255
13379W        W29273   6.913   6.229   0.688  0.2058  0.0969 -0.1340
13380W        W29274  15.476   8.442  15.943 -0.0188  0.0078 -0.2555
13381W        W29275   9.512   5.418   0.820  0.2155 -0.1435  0.2074
13382W        W29276   6.046   2.066  12.854  0.0576  0.0426  0.0484
13383W        W29277  16.520  17.017  13.140  0.0434  0.1471  0.0518
13384W        W29278   8.244  15.973   1.504 -0.1690  0.0975  0.0565
13385W        W29279   0.389  15.900   5.902 -0.0737 -0.2433 -0.2695
13386W        W29280   6.019  13.896   2.269 -0.0593  0.0245 -0.0989
13387W        W29281  13.390   8.573   4.477 -0.0711 -0.0527  0.0474
13388W        W29282   4.228   0.478  14.073 -0.3241 -0.0687 -0.2196
13389W        W29283   4.001  14.119  14.335 -0.1618 -0.1364  0.0645
13390W        W29284   0.982   1.469   3.652  0.1788 -0.0939 -0.3482
13391W        W29285  13.646   9.480   4.849 -0.0381 -0.3581 -0.1342
13392W        W29286  15.482   9.792  12.072 -0.0515  0.0109  0.1043
13393W        W29287  17.458   0.506   1.475 -0.3027 -0.0270 -0.2513
13394W        W29288  17.051   3.329   4.945 -0.3080  0.0548  0.0983
13395W        W29289   1.433   3.055  17.254 -0.2015  0.0629  0.1315
13396W        W29290  11.439  12.174   0.869  0.3533  0.4089  0.0629
13397W        W29291   8.931   3.718   0.454 -0.1123  0.0732  0.1208
13398W        W29292   9.006  16.217  13.787 -0.1051 -0.1083 -0.0831
13399W        W29293  14.823   0.785   1.974 -0.0801 -0.0129  0.2033
13400W        W29294   0.808   5.242   5.117 -0.3438  0.2355 -0.3336
13401W        W29295   1.504  14.527  12.944 -0.1413  0.3143  0.0931
13402W        W29296  17.571  12.547  15.890 -0.4604  0.2279  0.1342
13403W        W29297   0.922   0.620  12.945 -0.2847 -0.0088 -0.0180
13404W        W29298  14.495   5.787   1.999  0.0786 -0.0248  0.0752
13405W        W29299   6.101   9.737  13.087 -0.0144  0.2847 -0.0760
13406W        W29300   2.939  14.091  12.631 -0.1183  0.0819  0.2652
13407W        W29301   7.938   3.880   4.434  0.0366 -0.0345 -0.0363
13408W        W29302   0.048   2.139   5.137 -0.2764 -0.2058  0.2436
13409W        W29303   3.513  17.514   2.137  0.0142 -0.4568 -0.0179
13410W        W29304   9.389  12.434   5.138 -0.1442 -0.0361  0.3960
13411W        W29305  14.519   6.831  12.140 -0.2750  0.0108 -0.1558
13412W        W29306   6.840   5.727  14.086 -0.2278  0.0609  0.6035
13413W        W29307  10.982  10.193   4.591  0.0288  0.0983  0.3370
13414W        W29308   6.325   1.779   4.568 -0.1512 -0.3426 -0.1195
13415W        W29309   4.970   6.645   4.899  0.0269  0.3990 -0.2529
13416W        W29310  13.477   4.805   2.393  0.0930 -0.2822  0.1604
13417W        W29311   2.038   3.536   2.391  0.0277  0.3032 -0.0037
13418W        W29312  16.180   6.034  16.294 -0.2505  0.1051  0.0357
13419W        W29313   1.481   6.755  15.045 -0.0225  0.0753 -0.0829
13420W        W29314  14.633   1.966  15.940 -0.2983  0.3248 -0.1558
13421W        W29315   2.362   0.192   5.846  0.3098  0.0079  0.0700
13422W        W29316   4.291   6.314   2.292  0.1295 -0.1393  0.4242
13423W        W29317   6.870  14.327   3.873  0.0094  0.1066  0.3713
13424W        W29318  15.708   5.460  11.312 -0.2142 -0.2307 -0.2163
13425W        W29319   0.929   5.695   0.212 -0.0272 -0.0779  0.2042
13426W        W29320   1.100   6.873   2.598  0.1592  0.0462  0.0862
13427W        W29321   8.349  14.993   5.892 -0.2417  0.0224 -0.0656
13428W        W29322   2.414  10.986  16.030 -0.1378 -0.0869  0.1970
13429W        W29323   6.676   2.739  14.343 -0.1081 -0.0492  0.0864
13430W        W29324   4.211   3.788   6.005 -0.0886 -0.0402  0.3345
13431W        W29325  17.181  13.715   6.601 -0.0513  0.1832  0.2633
13432W        W29326  10.111  11.252   4.869 -0.3605  0.2561 -0.6373
13433W        W29327   3.931  10.216   1.132  0.0612  0.0579 -0.0749
13434W        W29328  14.007   5.549   0.725  0.3448  0.1544 -0.0257
13435W        W29329   6.340  13.463   0.562 -0.1697  0.0648  0.1023
13436W        W29330  11.911  11.634   3.037  0.0032  0.2424  0.2321
13437W        W29331   8.847  11.262  15.100 -0.0121  0.0089  0.1324
13438W        W29332  11.033  12.794  17.109 -0.4321 -0.2910 -0.1904
13439W        W29333   3.542   1.015   1.737 -0.2531 -0.2809 -0.2197
13440W        W29334   9.091   9.685   1.661 -0.0006  0.2378 -0.3754
13441W        W29335   1.875  12.060   0.211  0.1650 -0.1781 -0.3358
13442W        W29336  11.907  15.702   5.890 -0.2494  0.0891 -0.0824
13443W        W29337   8.718  16.323   1.131  0.2112  0.0554  0.0819
13444W        W29338  16.802  13.844  16.450  0.3816  0.1384 -0.0929
13445W        W29339   1.351  16.302  16.400  0.1136  0.2258  0.1877
13446W        W29340   8.347  10.429  12.369 -0.0322  0.0698  0.0502
13447W        W29341   4.236  15.695   1.672  0.2549  0.0261 -0.1079
13448W        W29342  13.410  15.178  15.538 -0.1652 -0.1699  0.0952
13449W        W29343   9.037   5.348  15.695  0.0495  0.4302  0.1662
13450W        W29344  15.138   7.186   3.292 -0.2362 -0.1700 -0.2279
13451W        W29345  14.889  17.167   0.680 -0.1782  0.0619  0.1598
13452W        W29346   3.649   5.498  15.689 -0.0988  0.2788  0.2758
13453W        W29347   6.955   0.816  15.961 -0.1945  0.0269  0.0012
13454W        W29348  15.139   8.764  14.091  0.1932  0.3685 -0.3616
13455W        W29349  15.744  15.837   4.627 -0.1435  0.2125 -0.4212
13456W        W29350   0.851   0.101  11.858  0.1600  0.2393 -0.1207
13457W        W29351   4.885   1.717   5.580 -0.1454  0.1977 -0.1238
13458W        W29352   5.399   7.552   2.644  0.2431 -0.2735 -0.1662
13459W        W29353   2.313   6.262  12.653  0.2055 -0.0623  0.1243
13460W        W29354   6.705  14.029  14.239  0.1735 -0.2543  0.1389
13461W        W29355  11.759   6.642  12.395 -0.4047 -0.0638 -0.0642
13462W        W29356   4.306   7.578  16.591  0.0690  0.0322  0.0609
13463W        W29357  16.022  16.495  15.430 -0.1118 -0.0053  0.0271
13464W        W29358   2.791  14.303   1.302 -0.1314 -0.1569  0.0602
13465W        W29359  11.174  10.925   4.987  0.0975  0.1351 -0.3556
13466W        W29360   8.401   6.682  14.483 -0.2280  0.6104  0.1666
13467W        W29361   2.050   6.437   4.407  0.2982  0.3806  0.0580
13468W        W29362  12.466   3.844  13.544 -0.0565 -0.2417  0.0874
13469W        W29363   4.459   9.100   0.298  0.1230 -0.2166 -0.0406
13470W        W29364  10.292   7.841  15.969  0.1186  0.3700  0.1322
13471W        W29365  14.358  10.384   2.134  0.0971  0.0709 -0.1841
13472W        W29366   2.525  17.109  15.405  0.2695 -0.0381 -0.1603
13473W        W29367   1.018   8.256   3.508 -0.2311  0.0846  0.0027
13474W        W29368   0.318   5.260   2.207  0.0838 -0.0483  0.0634
13475W        W29369   8.569  11.020   3.598 -0.0312  0.1755 -0.0090
13476W        W29370  16.219   2.126  13.138 -0.0960  0.3011 -0.0380
13477W        W29371  11.233  13.857   5.551  0.0249 -0.0149 -0.2610
13478W        W29372   2.058   3.384  14.954  0.0541  0.1711  0.3702
13479W        W29373   6.828  14.615  15.413 -0.3778  0.3052 -0.0173
13480W        W29374   7.880   6.030  13.353 -0.1612  0.1517  0.0528
13481W        W29375   8.201   6.523  12.598 -0.0282 -0.0009  0.1614
13482W        W29376  12.640  16.979  14.212  0.0599 -0.2435 -0.0242
13483W        W29377   0.195   7.751   2.929 -0.2446 -0.0583 -0.2486
13484W        W29378   3.926  15.312   1.458 -0.3346 -0.1336  0.0142
13485W        W29379  10.415   4.845  11.455 -0.1975  0.1125 -0.3891
13486W        W29380  14.215   6.643  16.909  0.0612 -0.0900 -0.0626
13487W        W29381   8.813   7.826  14.818 -0.1326 -0.3935  0.2126
13488W        W29382  15.965   5.865  15.170  0.0583  0.0529  0.1434
13489W        W29383   7.427  14.632  14.231 -0.0154 -0.0052 -0.0872
13490W        W29384   2.910  15.669  16.397  0.3963  0.1265 -0.1824
13491W        W29385   5.425  11.503   5.277  0.0058 -0.1334  0.2939
13492W        W29386   9.203   2.155   2.970 -0.1050  0.1232  0.0692
13493W        W29387   2.957   9.544  14.677 -0.0301  0.4123  0.0241
13494W        W29388  17.324  16.998  12.594  0.1690 -0.0848  0.0874
13495W        W29389   6.578   9.456  15.775 -0.1359  0.0361 -0.3143
13496W        W29390   8.915   7.676   1.829 -0.1260 -0.0871 -0.1133
13497W        W29391  13.965   0.865   5.885 -0.1292  0.0950  0.0404
13498W        W29392  11.870   9.563  15.034 -0.0199 -0.0996  0.0293
13499W        W29393   2.739  10.738  15.484  0.2738 -0.2634  0.2344
13500W        W29394   2.575   9.686  14.043 -0.1430 -0.2003  0.3095
13501W        W29395  16.237   9.840   5.274  0.1298 -0.2500 -0.1566
13502W        W29396   1.661  14.022  12.869 -0.1972  0.0581  0.2088
13503W        W29397  16.707  16.852   2.303  0.0123 -0.2369 -0.0997
13504W        W29398   4.937   3.835   4.368  0.0186 -0.1519 -0.1261
13505W        W29399   1.521   5.091   2.373  0.0106  0.4232 -0.0029
13506W        W29400   6.876   1.860  13.085  0.1608 -0.0161  0.2531
13507W        W29401  16.517   6.480  13.510 -0.0518 -0.0259 -0.0876
13508W        W29402  10.349  16.471   0.019 -0.0264 -0.1883  0.0445
13509W        W29403  17.585  15.109   3.425 -0.2652  0.0304 -0.1581
13510W        W29404  10.260  13.060   1.514  0.0271 -0.0333  0.0408
13511W        W29405   3.355   7.804   2.077  0.0875 -0.0055 -0.0729
13512W        W29406  10.684   7.222   2.174  0.0084 -0.1189  0.1202
13513W        W29407   2.750   9.032  12.397  0.0648 -0.3448  0.0871
13514W        W29408   2.280  17.621  13.817  0.3193  0.1428  0.1780
13515W        W29409  10.674   2.412  15.894 -0.2604 -0.1770 -0.0733
13516W        W29410  10.087   5.484  16.129  0.0551 -0.2608 -0.2768
13517W        W29411  13.674  10.737  13.097 -0.2452 -0.0045  0.2968
13518W        W29412  12.460   0.504   4.022  0.0124  0.2334  0.0660
13519W        W29413  14.972  13.235  14.802  0.2355 -0.2890  0.0516
13520W        W29414   2.217  17.421  14.648  0.0467 -0.0873  0.3134
13521W        W29415   5.404  14.878   0.783  0.1610  0.0684  0.0850
13522W        W29416   6.986   1.498  14.184  0.0381  0.2180  0.0608
13523W        W29417  14.947   1.037   3.969 -0.0634 -0.0894 -0.2137
13524W        W29418  10.633   0.840  17.295 -0.0279 -0.1271  0.1713
13525W        W29419   7.363   9.831  14.636  0.0341  0.1859  0.0583
13526W        W29420  11.042  15.534  17.233 -0.1318  0.1830 -0.1200
13527W        W29421   6.403   4.180   6.670  0.0230  0.1595  0.0051
13528W        W29422   2.185  11.366   5.889 -0.1658  0.0317 -0.2183
13529W        W29423   6.392  10.271  15.174 -0.0437 -0.0069  0.3087
13530W        W29424  12.654  11.021  15.826 -0.2088 -0.0640 -0.1358
13531W        W29425  17.426   3.751   1.291 -0.1263  0.2274 -0.0572
13532W        W29426  13.755   4.766  14.505  0.3626  0.2262 -0.0387
13533W        W29427   8.735   2.859   1.768  0.2173 -0.3415  0.0809
13534W        W29428   0.186   3.547  14.107 -0.1138  0.0644 -0.0897
13535W        W29429   1.244  13.416   6.009  0.1322 -0.0271  0.1992
13536W        W29430  15.458  16.062  16.615 -0.1047  0.2897  0.1341
13537W        W29431   6.713  14.411  13.365  0.0078  0.1704 -0.0263
13538W        W29432  10.702   6.636  13.271  0.1218  0.1949  0.0641
13539W        W29433   2.846  16.740   5.577 -0.1558 -0.0309 -0.0585
13540W        W29434  12.725   0.045  11.361 -0.0370 -0.1885  0.0254
13541W        W29435   5.115  17.099  14.648  0.3736 -0.0844 -0.3481
13542W        W29436   8.791   5.987   1.642  0.1878 -0.0917  0.1207
13543W        W29437   2.319   4.362  13.335 -0.3610 -0.0453 -0.2468
13544W        W29438   8.602   2.004   5.378  0.1767 -0.0819 -0.0949
13545W        W29439  11.713  15.709  14.072  0.0280  0.0091  0.0430
13546W        W29440  14.304  10.614   1.263  0.0830  0.4051 -0.2370
13547W        W29441   7.164   4.657  11.831  0.2813  0.3264  0.0274
13548W        W29442  15.446   1.864  14.886 -0.0243  0.1684 -0.1425
13549W        W29443   5.324   8.871  12.914  0.1584 -0.1512 -0.0087
13550W        W29444   8.571   2.113   2.558 -0.2960  0.1942 -0.1438
13551W        W29445   3.459  12.763   6.610 -0.2388 -0.0152  0.1172
13552W        W29446   3.136   5.244   5.486  0.3353 -0.1462  0.4347
13553W        W29447   9.755   1.581   3.296  0.0894  0.1252  0.0157
13554W        W29448  17.494  11.667   3.741  0.0664  0.2146 -0.1519
13555W        W29449   5.969   2.937   3.081 -0.1447 -0.1338  0.2576
13556W        W29450   8.691   4.939   2.707  0.0002  0.1773 -0.1185
13557W        W29451  15.473  14.504  12.513 -0.0980  0.0345 -0.0283
13558W        W29452   4.523   0.905  12.348  0.2867  0.0480 -0.3085
13559W        W29453  15.395  15.590  12.790  0.2034  0.0227 -0.0305
13560W        W29454  13.212  13.906  16.466  0.1167  0.2005 -0.3280
13561W        W29455   5.677   3.225   1.691 -0.0387  0.0520  0.1412
13562W        W29456  13.953   3.821  16.304 -0.4220  0.0190 -0.1271
13563W        W29457  11.061   1.687   2.714 -0.1459  0.0773 -0.2832
13564W        W29458  11.618   7.300   1.828 -0.0871  0.2287  0.0023
13565W        W29459   8.026   3.616  11.368  0.1687 -0.1602 -0.0759
13566W        W29460   9.058  16.673   3.041  0.0604  0.0968 -0.1597
13567W        W29461   7.013   1.000  14.218  0.1864 -0.0498 -0.0426
13568W        W29462  16.627   7.166   5.084 -0.1089  0.2100 -0.0060
13569W        W29463   9.288  16.639   3.913  0.0592  0.0428  0.0595
13570W        W29464  15.971  13.760   0.033  0.1353  0.1518 -0.0859
13571W        W29465  13.225   2.151   3.678  0.0888  0.2345 -0.2225
13572W        W29466   0.608  17.576   2.439  0.0988 -0.0532  0.1797
13573W        W29467   3.674   0.358   1.844 -0.0860  0.0090  0.1736
13574W        W29468   6.627  12.353   0.279  0.2084 -0.0700 -0.0903
13575W        W29469   0.791   3.564   4.209 -0.3006  0.0677  0.0747
13576W        W29470   5.902   9.016  13.029  0.0982  0.1368 -0.1503
13577W        W29471   5.297   9.229   1.802  0.2447  0.0667  0.1007
13578W        W29472   5.053  12.111  12.416 -0.1169  0.4176  0.1503
13579W        W29473   1.562   3.425   5.842  0.1657 -0.3991 -0.2131
13580W        W29474  12.393  13.502  17.185 -0.4065  0.0111  0.0666
13581W        W29475  12.801   7.772   5.505  0.1650 -0.3331  0.0339
13582W        W29476  13.556  14.149  16.834 -0.0526 -0.4265 -0.2078
13583W        W29477   2.408  12.050   4.732  0.0739 -0.0398  0.0412
13584W        W29478   5.864  11.166  16.743 -0.0056 -0.0960 -0.0367
13585W        W29479   1.653  15.684   3.317 -0.2698  0.1260  0.4434
13586W        W29480   0.699  10.683   2.827  0.2815  0.2343 -0.1342
13587W        W29481   4.990  10.435   2.223 -0.1651  0.0067 -0.3847
13588W        W29482  11.664   1.385   2.237  0.1586 -0.1906  0.1011
13589W        W29483  11.614  11.513   1.619  0.1362 -0.0404  0.0195
13590W        W29484  13.783  11.158   3.023  0.2545  0.0976 -0.1548
13591W        W29485   8.562   8.092  13.429 -0.0164  0.1745 -0.2011
13592W        W29486  10.371   1.319   5.663 -0.0220  0.3332 -0.2574
13593W        W29487  15.837   1.508  12.369  0.0120  0.2352 -0.0378
13594W        W29488   1.402   2.277   6.481 -0.1862  0.2285  0.2440
13595W        W29489  17.346   8.145  12.792 -0.1830  0.2987 -0.0502
13596W        W29490  14.064   0.819  12.288 -0.1015  0.1562 -0.3519
13597W        W29491   2.605  11.682  13.803 -0.2506  0.1065  0.2314
13598W        W29492  12.082  15.250   3.467  0.0548  0.0948 -0.0137
13599W        W29493   0.812   0.301  14.909  0.0597  0.3833  0.0153
13600W        W29494   1.847   2.670  16.409 -0.1398 -0.2855 -0.1013
13601W        W29495  10.921   9.404   0.730  0.0051 -0.0429  0.0646
13602W        W29496   6.082   5.790  15.723  0.1477  0.0229  0.2771
13603W        W29497  16.688  14.774   4.306  0.0000 -0.3000  0.2599
13604W        W29498  10.314  10.862  12.932 -0.0196 -0.0908 -0.1899
13605W        W29499  12.534   7.212   0.059  0.1540  0.0702  0.0551
13606W        W29500  13.170  10.118  11.978 -0.2135 -0.2203 -0.2953
13607W        W29501   3.339   9.721   1.006 -0.0097 -0.0237 -0.1503
13608W        W29502  13.948  10.992   2.191 -0.1985 -0.0491 -0.0843
13609W        W29503   9.771  13.147  14.167  0.0886 -0.0928  0.1375
13610W        W29504   3.883   1.961  15.108  0.2820  0.2256 -0.2248
13611W        W29505   5.664   3.312   3.697  0.0671 -0.1646  0.4621
13612W        W29506   1.269  13.798  17.184 -0.0416  0.1913  0.3475
13613W        W29507   5.759  16.069  15.419  0.1175  0.0958  0.0096
13614W        W29508  15.279  13.023  15.805  0.3127  0.0111 -0.2063
13615W        W29509   8.115  13.591   2.065 -0.2236  0.1957 -0.2507
13616W        W29510   3.099   6.263  15.970 -0.2717 -0.2973  0.3438
13617W        W29511   1.715   3.507  16.334  0.1259  0.1943 -0.0816
13618W        W29512  11.051  10.771  11.627  0.1465  0.2012  0.3128
13619W        W29513  11.254  16.165   1.425  0.0461 -0.0426 -0.0077
13620W        W29514   3.555   0.811  14.535 -0.1584 -0.3328  0.1134
13621W        W29515   9.697   6.664   4.608  0.0925  0.0573 -0.3022
13622W        W29516   6.222  16.967  12.432 -0.0552 -0.0893  0.1005
13623W        W29517  15.556  13.234   3.129 -0.2377  0.2737 -0.0032
13624W        W29518  10.101   8.570   5.380 -0.0541  0.0517 -0.1507
13625W        W29519   8.415   1.491  12.077 -0.2344 -0.0972  0.0658
13626W        W29520   0.031   5.726   3.779  0.0783  0.3167 -0.1505
13627W        W29521  15.650  16.265  16.205 -0.0590 -0.3510 -0.2463
13628W        W29522  17.537  11.270   2.597  0.3613 -0.0377  0.0142
13629W        W29523   5.292  13.646   4.930 -0.0444  0.1071 -0.1964
13630W        W29524  16.659   3.615  15.861  0.2560 -0.1741 -0.1760
13631W        W29525  13.975   7.689  13.301 -0.0875  0.0280  0.0919
13632W        W29526  12.881  10.701  16.874  0.1011 -0.2048  0.1414
13633W        W29527   8.884   3.457  12.919 -0.0697  0.1812 -0.0316
13634W        W29528   2.656   5.697  12.633  0.1113 -0.0885 -0.2501
13635W        W29529   0.067   9.104  15.082 -0.0633 -0.1876  0.1191
13636W        W29530  13.986  11.771  15.204  0.1985  0.1148  0.1545
13637W        W29531  16.688  12.271   4.203 -0.1353 -0.2003 -0.1641
13638W        W29532   7.795   6.431   5.891 -0.2731 -0.1259  0.2837
13639W        W29533  15.469   7.760   2.617  0.1953  0.0430 -0.2460
13640W        W29534   1.329  14.303   6.592  0.0134 -0.0708 -0.3021
13641W        W29535  12.044  12.559   0.992  0.0462  0.1082  0.0216
13642W        W29536   7.339   5.144   3.262 -0.0693  0.4306 -0.0372
13643W        W29537  12.164  11.452   4.810  0.1297 -0.1219  0.0489
13644W        W29538   3.418   4.391   2.482 -0.1429  0.2499 -0.0905
13645W        W29539  16.310   4.369   3.817 -0.0496 -0.0369 -0.1911
13646W        W29540  15.918  17.450  12.895  0.0284  0.0064 -0.0860
13647W        W29541  16.695   9.169   0.476 -0.1244  0.2728 -0.0054
13648W        W29542   7.507  12.452   1.322 -0.0767 -0.2699 -0.1441
13649W        W29543   9.960   2.739  12.388 -0.2916 -0.1666 -0.0382
13650W        W29544   2.062   8.044   4.399 -0.1694 -0.1651  0.1075
13651W        W29545   2.616   7.741   0.062  0.0935  0.0754  0.0962
13652W        W29546  17.328   6.943  13.007  0.0292  0.1938 -0.1731
13653W        W29547  14.903  10.501   2.074  0.0840  0.1622 -0.0501
13654W        W29548   0.163   8.857   2.310  0.0623 -0.1280  0.1440
13655W        W29549  10.925   3.756  12.073 -0.3154 -0.2236  0.1043
13656W        W29550  12.845   7.148  15.198  0.0192  0.0289 -0.0586
13657W        W29551   1.252  13.699  15.189 -0.1185  0.3962  0.2836
13658W        W29552   6.400   8.162   1.380  0.1521  0.1458  0.0508
13659W        W29553   7.704   5.800   5.361  0.1986  0.1924 -0.0698
13660W        W29554   2.904   6.243  16.446  0.1869  0.2083  0.0448
13661W        W29555  16.423  12.710  12.272  0.2993  0.1754  0.1978
13662W        W29556   6.206  12.374  12.662  0.1169 -0.2507 -0.3126
13663W        W29557   7.048  15.936   2.011  0.2337  0.0515 -0.1992
13664W        W29558  17.229   5.534   3.919  0.0561 -0.4547  0.4821
13665W        W29559  16.768  10.456  14.027  0.1099  0.0572 -0.1766
13666W        W29560   8.360   4.424   6.237  0.0469 -0.2885  0.2020
13667W        W29561   4.461   9.228   3.312 -0.0353 -0.2375 -0.1682
13668W        W29562   8.437  16.803   5.310 -0.1247  0.0728 -0.0360
13669W        W29563   3.444   2.988   1.210 -0.0458  0.3002  0.0397
13670W        W29564   1.940  16.745   1.179 -0.0988  0.0479 -0.0046
13671W        W29565  17.360   7.256   0.627 -0.0472 -0.4008 -0.0133
13672W        W29566  15.585  12.626  16.574  0.1286 -0.2322  0.1528
13673W        W29567   8.240   0.834   4.274 -0.1121 -0.0877  0.1046
13674W        W29568   5.900   1.029   1.249 -0.1431 -0.1111 -0.0692
13675W        W29569  12.022  16.135   2.904  0.1107  0.2700 -0.1087
13676W        W29570   0.009   8.944   5.831  0.0365  0.5488  0.1937
13677W        W29571  11.016  15.589  11.821 -0.0323 -0.0460 -0.1384
13678W        W29572  14.746  12.153   3.628 -0.1688  0.2811  0.1518
13679W        W29573   7.135   5.450   1.169  0.1231  0.3107 -0.1271
13680W        W29574   1.852   4.118   2.458 -0.2036  0.1445 -0.0433
13681W        W29575  10.521  16.822  15.899  0.0199 -0.0311  0.2067
13682W        W29576   2.630  12.706   5.768 -0.2303 -0.1708  0.2523
13683W        W29577   0.503  14.885  15.016 -0.4438 -0.0435  0.2739
13684W        W29578   5.712  14.441  12.299 -0.2584 -0.2249  0.0274
13685W        W29579  14.100  16.947   4.481 -0.0949 -0.2200  0.1483
13686W        W29580  15.127  11.850  10.702 -0.1308 -0.0305  0.2314
13687W        W29581  13.876  10.273   5.763 -0.0360 -0.0839  0.1052
13688W        W29582   1.611   0.861   3.782  0.0211 -0.0475  0.0650
13689W        W29583  11.347  16.267   4.747 -0.1222 -0.0606 -0.0253
13690W        W29584   1.214  11.897  12.157 -0.1480  0.2966  0.1207
13691W        W29585   6.894   3.902  13.704  0.1658  0.1204  0.0884
13692W        W29586   3.374   3.730  12.058 -0.0472 -0.0781  0.2078
13693W        W29587  12.152   3.349  11.861  0.2100  0.0054 -0.0419
13694W        W29588  12.868   3.758   5.208  0.0196  0.1817  0.0058
13695W        W29589  10.728   4.782   4.151 -0.0523  0.2041 -0.0067
13696W        W29590  14.847   2.432   6.281  0.1129 -0.2137 -0.3316
13697W        W29591   5.609   0.840  12.579  0.1670  0.0876 -0.0673
13698W        W29592  16.414  13.008  16.681 -0.0084 -0.3926 -0.1492
13699W        W29593  17.252   1.956   1.624  0.2855  0.2722 -0.1048
13700W        W29594   8.832   4.239   0.392  0.0287  0.3247  0.3747
13701W        W29595   3.387   2.562  15.460 -0.0030 -0.0841 -0.0077
13702W        W29596   9.101   2.349   1.134 -0.0999  0.1003  0.3950
13703W        W29597   6.205   7.714   1.267 -0.0685 -0.1569 -0.0677
13704W        W29598   2.312  14.103   5.657 -0.0188 -0.0144 -0.0994
13705W        W29599  10.276  11.945  11.776  0.1915 -0.1096  0.0790
13706W        W29600   0.522   4.107  15.482 -0.5640 -0.0954  0.0230
13707W        W29601   9.353   3.387   1.123  0.3902  0.1826 -0.0897
13708W        W29602   9.002   3.194  14.614  0.3017  0.1484  0.0357
13709W        W29603   5.509   4.263  12.735 -0.1313 -0.1041  0.3505
13710W        W29604   8.462  12.756  16.457 -0.0180  0.0458  0.0114
13711W        W29605   4.262   5.036   1.865  0.1499  0.2988 -0.2523
13712W        W29606   7.875  12.385   0.458 -0.1940 -0.4114  0.0940
13713W        W29607  11.117  17.031  17.270  0.0237  0.0316 -0.0411
13714W        W29608  14.011  12.972  11.125  0.0672 -0.2308  0.1890
13715W        W29609  15.283   3.350   4.174  0.3567  0.1328  0.2467
13716W        W29610   4.134   9.821  12.082  0.1438 -0.1452 -0.0685
13717W        W29611  15.224   0.571   1.216  0.0632 -0.0454  0.1579
13718W        W29612  15.985   7.695   1.659 -0.0314 -0.0902  0.3242
13719W        W29613   4.648   8.901   3.636  0.0325 -0.0793  0.0861
13720W        W29614   4.968  12.911   5.108 -0.1162  0.0941  0.2146
13721W        W29615  11.293   6.992   4.277  0.1684  0.1512 -0.0779
13722W        W29616  17.235  12.695  16.383 -0.0354  0.0382 -0.1762
13723W        W29617  16.180   2.577   3.644 -0.2012 -0.1389 -0.0675
13724W        W29618   6.634   2.595  16.847  0.2782  0.0998  0.0574
13725W        W29619   0.340   6.184   4.096 -0.0625 -0.3625 -0.1203
13726W        W29620  10.696   0.997   1.989 -0.0740 -0.4371  0.3654
13727W        W29621   7.359   9.768   5.592 -0.0946 -0.3228 -0.1446
13728W        W29622  14.157   8.401   4.804 -0.4089  0.0678 -0.2644
13729W        W29623  14.020   5.982   0.372 -0.1765  0.1766  0.0165
13730W        W29624  12.756   5.189  16.373  0.3266 -0.0005 -0.0680
13731W        W29625   7.527   5.370   1.513  0.0864  0.1147  0.0540
13732W        W29626  13.400   3.744  12.230 -0.0354 -0.0368 -0.1757
13733W        W29627  12.019  16.619  14.544  0.1468  0.1527 -0.0083
13734W        W29628   9.836   6.675  14.183 -0.1459  0.0498  0.2209
13735W        W29629   7.414   8.486   2.980  0.2621  0.0705  0.1399
13736W        W29630   7.304  12.400   5.400 -0.0495 -0.0591 -0.1379
13737W        W29631  13.461   2.050  12.907  0.0261 -0.2107 -0.2897
13738W        W29632   2.232   8.212  14.731 -0.1518  0.0353  0.2034
13739W        W29633  15.263   3.808  15.618  0.0592 -0.4147 -0.0373
13740W        W29634   1.515   3.725   2.325  0.2292 -0.1736  0.0974
13741W        W29635   6.831  16.669  12.197 -0.2296 -0.1257 -0.0482
13742W        W29636   4.740   9.825   2.786  0.1978  0.1014  0.1069
13743W        W29637  15.744   1.072   5.957  0.1114  0.1217  0.2006
13744W        W29638  14.129   3.952   4.836  0.0151 -0.0270 -0.0444
13745W        W29639   9.735  16.894   3.726  0.2537  0.0254  0.0882
13746W        W29640  11.308   9.710  13.939 -0.2008  0.0385 -0.0886
13747W        W29641   4.680  13.478   0.510  0.0803  0.1183  0.1117
13748W        W29642   3.404  14.078   5.532 -0.0295 -0.4030  0.2191
13749W        W29643   4.598  15.828  13.656 -0.0408  0.1694  0.0001
13750W        W29644   8.967   5.613  14.249 -0.0858 -0.1668 -0.2109
13751W        W29645   9.813   1.966  14.903 -0.2612  0.0026 -0.1063
13752W        W29646  16.895  15.195   1.227  0.0421  0.0811  0.2844
13753W        W29647  11.823  10.287  11.737  0.0900 -0.2533 -0.1249
13754W        W29648  13.975   7.015  14.614  0.0659 -0.0498 -0.2368
13755W        W29649  11.659  15.406   2.297 -0.0693  0.1321  0.1208
13756W        W29650   8.674  10.161   3.417 -0.1597 -0.0621  0.0160
13757W        W29651  14.623  16.609   3.470  0.0193 -0.0720  0.0125
13758W        W29652   5.096  17.466   0.455 -0.1065  0.0461  0.1337
13759W        W29653   8.249   1.802  13.228  0.0595 -0.0995 -0.0752
13760W        W29654  14.457  11.797   6.061  0.1586 -0.3237 -0.3628
13761W        W29655   1.328   6.439  13.869  0.1794  0.2886 -0.1472
13762W        W29656  12.516   6.349   0.732 -0.0138  0.1395  0.1725
13763W        W29657   1.432  12.053   3.954 -0.0804  0.3660  0.2202
13764W        W29658  12.784  11.705  15.207 -0.2303 -0.2173  0.2553
13765W        W29659  16.754  15.815   0.338 -0.0515  0.0726  0.0254
13766W        W29660  11.882  11.079   3.138  0.3948 -0.0182 -0.0381
13767W        W29661   9.013   4.891  16.485 -0.1045  0.2036 -0.2632
13768W        W29662  14.279   8.555  11.682  0.1073  0.0171  0.1260
13769W        W29663  15.659   4.563  12.976  0.0602  0.0628 -0.1842
13770W        W29664   2.193   0.963  12.373 -0.0177  0.1040 -0.1744
13771W        W29665   0.380   6.965   6.808 -0.0188  0.1364  0.0695
13772W        W29666  12.884   7.176   4.727 -0.1843 -0.0159  0.3014
13773W        W29667   6.781   6.904   1.435 -0.1040 -0.1939  0.1617
13774W        W29668   1.117  11.252  16.187 -0.2639 -0.0985  0.1034
13775W        W29669   9.159  13.729   5.401  0.0967  0.0502 -0.5791
13776W        W29670   9.643   0.703   0.432 -0.3796  0.1713 -0.1137
13777W        W29671   9.376  16.360   5.700  0.0959 -0.0186 -0.0159
13778W        W29672   9.028  11.401   1.603 -0.0552  0.2359  0.1808
13779W        W29673   9.898   4.949  16.090  0.0902  0.1734  0.0514
13780W        W29674   7.955   7.675   5.360 -0.0745 -0.0806  0.3439
13781W        W29675   1.600   3.223   1.354  0.0702  0.0678  0.2181
13782W        W29676   1.060   1.510   4.349 -0.1199 -0.1487 -0.0789
13783W        W29677   8.357   3.783  14.465 -0.0506  0.4637  0.0053
13784W        W29678   0.815   6.523  16.252 -0.1430  0.1266 -0.1172
13785W        W29679  15.166   5.663  15.105 -0.0720 -0.1467 -0.0104
13786W        W29680  16.542   5.365   1.964  0.4603  0.2514 -0.0412
13787W        W29681  13.260  15.395   3.651  0.0000  0.0926  0.0341
13788W        W29682  17.498   3.149   5.256 -0.0707 -0.2164  0.1499
13789W        W29683   0.466   3.849   3.469 -0.2227 -0.0974 -0.0023
13790W        W29684  11.206  12.346   3.953 -0.0353 -0.0304 -0.1672
13791W        W29685  10.205   4.359   0.477 -0.1534 -0.0410 -0.0742
13792W        W29686   4.319  14.364   3.126 -0.2547 -0.3520 -0.1595
13793W        W29687  16.941  10.217  16.900  0.2977  0.0056  0.0125
13794W        W29688  14.678  11.223  14.160  0.1083 -0.2652 -0.1919
13795W        W29689   4.878  17.438   1.338  0.4941  0.0808  0.2461
13796W        W29690   0.478   4.933  12.213  0.0674  0.0735  0.1288
13797W        W29691  17.196   0.861  12.240  0.0676  0.0077  0.0193
13798W        W29692  15.960  11.995  13.651 -0.0345 -0.1418  0.1762
13799W        W29693   5.962  15.401  14.968  0.1155  0.0621 -0.0074
13800W        W29694  15.258   9.942  15.642 -0.2117 -0.2621  0.1529
13801W        W29695  14.261  11.359   3.077 -0.0980  0.0041  0.2290
13802W        W29696   5.746  10.188  10.818  0.4429  0.0654 -0.0688
13803W        W29697   8.437  12.067  11.482  0.1136 -0.1437 -0.1704
13804W        W29698   0.112  10.042   4.294 -0.4755 -0.2404  0.0959
13805W        W29699   9.342   7.049   4.364  0.1998  0.1601  0.1510
13806W        W29700   4.587  12.531  16.992  0.1154  0.0513  0.0515
13807W        W29701   3.556   2.322   0.731  0.2160 -0.0880  0.1252
13808W        W29702  11.264   9.354  15.740  0.1474  0.0736  0.2035
13809W        W29703  13.356  17.563  16.741 -0.2941  0.1815 -0.2124
13810W        W29704   9.253   7.509   3.538 -0.2229 -0.1325  0.0876
13811W        W29705  13.230   5.238   6.220 -0.0343 -0.1939  0.2936
13812W        W29706   5.484  14.810  12.538  0.0187  0.3252  0.0636
13813W        W29707  13.963   1.386   1.158 -0.0604  0.0468 -0.1384
13814W        W29708  11.515  11.806  11.370 -0.0907 -0.2783 -0.3263
13815W        W29709  15.851  17.529  13.668 -0.1026 -0.0058 -0.1267
13816W        W29710  11.209   9.928   4.196  0.1180 -0.2465  0.2863
13817W        W29711   9.475   5.460  15.448  0.2448  0.1956  0.2038
13818W        W29712  15.826   6.475   3.593 -0.1309 -0.1313  0.0288
13819W        W29713  14.236  13.457   5.525  0.0327 -0.1428  0.0749
13820W        W29714  16.833   5.995   1.495  0.1617  0.2619  0.0614
13821W        W29715  14.867   5.970  14.947  0.1687  0.0291 -0.2153
13822W        W29716  15.029  11.515  13.386  0.0921  0.2622 -0.3499
13823W        W29717   1.993  16.014   3.092  0.0189  0.3285  0.2504
13824W        W29718  10.426   7.170  14.809  0.2166  0.2342 -0.0645
13825W        W29719   7.859   2.683   2.308 -0.1383  0.0892 -0.0101
13826W        W29720   6.823  14.645   6.503  0.2407 -0.0187 -0.1374
13827W        W29721   7.734  14.985  16.179  0.0091  0.2616  0.0945
13828W        W29722   6.316   9.792  14.208  0.3208 -0.2238  0.2365
13829W        W29723   8.694   7.479   2.738 -0.1293  0.1196  0.1622
13830W        W29724  10.596  11.460  15.971  0.2244 -0.0210  0.0093
13831W        W29725   9.605   3.825  15.295 -0.1309 -0.1295  0.0584
13832W        W29726  17.453   7.585   6.142  0.2965 -0.0913  0.1356
13833W        W29727   9.445  10.478   4.125  0.0821 -0.0137 -0.0703
13834W        W29728   6.857   9.188   3.510 -0.0134  0.0537 -0.0954
13835W        W29729   4.582   8.430   1.207  0.2709 -0.2145 -0.0614
13836W        W29730   5.455  11.817  12.160  0.0439  0.0490  0.3342
13837W        W29731   1.276   9.219  16.814 -0.2508  0.2726 -0.3180
13838W        W29732  11.294   7.954   4.084 -0.1696  0.0101 -0.1026
13839W        W29733   4.546  14.810  12.122  0.1062  0.1025 -0.3061
13840W        W29734   3.326   5.136   6.453  0.0821 -0.3450  0.1111
13841W        W29735  14.737  14.644   5.483  0.0021  0.2183  0.0073
13842W        W29736  13.905   1.238  13.762  0.0054  0.1637 -0.1331
13843W        W29737  11.485   2.010  13.995 -0.0217 -0.1039 -0.0844
13844W        W29738   0.455  13.034  14.891  0.2118 -0.5059 -0.2185
13845W        W29739   8.927   5.908   0.131  0.3309 -0.0644  0.0588
13846W        W29740   2.394   2.195  14.217 -0.1119  0.0171  0.3035
13847W        W29741  10.679  10.884   4.043  0.0504 -0.2187 -0.1318
13848W        W29742  17.498  13.721  15.092 -0.0979 -0.2591 -0.0615
13849W        W29743  10.482  17.241  15.567 -0.0450  0.0761  0.2687
13850W        W29744  12.383  10.046  11.767 -0.0765 -0.0015  0.0342
13851W        W29745  16.800  10.366   4.712 -0.0046  0.0825 -0.1397
13852W        W29746   9.505  11.827  12.641 -0.2014  0.1359 -0.0003
13853W        W29747   0.171   8.405   5.407 -0.2644 -0.1724  0.1788
13854W        W29748   2.503   0.095   0.149 -0.1197 -0.0023 -0.1461
13855W        W29749  12.554  10.514   3.374 -0.4016 -0.0516  0.0696
13856W        W29750   6.065  17.449  14.813 -0.2130 -0.2318 -0.0420
13857W        W29751   6.265  11.996  16.126 -0.2507  0.0660 -0.1301
13858W        W29752  14.585   1.300   1.519 -0.1188 -0.1968 -0.0834
13859W        W29753  14.859  11.866   5.310 -0.0432 -0.2450 -0.6145
13860W        W29754   1.247   5.156   1.349 -0.0081  0.0396 -0.2229
13861W        W29755  17.220   0.245   5.326 -0.3124 -0.1733 -0.1021
13862W        W29756  10.819   7.924  15.998 -0.1146 -0.1528  0.0774
13863W        W29757   7.867  16.899   0.187  0.2174 -0.2131  0.0239
13864W        W29758   3.368  14.742   1.678  0.1754 -0.0661  0.3376
13865W        W29759   3.212   7.014   5.430  0.1745 -0.0419 -0.1597
13866W        W29760   1.150   6.966  13.320  0.0211  0.2092  0.2192
13867W        W29761   4.372  13.159  11.979 -0.1100 -0.0857  0.2226
13868W        W29762  10.948   4.226  15.551 -0.0838 -0.0477  0.2413
13869W        W29763   8.178   0.439  12.270  0.0143  0.0911 -0.1113
13870W        W29764  13.812  17.413   0.662  0.1973 -0.1022 -0.0755
13871W        W29765  14.897  13.636  14.514  0.0643  0.1636 -0.1421
13872W        W29766  14.692  14.547   0.357 -0.4954  0.1959  0.0765
13873W        W29767  17.104   3.371   1.332 -0.0815 -0.0830  0.0329
13874W        W29768   4.990   8.176  12.399  0.0351 -0.1366 -0.1500
13875W        W29769   0.555   3.800   2.227  0.1565 -0.0920 -0.0042
13876W        W29770   5.392  12.104   4.240  0.1470 -0.3391  0.0645
13877W        W29771   0.567   7.461   3.711  0.0362  0.0358  0.0284
13878W        W29772  10.743  11.650  15.289  0.3737  0.0476  0.4162
13879W        W29773  10.574  11.498  13.179 -0.0461 -0.3057  0.1776
13880W        W29774   5.911   5.391  14.566 -0.1054 -0.2854  0.2315
13881W        W29775  10.948  16.359   0.752  0.1501 -0.2374 -0.3807
13882W        W29776   5.910   4.473   1.122  0.3486  0.0158 -0.2155
13883W        W29777  15.139   0.263   3.969  0.0124 -0.2158  0.0295
13884W        W29778   0.772  14.772   3.967 -0.3738  0.2966 -0.1452
13885W        W29779  11.075  16.933  12.872  0.0866  0.0107  0.2072
13886W        W29780   4.904  14.562  11.378  0.1478 -0.0933  0.0287
13887W        W29781  10.292  12.101   1.562  0.1059  0.1088 -0.1442
13888W        W29782   1.568   2.240  16.172 -0.4057 -0.0275 -0.0458
13889W        W29783   6.241   9.625   4.742 -0.1139  0.2571  0.1676
13890W        W29784   3.825  14.069  13.821  0.0971 -0.3031  0.1980
13891W        W29785   0.048   0.390   4.282 -0.2229  0.0040  0.0298
13892W        W29786  15.481   4.500  17.067  0.1651 -0.1597 -0.1082
13893W        W29787   8.176   1.631   3.461  0.0640 -0.1340  0.1143
13894W        W29788  16.901   9.524  14.444 -0.0651 -0.2446 -0.0566
13895W        W29789  13.124  16.963   3.261 -0.1130 -0.1161  0.0511
13896W        W29790  17.591   4.721  15.621  0.0529 -0.0194 -0.1881
13897W        W29791   8.586   1.821  14.242  0.1657 -0.0573 -0.0227
13898W        W29792   6.879  11.416   2.169 -0.3027  0.0746  0.0387
13899W        W29793   3.123   0.867  15.935  0.2319 -0.0347  0.0644
13900W        W29794  11.040  17.045   1.418  0.0520  0.0053  0.4000
13901W        W29795   2.097  11.588   2.483  0.0199  0.1821 -0.2642
13902W        W29796   7.578  10.734   3.771 -0.0884 -0.0934  0.0425
13903W        W29797  12.303  11.238   0.534 -0.3341  0.1609 -0.0636
13904W        W29798  11.242   1.745   0.644 -0.1186 -0.2837 -0.0945
13905W        W29799  10.746  11.687   3.222 -0.2953 -0.4291 -0.0127
13906W        W29800   7.580   3.050   5.669  0.1256 -0.1383  0.0331
13907W        W29801   3.245  11.697   1.565 -0.2504  0.0234  0.2167
13908W        W29802   2.961  11.788  16.856 -0.1234 -0.0844 -0.1000
13909W        W29803  16.241   8.787   4.265  0.2360 -0.1034 -0.3188
13910W        W29804   2.202   1.513  15.814  0.0543  0.1708  0.1880
13911W        W29805  10.745  13.340  12.867 -0.0372  0.1629  0.0097
13912W        W29806   0.230   7.920  15.648  0.1009 -0.0865 -0.0498
13913W        W29807   3.889   6.076   3.184  0.0834  0.3809  0.0388
13914W        W29808   7.634  12.342  12.028  0.1316 -0.0558  0.3986
13915W        W29809   9.409  12.269   2.622 -0.2288  0.3014  0.2240
13916W        W29810   4.618  13.342   3.116 -0.3399  0.1590  0.2499
13917W        W29811   2.032   2.585   5.202 -0.0005 -0.0430  0.0731
13918W        W29812   8.579   7.820  15.273  0.0929 -0.5269 -0.1602
13919W        W29813   1.921   5.287   4.860 -0.0355 -0.0374  0.0739
13920W        W29814   7.974   7.080   3.123 -0.1111 -0.1131  0.0230
13921W        W29815  13.725   7.311   5.472 -0.3191  0.3194 -0.0772
13922W        W29816  13.464  15.653   2.877 -0.0334 -0.1458  0.3137
13923W        W29817  14.004   9.773  16.340  0.2803  0.0793  0.1782
13924W        W29818   6.577   4.747  13.937  0.2120 -0.0410 -0.3722
13925W        W29819   7.527  11.074  14.699 -0.1137 -0.1894 -0.0258
13926W        W29820   2.051  10.250   3.894  0.2256 -0.2343  0.1788
13927W        W29821   8.032   7.460   1.846  0.3446 -0.1102  0.3465
13928W        W29822   5.980  11.489   4.043 -0.0576  0.1878 -0.0235
13929W        W29823   2.866   3.574   2.785 -0.2069  0.2227 -0.0539
13930W        W29824  17.119  12.109   3.924 -0.2542 -0.2487  0.0681
13931W        W29825   4.568   5.183   6.137 -0.0587  0.2831 -0.0385
13932W        W29826   1.463  14.309  12.113 -0.1380  0.1972 -0.1991
13933W        W29827   1.439  13.303  13.428  0.0225 -0.1138 -0.0423
13934W        W29828   9.626  17.401   0.608 -0.0522 -0.1032 -0.0263
13935W        W29829  16.905  11.953   4.997 -0.0598  0.2883 -0.0813
13936W        W29830  10.048  11.802   0.070 -0.1629 -0.2218  0.2008
13937W        W29831  17.175   1.021  12.796 -0.0418 -0.0776 -0.5231
13938W        W29832  16.260   1.910   6.773 -0.0395  0.0495 -0.1177
13939W        W29833  11.384  16.142  14.096  0.1320 -0.3019  0.1371
13940W        W29834  14.855   4.995   0.771 -0.0136 -0.0340  0.0291
13941W        W29835  13.873  16.893   4.036  0.0982  0.4240  0.0530
13942W        W29836  14.493  10.930   2.259  0.1717  0.2135 -0.1154
13943W        W29837  15.154   6.758  15.883  0.2153 -0.0679  0.0934
13944W        W29838   6.062   5.155   5.050  0.2183  0.2092 -0.0304
13945W        W29839  14.137   3.175  15.994  0.2620  0.1640  0.0787
13946W        W29840  17.133  11.531  14.897  0.1860 -0.2951  0.1272
13947W        W29841   6.253   7.387  12.665  0.1906 -0.4697  0.1726
13948W        W29842  17.266   8.541   6.196 -0.2094  0.0624  0.1634
13949W        W29843   5.194   5.484   4.178  0.2629 -0.2136 -0.1767
13950W        W29844   8.632   0.680   0.249  0.3981 -0.1306 -0.2089
13951W        W29845   8.063   5.832  12.937 -0.0633  0.0718  0.0435
13952W        W29846   9.315  10.230  11.271 -0.1055  0.1637 -0.0499
13953W        W29847  11.406   1.432   3.089 -0.1330 -0.2344  0.0118
13954W        W29848  10.555  12.320   5.268 -0.0615 -0.0045 -0.0820
13955W        W29849  11.846   6.519  11.914 -0.2970 -0.0683  0.0342
13956W        W29850   4.243   0.010   2.451  0.0069 -0.2815  0.4019
13957W        W29851  15.726   0.782   3.441  0.3374 -0.0340  0.0418
13958W        W29852   1.412  13.728  12.552  0.0581 -0.2208  0.2940
13959W        W29853  15.617   8.590   0.084 -0.0565 -0.1133 -0.1178
13960W        W29854   1.115   9.072  15.574  0.0143  0.0674  0.0287
13961W        W29855  14.338  14.473  12.410  0.2183  0.1014  0.0661
13962W        W29856  10.390  12.823   1.974 -0.0045 -0.1455  0.1223
13963W        W29857  14.746   9.695  17.039  0.1056  0.1890  0.1319
13964W        W29858   9.951  17.001   4.726  0.1164 -0.2101  0.1759
13965W        W29859   8.287   7.748  13.063 -0.0053 -0.0421  0.1764
13966W        W29860  10.554  13.931   1.778  0.0725 -0.0169 -0.2791
13967W        W29861   7.341   9.563  13.874 -0.3486  0.0629 -0.2914
13968W        W29862  16.577  13.581   4.002  0.3268  0.1608  0.1141
13969W        W29863  15.279   3.222   1.004 -0.0735  0.2049 -0.0991
13970W        W29864   5.667   0.927   5.367 -0.3788  0.1278 -0.1378
13971W        W29865   0.891   3.078  12.919  0.0741  0.0160 -0.0081
13972W        W29866   8.033  11.021  14.169  0.1665  0.1710  0.3175
13973W        W29867   6.310  10.161   0.441 -0.0424 -0.0030 -0.0855
13974W        W29868  11.012   3.536  12.567  0.0559 -0.1226 -0.0029
13975W        W29869  12.065  14.535  14.929 -0.0010 -0.0133  0.1345
13976W        W29870   8.877  17.521  12.562  0.2955 -0.0834 -0.1648
13977W        W29871   3.225   7.086   6.313  0.0143  0.0219  0.2265
13978W        W29872  10.979   4.639   5.169 -0.3190 -0.1481  0.1689
13979W        W29873  17.583   6.021  16.420 -0.0590 -0.2308 -0.1000
13980W        W29874   2.896   1.574  15.243  0.0512  0.1647  0.0136
13981W        W29875   5.076   1.377   4.757  0.2386 -0.4207  0.1982
13982W        W29876   2.796  11.653  14.751  0.1426  0.1252  0.1671
13983W        W29877   0.941  10.599  12.356 -0.0567  0.1557  0.2193
13984W        W29878  11.685   4.455  11.946  0.4972  0.3679  0.2345
13985W        W29879   4.765   3.427   3.925  0.1608 -0.1039  0.0014
13986W        W29880  14.842  13.613  15.169 -0.3026  0.1614  0.0632
13987W        W29881   5.426   8.381  13.022 -0.1699 -0.0931 -0.3834
13988W        W29882   6.487   0.309   2.771 -0.3540  0.0757 -0.1740
13989W        W29883   1.142  11.028  15.165  0.1025 -0.0299  0.1249
13990W        W29884   3.437   6.088   4.514  0.1842  0.3261  0.3694
13991W        W29885  16.793   1.031   1.961 -0.2995  0.1317 -0.1106
13992W        W29886  13.864  14.675  12.628 -0.1295 -0.0048 -0.2536
13993W        W29887  10.833  17.172  13.527  0.1075  0.1192 -0.3430
13994W        W29888   7.844  14.665  16.536  0.0120  0.1786  0.0615
13995W        W29889   2.703   6.661   5.597  0.3548  0.1221 -0.1230
13996W        W29890  14.560   0.291  15.378 -0.0705  0.0393 -0.0990
13997W        W29891  10.216   3.501   4.731 -0.0393  0.1232  0.0839
13998W        W29892   6.236   7.567  15.558 -0.1098  0.0701  0.0735
13999W        W29893   8.193   5.184   3.426  0.1816  0.2579  0.0651
14000W        W29894   0.251   7.009  15.680 -0.0640  0.0019 -0.1527
14001W        W29895  10.033   5.124   0.548 -0.1226 -0.1659  0.0773
14002W        W29896   8.552  12.714   2.214  0.0199  0.0045  0.0014
14003W        W29897   3.081   6.525  13.166  0.2694  0.0691  0.0734
14004W        W29898   1.516   1.129  13.787  0.1437 -0.0186 -0.0830
14005W        W29899  10.658  11.130   3.252  0.1247 -0.0089  0.0129
14006W        W29900   8.730   8.962  11.640  0.0511 -0.0577  0.0198
14007W        W29901  15.506  10.427  15.755  0.1960  0.0428 -0.0467
14008W        W29902   8.738  10.817  12.532 -0.2927 -0.0045 -0.1911
14009W        W29903   5.395   7.861   3.381  0.0679  0.1751  0.0743
14010W        W29904  12.176  16.923   1.759  0.0311  0.1127 -0.1214
14011W        W29905  14.572   1.985  14.573 -0.3222 -0.1022 -0.0256
14012W        W29906  11.843   1.358  13.269  0.1601  0.3830  0.2524
14013W        W29907  11.799  16.464   4.734 -0.0568  0.1019  0.2478
14014W        W29908   7.106  14.874   2.611  0.0864 -0.0419 -0.0855
14015W        W29909   9.390   6.947   4.829  0.0088  0.1940 -0.2280
14016W        W29910   4.204  11.443  14.566  0.0554  0.0925  0.2306
14017W        W29911   4.378   2.707   3.262  0.2050 -0.1636  0.3216
14018W        W29912   8.636   3.964   0.949 -0.0480 -0.3400  0.2425
14019W        W29913   4.246   6.840   0.274 -0.1735  0.1053  0.2049
14020W        W29914  15.112   3.689  13.108 -0.0616 -0.1243  0.0453
14021W        W29915   4.702  12.292   3.319  0.1379 -0.0199  0.2170
14022W        W29916  13.000  16.934  14.891  0.4167  0.2923 -0.3414
14023W        W29917  12.010   1.117  13.711 -0.0265 -0.1603 -0.0310
14024W        W29918  15.200  13.172  16.620 -0.1017  0.1172 -0.3008
14025W        W29919  11.330  14.274   3.861 -0.0584 -0.0059 -0.0203
14026W        W29920  10.451  15.826   2.088  0.0433 -0.0267  0.1778
14027W        W29921   6.670   6.216  12.529 -0.4355 -0.1105 -0.1969
14028W        W29922   6.965  16.226  15.774 -0.0242 -0.0331  0.3172
14029W        W29923   0.676  10.796  15.128 -0.0794 -0.0064 -0.0897
14030W        W29924  10.841  11.967   5.027  0.1781  0.1149 -0.0244
14031W        W29925   1.270   8.189  14.661 -0.1452  0.0054 -0.2717
14032W        W29926   2.714  16.030   0.113 -0.0255  0.2877 -0.0421
14033W        W29927   8.965   9.145  15.665 -0.2277  0.1833  0.2251
14034W        W29928   9.240   5.650   0.479 -0.1289 -0.0514  0.1283
14035W        W29929   2.786  17.395   0.941 -0.4371 -0.0914  0.2997
14036W        W29930  15.248  13.931  16.091 -0.3591  0.1562  0.0004
14037W        W29931  16.721   9.297   4.568 -0.2665  0.3526 -0.1261
14038W        W29932  10.798   4.766   0.304 -0.0743  0.3015 -0.0033
14039W        W29933  10.646  10.414  14.987  0.3926 -0.0713 -0.0029
14040W        W29934  10.732  16.270   0.281 -0.2182 -0.0410  0.0249
14041W        W29935  17.245  10.222   1.415  0.1766  0.1001 -0.0953
14042W        W29936   5.369   0.609   5.039  0.2291  0.3033  0.0711
14043W        W29937  11.728   7.892   4.275 -0.0730  0.1662 -0.0861
14044W        W29938   2.080  16.094   2.606  0.2288  0.2042  0.0647
14045W        W29939  15.493   6.672  16.265 -0.2432 -0.1976 -0.1932
14046W        W29940   9.691   1.187   0.852 -0.2569  0.2765  0.1844
14047W        W29941  12.653  13.211   4.265 -0.0093  0.0177 -0.0540
14048W        W29942   5.915  17.024  15.012 -0.1240 -0.0814 -0.3574
14049W        W29943   3.241   9.179   6.904 -0.0166 -0.2676  0.1202
14050W        W29944  15.567  10.250   1.327 -0.1654 -0.1647 -0.0214
14051W        W29945   0.551   7.082   1.717  0.1338  0.0164 -0.2890
14052W        W29946  10.391  15.354  11.097 -0.1187 -0.0543 -0.2078
14053W        W29947   9.665  11.382  14.435 -0.0996  0.3844 -0.1144
14054W        W29948   8.268  16.210   0.063  0.0211 -0.0795 -0.3102
14055W        W29949   0.187   7.909  17.230 -0.0886  0.1946 -0.1046
14056W        W29950  10.718  15.679  16.432 -0.1165  0.0521  0.1292
14057W        W29951   5.292   9.576   4.017  0.0122  0.3443  0.0152
14058W        W29952   9.736  15.081   3.561 -0.3183 -0.1983  0.0527
14059W        W29953  17.274  13.034  16.768  0.0817 -0.0558  0.0385
14060W        W29954   0.296  17.070   4.827 -0.1401 -0.1048  0.2564
14061W        W29955  14.592   0.376   0.350  0.1656  0.0467  0.0306
14062W        W29956   9.816   7.024   1.698  0.0848 -0.1375  0.0248
14063W        W29957   4.755   7.705   2.648 -0.0208  0.0909  0.2453
14064W        W29958   4.694   4.006  13.418  0.2122 -0.2540  0.0038
14065W        W29959  15.797   7.178  15.487  0.0039  0.2650  0.1218
14066W        W29960   9.908   0.900   3.950 -0.0414 -0.0816  0.0635
14067W        W29961   4.627   1.881   5.158 -0.3956  0.1521 -0.1604
14068W        W29962   6.710   7.273   0.475 -0.3347  0.0108 -0.2263
14069W        W29963  12.874   0.011   2.010 -0.0692  0.0421  0.1347
14070W        W29964  13.388  12.970   3.926 -0.0202 -0.1255 -0.2803
14071W        W29965  14.010   3.533  15.034 -0.4184  0.0138  0.0417
14072W        W29966  13.975  14.739  14.883 -0.1922  0.0632 -0.0954
14073W        W29967   0.685  10.971  12.622 -0.1007  0.1904 -0.0190
14074W        W29968  17.445   1.980   5.906  0.0178  0.2382 -0.3616
14075W        W29969   6.770  16.209   4.351 -0.0405  0.0476 -0.1650
14076W        W29970   3.637   5.359   0.449 -0.1323  0.0261 -0.1076
14077W        W29971  12.919   6.622  15.367 -0.1146 -0.1206 -0.0929
14078W        W29972   5.119   7.911   2.969  0.1098  0.0321  0.0338
14079W        W29973   8.848   5.441  13.760 -0.0441  0.1201 -0.1003
14080W        W29974  16.532   2.097  17.136 -0.3768  0.0014 -0.1390
14081W        W29975   1.662   8.702   2.669  0.0639 -0.2464  0.0455
14082W        W29976   2.477   8.305   5.321 -0.2870  0.1147  0.1203
14083W        W29977   7.307  12.122   1.600 -0.1272 -0.1467  0.3759
14084W        W29978  16.834  14.169  16.074 -0.1473  0.0612  0.4005
14085W        W29979   8.467  13.889  17.015 -0.1642  0.1347 -0.0814
14086W        W29980   6.518  15.474  13.142 -0.0554  0.1299 -0.0091
14087W        W29981  16.935   8.278  15.617 -0.0168 -0.0871 -0.1769
14088W        W29982  14.625  14.158  14.327 -0.0579 -0.0089 -0.0015
14089W        W29983   7.546   2.092  16.595 -0.0660 -0.1972  0.0879
14090W        W29984  13.531   9.029   3.713 -0.0184  0.2573 -0.1660
14091W        W29985   2.041  14.480   1.575 -0.0117  0.1489 -0.3927
14092W        W29986  16.751  14.837  13.892 -0.5415  0.0393  0.3646
14093W        W29987   8.315   8.244   2.156  0.1536 -0.0256 -0.3470
14094W        W29988   0.240   9.367  13.113  0.1667  0.1754  0.0011
14095W        W29989  11.985   6.920   5.526 -0.5180 -0.1494  0.0893
14096W        W29990  13.427  11.424  15.878 -0.0778  0.0411 -0.2590
14097W        W29991   1.199   8.045  17.119 -0.4346  0.1907  0.0489
14098W        W29992   6.841  15.722   4.184  0.0753 -0.0767  0.0465
14099W        W29993  16.118   4.986  11.074  0.2664  0.1505 -0.1462
14100W        W29994   8.875  10.482   1.347  0.0410 -0.2168  0.3189
14101W        W29995  10.257   4.583   4.170  0.0075  0.1310 -0.1016
14102W        W29996  12.330  10.320   4.337 -0.0894 -0.0032  0.1213
14103W        W29997   5.552  11.507  17.188 -0.1106 -0.1318 -0.1963
14104W        W29998  17.313  14.453  17.272 -0.1751 -0.0150  0.0942
14105W        W29999   8.956  15.305  17.017  0.3388  0.0602  0.0679
14106W        W30000  13.439  11.531   2.980  0.0579 -0.0044 -0.0646
14107W        W30001   1.149  14.651   4.854 -0.4144 -0.2956  0.1773
14108W        W30002   5.609   7.828  12.515  0.2983 -0.2624  0.1595
14109W        W30003   4.809   7.618   0.080 -0.0344  0.0206 -0.0252
14110W        W30004   4.803   9.908   1.380  0.0709 -0.2618 -0.0402
14111W        W30005  16.618  17.584  15.015  0.0216 -0.3243 -0.0274
14112W        W30006  13.084  12.047   3.908 -0.1747  0.0654  0.2527
14113W        W30007  11.549   9.005  12.798 -0.0073 -0.3178 -0.0238
14114W        W30008  13.388   7.514  13.992  0.0841 -0.0669 -0.1488
14115W        W30009  16.611  15.384   4.949  0.0001  0.1408  0.3421
14116W        W30010   0.169   0.452   2.972 -0.0368 -0.0812  0.0724
14117W        W30011  15.095  17.346  14.957  0.0704 -0.1071  0.0029
14118W        W30012   1.587   2.152   0.956 -0.0663 -0.0914  0.3982
14119W        W30013  12.773   3.554  15.935 -0.1758 -0.0143  0.1383
14120W        W30014  10.686   7.315  16.553 -0.0179 -0.0527 -0.0462
14121W        W30015  15.854   8.544  13.833  0.0193 -0.1590 -0.2277
14122W        W30016  15.562   7.394  16.538  0.1737 -0.1645  0.1444
14123W        W30017   7.667   6.164   6.262 -0.0259 -0.2821 -0.1498
14124W        W30018  14.654  15.027   4.613 -0.0002 -0.4082  0.0208
14125W        W30019   2.200   3.258  15.432 -0.0075 -0.0549 -0.2725
14126W        W30020   8.184   3.340   3.619  0.1200 -0.1978 -0.1684
14127W        W30021   1.770   7.268   1.333  0.0243  0.1845  0.2327
14128W        W30022   1.642   1.026  15.644 -0.2886  0.0163  0.1175
14129W        W30023  14.381  11.861  11.974  0.0455  0.1004 -0.1172
14130W        W30024   6.181  16.393   0.977  0.0040 -0.0493 -0.1028
14131W        W30025  10.539   8.435   1.139  0.1580 -0.3835  0.0064
14132W        W30026  12.431   6.897  12.820 -0.1848  0.0516 -0.1368
14133W        W30027   7.800  11.386   2.476 -0.0998 -0.1599  0.0715
14134W        W30028  16.528  12.904  17.159  0.6229 -0.2203 -0.0724
14135W        W30029   3.916  12.407  17.156 -0.0688  0.2409  0.1350
14136W        W30030   3.653   4.200   0.631 -0.1594 -0.2052  0.0491
14137W        W30031  14.805   4.255  16.591  0.0816 -0.3785  0.2694
14138W        W30032   2.057   9.362   1.709 -0.0493 -0.1976  0.1122
14139W        W30033   3.450   9.962  15.517 -0.0801 -0.0473 -0.2210
14140W        W30034  14.444  13.373  16.009 -0.4029  0.0291  0.1370
14141W        W30035   4.212  11.135   0.880 -0.2466 -0.0674 -0.0635
14142W        W30036   5.032  15.918   1.522 -0.0122 -0.3498  0.1608
14143W        W30037  11.340   8.816  16.190 -0.1378 -0.3351  0.0548
14144W        W30038   0.743   8.385   3.041  0.1383 -0.4728  0.1142
14145W        W30039  12.899   6.521   5.160 -0.0977  0.1411  0.0130
14146W        W30040   3.366   8.347  15.747  0.1610  0.1360  0.2317
14147W        W30041   1.058   6.134   1.553 -0.4552 -0.2279  0.0903
14148W        W30042   2.667  14.864   3.649 -0.0984 -0.0735  0.2078
14149W        W30043   3.798   1.148  14.822 -0.1223 -0.2560  0.0689
14150W        W30044   9.506  10.951  14.581 -0.0523 -0.0939 -0.3152
14151W        W30045  17.060  14.200   4.575 -0.2378  0.2912 -0.1456
14152W        W30046   1.280   3.050   5.082  0.0597 -0.0196 -0.1362
14153W        W30047   6.186   9.231   5.672  0.0546  0.0947  0.0690
14154W        W30048  13.418  14.140  14.496  0.0205  0.6036  0.2415
14155W        W30049  11.333  12.478   4.522 -0.1263  0.0993 -0.2615
14156W        W30050  14.727   8.556   0.979 -0.2125  0.3849  0.1252
14157W        W30051  12.143  16.839  13.449  0.0565 -0.3663 -0.3133
14158W        W30052  15.745   5.933   1.676  0.3635  0.1354  0.3214
14159W        W30053   6.082   4.136  17.182 -0.1247 -0.2068 -0.0611
14160W        W30054  14.487  15.811  12.038 -0.0729  0.0130  0.2420
14161W        W30055   9.611   2.424  12.560  0.2492 -0.4239 -0.1621
14162W        W30056  11.543  15.714   0.208  0.3185 -0.1698 -0.2550
14163W        W30057  12.609  14.805   2.164  0.3389 -0.0343 -0.0213
14164W        W30058   2.287   4.893  16.621 -0.1110 -0.0661 -0.3118
14165W        W30059   8.749   2.767   6.127  0.0079 -0.1142  0.0662
14166W        W30060  15.362  13.787   5.783  0.1638  0.4082 -0.2188
14167W        W30061  14.596   2.528  16.141 -0.0732  0.0233 -0.0129
14168W        W30062   3.642   8.574   1.786  0.2165  0.0256 -0.0269
14169W        W30063  11.136  11.757   0.894  0.0826  0.0652 -0.2915
14170W        W30064   0.933   7.302  12.920 -0.4522  0.0943 -0.0651
14171W        W30065   5.859  15.997   1.295  0.1580 -0.0319 -0.2282
14172W        W30066   5.066  12.759   6.081 -0.2699 -0.1489  0.2345
14173W        W30067  14.690   8.128   4.156  0.2458 -0.1648  0.2075
14174W        W30068  14.291  14.742   2.579 -0.0025  0.1389  0.1438
14175W        W30069  16.777   6.021  14.564 -0.0804 -0.0030 -0.1703
14176W        W30070   8.914  14.233   0.377  0.1082  0.3544 -0.1547
14177W        W30071   3.511  13.994   6.055  0.1412  0.1585  0.1543
14178W        W30072  17.623  15.593  15.342  0.4344  0.0116  0.2391
14179W        W30073   1.186   2.638  16.117  0.0756  0.0307  0.1109
14180W        W30074   2.803   1.574  12.155  0.3610  0.1627  0.0882
14181W        W30075   6.220   5.702  14.870  0.2522  0.0687  0.4447
14182W        W30076   3.465   5.298  16.106 -0.0431 -0.1516  0.0104
14183W        W30077  14.093  13.622   6.064 -0.0348 -0.2632  0.0901
14184W        W30078   3.971  13.090   0.278  0.0243 -0.0371  0.0098
14185W        W30079   6.146   8.396  16.913  0.1134  0.3292 -0.3564
14186W        W30080  13.323  16.417   3.338  0.1890  0.1342  0.2550
14187W        W30081   9.668   0.064   3.774  0.0192  0.0667  0.1419
14188W        W30082   6.084   8.013   2.396  0.0923 -0.2062  0.3952
14189W        W30083   8.777   7.029   2.600  0.0861  0.0879 -0.3045
14190W        W30084   8.818  10.631  12.986 -0.2154 -0.2761 -0.1549
14191W        W30085   2.170   8.919  16.564  0.2426  0.0099  0.0604
14192W        W30086   1.471   5.675   5.477 -0.1423 -0.0374  0.2299
14193W        W30087   8.369   1.785   4.105 -0.2248 -0.0997 -0.1250
14194W        W30088   7.924   6.914  14.347 -0.2250  0.0336 -0.0051
14195W        W30089  17.061   7.615   0.975 -0.2486 -0.2273  0.2921
14196W        W30090  17.213  12.766  12.375 -0.1947  0.2574  0.1371
14197W        W30091   7.836  15.095  13.151  0.2978 -0.1035 -0.2520
14198W        W30092  11.260   2.167   3.979  0.1180  0.3008 -0.3163
14199W        W30093  11.393  17.604   2.661 -0.0224  0.3198  0.1233
14200W        W30094   8.795   4.672  13.472  0.3493 -0.1457 -0.1703
14201W        W30095  14.001   8.097   2.009 -0.4058 -0.2632 -0.0412
14202W        W30096   7.209  10.958  13.734 -0.2818 -0.1064 -0.2234
14203W        W30097   8.553   9.893   0.962 -0.1193 -0.1519 -0.0756
14204W        W30098   3.491   6.270   2.778  0.1354  0.2131  0.0323
14205W        W30099  13.947   6.891   0.020 -0.2128 -0.0541  0.1390
14206W        W30100   9.623   4.320  11.791  0.3080  0.1763 -0.1918
14207W        W30101   3.203  13.587   5.858 -0.1082  0.3038  0.1924
14208W        W30102   4.444  12.411  15.643 -0.0375 -0.1996 -0.0108
14209W        W30103  12.717  11.014  11.567  0.3256 -0.0887 -0.0118
14210W        W30104  11.720  11.690   5.007 -0.0595  0.0837  0.0350
14211W        W30105   5.025   3.986  16.540 -0.1928  0.1161  0.0249
14212W        W30106   7.864  15.394   2.314 -0.0537  0.2221 -0.0025
14213W        W30107  15.891  14.271  15.372  0.1278 -0.0331  0.0428
14214W        W30108  14.208  15.100   4.953  0.2601  0.3340  0.2822
14215W        W30109  10.394  16.479   0.602 -0.0770 -0.2097 -0.0703
14216W        W30110  15.671   0.525  16.952  0.0149  0.0599 -0.1275
14217W        W30111  16.155   1.863   5.535 -0.0657 -0.1080  0.0635
14218W        W30112   7.233  17.288  13.719 -0.1561 -0.2413 -0.1910
14219W        W30113  12.614  13.962   1.056 -0.2159 -0.3043  0.3206
14220W        W30114  12.938  13.316  13.684 -0.0283  0.1310 -0.1647
14221W        W30115   8.494   1.284   1.060 -0.0894  0.1252  0.1005
14222W        W30116  14.157  12.913  13.116  0.1114  0.1901 -0.0314
14223W        W30117   5.523  11.744  14.723 -0.3098 -0.0117 -0.3391
14224W        W30118   6.326   5.671  14.300  0.2172  0.1177  0.0256
14225W        W30119  14.249  16.220   0.098  0.2747 -0.1712 -0.1067
14226W        W30120   6.820   6.621   2.853  0.4295  0.0014  0.0064
14227W        W30121   8.083   2.521  17.015  0.1563 -0.1515  0.1609
14228W        W30122   9.720  10.571   1.953  0.1864 -0.0825  0.2109
14229W        W30123   2.773   9.651  16.527 -0.1031  0.0020 -0.2728
14230W        W30124   7.338   2.709   3.188  0.2809 -0.2051 -0.4043
14231W        W30125   9.986   0.470   1.954  0.0550  0.3809 -0.0133
14232W        W30126   6.333  16.983   5.019 -0.2156 -0.3404  0.1474
14233W        W30127  11.759  12.437  16.321 -0.0186 -0.0695  0.0240
14234W        W30128   1.072  13.346   1.537 -0.1613 -0.1700  0.2240
14235W        W30129  16.418  14.800  12.148  0.0128 -0.0219  0.0977
14236W        W30130   0.764   4.750   0.138 -0.2555  0.0292  0.0034
14237W        W30131   3.014   0.093  17.214 -0.0744 -0.2550  0.0725
14238W        W30132   1.407   6.369  15.374  0.1074 -0.1853 -0.0953
14239W        W30133  13.970  14.721   1.668 -0.1435 -0.2776 -0.1791
14240W        W30134   1.032   4.280   0.725 -0.1636  0.0146  0.2753
14241W        W30135   6.026   4.350   4.514 -0.1185  0.0961 -0.1625
14242W        W30136  14.997   3.987   4.761 -0.0787  0.0754  0.1033
14243W        W30137   0.695   3.797  16.037  0.2919 -0.2451 -0.0652
14244W        W30138   3.908   3.541   0.197  0.1510  0.1512  0.2663
14245W        W30139  14.221   6.201  16.650 -0.1816  0.3652 -0.1747
14246W        W30140  12.856  12.982  16.646 -0.3462  0.0308 -0.2098
14247W        W30141   4.086  16.615  13.610 -0.4065 -0.2009  0.1513
14248W        W30142   8.799   9.770   2.403 -0.0487 -0.2567 -0.4053
14249W        W30143  15.294   9.586  13.760 -0.0208 -0.0104  0.0449
14250W        W30144  16.374  15.269  13.260  0.0975 -0.0152 -0.0675
14251W        W30145  10.931  12.918  15.337  0.0380 -0.0443  0.0611
14252W        W30146   1.211   0.116  15.150  0.0378  0.1363 -0.0052
14253W        W30147  13.487   6.230   1.718  0.0942 -0.1335 -0.0175
14254W        W30148  17.338   8.000  13.276 -0.1433 -0.0048  0.1837
14255W        W30149  17.402  10.918   5.341  0.0931 -0.1142  0.1402
14256W        W30150   5.361   1.065   1.395 -0.3370 -0.2731 -0.0611
14257W        W30151   7.166   8.866  14.305  0.1215 -0.1299 -0.0548
14258W        W30152   6.712  17.318   5.279  0.0673  0.1052 -0.2748
14259W        W30153   6.909   8.409  14.154  0.0089  0.0910  0.0340
14260W        W30154   4.386   6.901   2.312  0.0145 -0.2975  0.1212
14261W        W30155  16.394   5.225  14.749 -0.1128 -0.1209  0.1332
14262W        W30156  17.354   1.039  16.698  0.1313  0.4112 -0.0165
14263W        W30157  10.310   6.449  13.100  0.1495 -0.1799  0.4420
14264W        W30158   4.812  17.497  14.820 -0.3370 -0.2541 -0.1863
14265W        W30159   9.336   7.433   0.067  0.2954 -0.0350 -0.1486
14266W        W30160   2.690   5.458  14.087  0.1813 -0.0594 -0.0016
14267W        W30161   3.852   9.107   0.202  0.5344  0.0746 -0.1141
14268W        W30162   5.115  14.505   1.494 -0.1350  0.0540  0.0374
14269W        W30163   3.137   8.760   1.891 -0.0396  0.0932  0.0025
14270W        W30164  13.104   9.327   3.894 -0.2810 -0.0804 -0.0029
14271W        W30165   6.832   1.942  17.016  0.0807 -0.0859 -0.0740
14272W        W30166   5.447   3.107   0.027 -0.1052  0.3814  0.1570
14273W        W30167  15.098  11.839  11.370  0.0177  0.0060 -0.2924
14274W        W30168  17.515   3.768  13.785  0.4559 -0.1942 -0.1969
14275W        W30169  11.554  11.682   0.556 -0.1398 -0.1353  0.2424
14276W        W30170  13.191   8.898   4.114 -0.1607 -0.0633  0.0588
14277W        W30171   3.793  15.362  12.626  0.0608 -0.0340  0.2344
14278W        W30172   9.156   2.562   3.392  0.0334 -0.1776  0.0159
14279W        W30173  13.704  14.238   5.987 -0.0170 -0.1394 -0.0055
14280W        W30174  14.502  17.393  14.259  0.1185  0.0950  0.5793
14281W        W30175  13.486  17.173   1.456 -0.1652 -0.1970  0.5293
14282W        W30176  17.585  11.978  15.939  0.0699 -0.1103 -0.1250
14283W        W30177   9.944   5.940  13.515 -0.1656  0.0714 -0.1327
14284W        W30178   7.086   0.201   6.914  0.1422  0.0532 -0.0620
14285W        W30179   6.204   6.539  14.728  0.0093 -0.2198 -0.2472
14286W        W30180   4.032   4.036   4.239  0.1057 -0.1195  0.4432
14287W        W30181   4.639  14.095   3.408 -0.4191  0.0844  0.1000
14288W        W30182  14.238   8.014   6.043  0.0935 -0.0546 -0.0447
14289W        W30183   5.128   4.333  14.927 -0.1629 -0.2164  0.0641
14290W        W30184   0.628   4.164   4.975  0.2218  0.2085  0.1970
14291W        W30185  13.865   8.713   5.601 -0.0687  0.0402 -0.3779
14292W        W30186   6.055  15.722  12.224 -0.0884  0.0862 -0.0227
14293W        W30187   1.459  15.062   6.036 -0.1651  0.0385  0.1212
14294W        W30188   3.642  13.518  12.148 -0.0216  0.0857 -0.0813
14295W        W30189  11.081  11.487  14.828 -0.3078  0.1574 -0.1814
14296W        W30190  10.057  14.518   1.167 -0.0694 -0.0129 -0.1620
14297W        W30191   6.683  12.401   0.894  0.1540 -0.1201 -0.2674
14298W        W30192  17.431   0.792  16.283 -0.0305  0.2183  0.0271
14299W        W30193   9.841  17.067  14.637 -0.0811 -0.0729 -0.1340
14300W        W30194  11.594   6.123  12.238  0.1382  0.1941  0.2915
14301W        W30195  14.321   9.116  11.749 -0.2444 -0.0582 -0.1682
14302W        W30196  12.142  10.353   0.081 -0.1211 -0.0924 -0.2496
14303W        W30197  17.376  10.125  16.511 -0.0306  0.2374  0.1120
14304W        W30198   2.604   1.472  14.763 -0.0973 -0.0059  0.2196
14305W        W30199   4.741  15.217  13.865 -0.1289 -0.0133 -0.0633
14306W        W30200   0.450  10.297  14.761 -0.0182  0.2656  0.0660
14307W        W30201   5.654   5.708  12.220  0.1910  0.0980 -0.2674
14308W        W30202  14.702   9.014  13.188  0.1984 -0.0499  0.2844
14309W        W30203   1.092   5.947  13.081  0.0125  0.2406 -0.0883
14310W        W30204   2.662   4.010  16.007  0.0275  0.1908  0.0204
14311W        W30205  15.835   6.142   4.491 -0.2607 -0.0472  0.1984
14312W        W30206  12.996   2.146  16.291  0.2892  0.1950 -0.1623
14313W        W30207   4.183   3.427  13.812  0.0448 -0.2415 -0.2148
14314W        W30208  10.424  11.529   0.312 -0.0379 -0.1883 -0.0721
14315W        W30209   5.512  15.494  16.144 -0.0216 -0.1148 -0.1486
14316W        W30210  12.933  15.137   2.378  0.0925  0.0697 -0.2037
14317W        W30211   2.244  15.060  13.630  0.0053  0.0449 -0.3265
14318W        W30212  12.793  14.302   0.221 -0.2036 -0.0752 -0.0621
14319W        W30213   8.110  15.384  13.940  0.0060 -0.0916 -0.0252
14320W        W30214  10.711   9.112   1.077  0.0082  0.0760  0.3908
14321W        W30215   8.714   9.673   3.132 -0.3150 -0.1246  0.2377
14322W        W30216  17.598   7.353   5.006 -0.1916 -0.2636  0.2103
14323W        W30217  15.667   2.488  12.332 -0.0362 -0.0314 -0.0888
14324W        W30218   4.805   8.454   4.561  0.1109  0.1414 -0.2461
14325W        W30219   4.281  10.236  13.653 -0.2756  0.1809 -0.4627
14326W        W30220  15.124   8.924   0.984 -0.0604 -0.0072  0.0144
14327W        W30221  17.035  12.037  14.553  0.0167 -0.0897  0.1713
14328W        W30222   6.835  10.338   1.846  0.1401 -0.1422 -0.2997
14329W        W30223   8.555  12.136  14.326  0.0173 -0.2413 -0.0153
14330W        W30224  16.108   2.880  14.804 -0.2639  0.0279 -0.1529
14331W        W30225  10.693   4.450  17.254  0.3490  0.1247  0.0716
14332W        W30226  17.554  14.963   0.780 -0.3428  0.1592  0.2144
14333W        W30227  12.672  10.844  12.251  0.0559  0.0098 -0.2496
14334W        W30228  14.279   1.470   0.748 -0.0487  0.2307 -0.0444
14335W        W30229  16.968   4.424   5.449  0.0802 -0.1583  0.1039
14336W        W30230  14.035  13.657  16.336  0.1351 -0.2601 -0.0095
14337W        W30231  17.156   4.380  15.573 -0.1446 -0.0517  0.0577
14338W        W30232  13.076   6.560   2.513 -0.0097 -0.0004 -0.3133
14339W        W30233   3.148   8.463   6.214 -0.0519 -0.3043  0.0428
14340W        W30234   6.156   9.711  16.507 -0.1179  0.0445 -0.1822
14341W        W30235   9.582  16.573  15.604 -0.1419 -0.1220 -0.1188
14342W        W30236  13.286   6.673  13.518 -0.0510  0.0051  0.0424
14343W        W30237  11.288  15.048  13.248 -0.1097 -0.1173 -0.0290
14344W        W30238   7.302   8.442   5.389  0.0783 -0.0682 -0.2129
14345W        W30239  13.472  16.727  14.739  0.2428  0.0199  0.2874
14346W        W30240   2.984  10.440  14.934 -0.0528 -0.1911 -0.1035
14347W        W30241   0.735   2.628  16.999  0.0943 -0.3049  0.0104
14348W        W30242   7.915  11.275   1.417 -0.0811 -0.1072 -0.0914
14349W        W30243   2.979   4.915  12.748  0.0418 -0.2254  0.0065
14350W        W30244   5.719   9.795   1.112 -0.4159 -0.1388 -0.1325
14351W        W30245   2.229  11.807   1.009 -0.0210 -0.1213  0.2394
14352W        W30246   1.188  12.422  12.421 -0.0694 -0.2316  0.2821
14353W        W30247  11.696  12.081  11.834 -0.0145 -0.2729  0.2183
14354W        W30248  16.261  17.493   3.978 -0.1504 -0.3703 -0.1064
14355W        W30249  13.114   6.971   5.197  0.0699 -0.2103  0.1850
14356W        W30250   0.321   4.455   0.056 -0.0562  0.0509  0.0898
14357W        W30251   6.032   3.611   1.208 -0.2012  0.1615 -0.0855
14358W        W30252  11.599   2.255  11.912  0.2248 -0.1096  0.3358
14359W        W30253  17.395  11.189   1.646 -0.2057  0.0077 -0.0498
14360W        W30254   9.455  10.336  14.729  0.1210 -0.1648  0.0938
14361W        W30255  12.937   1.720   0.480  0.3598  0.0215 -0.0620
14362W        W30256  14.219  11.976  15.906  0.0170 -0.2094 -0.1886
14363W        W30257   4.993  16.341   4.046  0.0351  0.1259 -0.0152
14364W        W30258   7.210  16.425  14.877 -0.0442 -0.1554 -0.0906
14365W        W30259   2.830   8.541  12.350  0.2748 -0.1873 -0.0941
14366W        W30260   5.333   9.917  16.277  0.0910 -0.1171 -0.0978
14367W        W30261   7.054  16.581  12.625  0.1183 -0.0947  0.3767
14368W        W30262   7.535  14.231  16.628 -0.2136 -0.2713 -0.0907
14369W        W30263  17.166  12.251  12.443 -0.2548  0.2640 -0.0778
14370W        W30264   8.146   8.003  14.817  0.1733 -0.0965 -0.0429
14371W        W30265  15.939   2.765   0.490 -0.0252  0.3293 -0.0302
14372W        W30266   1.008   9.254   0.493  0.0739 -0.0663  0.0925
14373W        W30267  12.524  15.689  13.973 -0.1268 -0.3485 -0.1023
14374W        W30268   7.194  10.756  16.498  0.0211  0.3206  0.0783
14375W        W30269   8.286  10.942   0.733 -0.0992 -0.0625  0.0988
14376W        W30270  14.819   9.389  13.934 -0.2395 -0.0380  0.0814
14377W        W30271   6.377   1.411  14.882 -0.1840 -0.1834  0.0042
14378W        W30272  16.963  16.725   5.615  0.3715 -0.1610  0.0524
14379W        W30273   6.362   9.801  16.088  0.0173 -0.0960 -0.0297
14380W        W30274  11.391  11.859  16.361 -0.2539 -0.0252  0.1516
14381W        W30275   3.743  16.717  15.282  0.2874  0.0485 -0.1154
14382W        W30276  10.684  12.309  16.042  0.1615  0.4173  0.2122
14383W        W30277   1.852   9.288   1.129 -0.1846  0.2499 -0.0672
14384W        W30278   5.901  11.299   4.926 -0.0770 -0.1361 -0.0304
14385W        W30279  10.350  15.224  11.574  0.0184  0.1916 -0.1091
14386W        W30280  13.555  14.988   1.730  0.0252 -0.2724 -0.1005
14387W        W30281   4.648  17.091  14.457  0.2368 -0.0234  0.2149
14388W        W30282   8.138  15.216   5.427 -0.0668 -0.2840 -0.1069
14389W        W30283  10.686  16.715  13.625  0.2396  0.2351 -0.3913
14390W        W30284   7.641   3.555  13.836 -0.1859  0.0193  0.0975
14391W        W30285   8.722   6.616  15.948  0.0436  0.1151 -0.0509
14392W        W30286  11.886   1.358   3.395  0.0027  0.2149 -0.0920
14393W        W30287   1.337  14.755   2.470 -0.0659  0.1355  0.2597
14394W        W30288   8.218  12.498  13.828  0.4800  0.0143 -0.2800
14395W        W30289   2.391  12.160   1.935 -0.1127  0.2084 -0.1204
14396W        W30290   5.010  10.039   5.848 -0.0813  0.3541 -0.1960
14397W        W30291  10.762   2.838   0.850 -0.0581 -0.2575  0.3633
14398W        W30292   5.693   6.976   2.366 -0.1493 -0.0679 -0.1381
14399W        W30293   0.552   7.272  14.199  0.0259  0.0484 -0.4479
14400W        W30294   8.854   6.760  13.181 -0.1313  0.0245 -0.0331
14401W        W30295   6.705   2.121  13.610  0.2710 -0.1674  0.0505
14402W        W30296   0.373  16.858  16.685  0.1071 -0.0981 -0.0792
14403W        W30297   1.809   5.513   0.677  0.4738 -0.0759 -0.0832
14404W        W30298   5.354   9.196   1.275  0.1224 -0.0525 -0.1006
14405W        W30299  15.079  16.610  13.980  0.0531  0.0403 -0.2136
14406W        W30300   0.823  11.157  16.863  0.0429  0.2316  0.0592
14407W        W30301   4.815  11.535  16.550  0.0169  0.1427 -0.1977
14408W        W30302  12.226   0.790   5.058  0.0246 -0.0999  0.0997
14409W        W30303  10.271  13.915  15.165  0.1525  0.0413  0.0047
14410W        W30304   7.256   3.227   0.017  0.0593 -0.0742 -0.1768
14411W        W30305  13.303   2.387  16.776 -0.0579  0.2886  0.2462
14412W        W30306  10.235  16.558  13.445 -0.1317  0.0452  0.2889
14413W        W30307   9.321  15.338  14.593 -0.1387  0.1531 -0.1547
14414W        W30308   1.311  10.711   2.209 -0.2506 -0.0010  0.2327
14415W        W30309  15.680  16.596  13.346 -0.1417  0.0975 -0.0112
14416W        W30310  10.246   0.953  12.219  0.2115  0.0766 -0.0908
14417W        W30311   2.204  14.481   2.941  0.0648  0.2247  0.1340
14418W        W30312   0.250   7.214   2.990  0.1794 -0.1443 -0.1834
14419W        W30313   2.097  16.843  16.661  0.0930  0.2507  0.2387
14420W        W30314   4.503  13.236  16.469  0.2684  0.3080 -0.1673
14421W        W30315   8.640   1.646  15.632  0.1401  0.0674 -0.1230
14422W        W30316   9.528  10.783  15.088  0.1803  0.0886  0.1477
14423W        W30317  12.016  12.040  15.610 -0.0132  0.0938 -0.0873
14424W        W30318  17.417   4.281   4.780 -0.1079  0.2011  0.0299
14425W        W30319   7.838  13.837   4.095 -0.1532  0.0808 -0.1878
14426W        W30320  10.277  12.976  14.160  0.0973 -0.1152 -0.0325
14427W        W30321   9.167  16.973  15.576 -0.0585 -0.0712  0.1247
14428W        W30322   0.681   1.039  16.277 -0.3374 -0.0345  0.0128
14429W        W30323   6.641  17.187  17.201 -0.1561 -0.1520  0.2324
14430W        W30324   3.294   8.646   4.884 -0.1966 -0.0473 -0.1565
14431W        W30325   0.068  16.644  12.623 -0.0673  0.4834  0.0774
14432W        W30326   1.052  17.499  12.286  0.0285 -0.0094  0.1168
14433W        W30327   9.068   7.887  17.076 -0.0064  0.2183  0.1272
14434W        W30328   8.782  17.391   1.789 -0.1662 -0.0867 -0.0011
14435W        W30329   5.613   7.487  13.277 -0.0872 -0.1897  0.0728
14436W        W30330   1.583   4.776   1.895 -0.1212 -0.1147 -0.1887
14437W        W30331   9.263   6.613  11.799  0.1811  0.2266  0.0799
14438W        W30332  14.604   3.585  11.818 -0.1383  0.0801 -0.2130
14439W        W30333  16.248   8.771  15.614  0.1524 -0.3148  0.2084
14440W        W30334   3.055   6.284   3.886  0.0801 -0.1869  0.0713
14441W        W30335   2.559   2.632  16.058 -0.4416 -0.1100  0.1102
14442W        W30336   0.023   3.277   2.058  0.0257  0.0575  0.2622
14443W        W30337   4.293  10.706  12.695 -0.0585  0.0674  0.0949
14444W        W30338  15.915   9.359  15.799  0.1182  0.0438  0.0972
14445W        W30339   9.024   4.805   2.298  0.0602 -0.1083 -0.0328
14446W        W30340   7.528   3.227  14.180  0.1072 -0.0882  0.0396
14447W        W30341   0.533   6.305   1.463  0.0754 -0.0074 -0.0191
14448W        W30342   5.303  10.616   1.858  0.2235 -0.0300 -0.2463
14449W        W30343  11.006  15.850   0.372  0.0270  0.3042 -0.3102
14450W        W30344   3.275   8.844   5.427  0.1259  0.2421 -0.0819
14451W        W30345   2.799   7.862   6.555  0.3824 -0.0467 -0.0464
14452W        W30346  13.973  16.424   4.221 -0.0430 -0.0660  0.2638
14453W        W30347  12.992   4.511   3.492 -0.0050 -0.2659 -0.0120
14454W        W30348   5.558   9.628   6.351  0.1271 -0.0154 -0.2968
14455W        W30349  16.758   6.145  11.841  0.1926 -0.2046 -0.0732
14456W        W30350   8.760  16.280   2.591  0.1647 -0.3964 -0.1032
14457W        W30351   1.492  16.851  12.637  0.0730 -0.0679  0.0024
14458W        W30352   5.239   5.756   5.078  0.0790 -0.0375 -0.1099
14459W        W30353  11.138  15.486  14.659  0.1515 -0.3727 -0.1935
14460W        W30354  16.555  11.525  17.190  0.1345 -0.0230  0.3083
14461W        W30355  15.020   5.501   5.699  0.1571 -0.3685  0.2204
14462W        W30356  15.454   3.784   1.006  0.5117  0.0766 -0.1058
14463W        W30357   8.002  10.499   2.914 -0.0002  0.0052  0.0050
14464W        W30358   4.974  11.106   2.646  0.0015  0.1345 -0.4532
14465W        W30359   7.735   8.367  14.712 -0.0593  0.2099  0.0748
14466W        W30360  14.198   1.957   4.936  0.0439  0.0805  0.2087
14467W        W30361   5.828  11.007   3.230  0.0529  0.1618  0.2300
14468W        W30362   2.310   8.650  14.919 -0.0338 -0.1053  0.2352
14469W        W30363   8.409  12.984  12.695  0.2702  0.1416  0.2306
14470W        W30364   2.101   3.173  13.802  0.2954  0.0672  0.1372
14471W        W30365   3.593   0.461  11.992 -0.0327  0.0136 -0.1614
14472W        W30366  10.890  16.597  17.195 -0.3066  0.4413  0.0401
14473W        W30367  15.898   1.404  14.707  0.0150 -0.1381  0.1126
14474W        W30368  16.603   6.622   1.060  0.0325  0.0967  0.3489
14475W        W30369   5.368  15.085  13.355 -0.4318 -0.1649 -0.2385
14476W        W30370   0.184   9.995  14.481 -0.1747 -0.0506  0.2327
14477W        W30371   1.890  11.736   5.661  0.3774  0.0133 -0.1936
14478W        W30372   6.084   4.936   3.713 -0.0085 -0.4383 -0.1495
14479W        W30373  14.260   5.917   0.971  0.3869  0.0935 -0.3599
14480W        W30374   6.605   0.005   0.750  0.2160  0.0656  0.1837
14481W        W30375  15.303   9.345   1.720  0.1059 -0.1113 -0.0412
14482W        W30376  12.077   6.764  14.674 -0.1063  0.0343  0.0492
14483W        W30377  16.588  13.279   1.087 -0.1505  0.1993  0.0745
14484W        W30378  17.574  10.603  16.614 -0.3865 -0.2535 -0.1660
14485W        W30379   7.320  11.186   1.225 -0.0809 -0.0754  0.0311
14486W        W30380  13.570   7.989   0.638  0.1765  0.1363  0.1990
14487W        W30381  12.954   5.764   3.190  0.0542 -0.3026 -0.1892
14488W        W30382   9.443  11.290  14.978  0.0806 -0.0841 -0.1561
14489W        W30383   2.657   2.500  12.506  0.0121  0.0312 -0.0397
14490W        W30384  17.297   3.134   3.431  0.5328 -0.0401  0.1521
14491W        W30385   6.691  16.063  16.588  0.0285  0.1591 -0.1958
14492W        W30386   1.040   0.319  14.075 -0.1359 -0.2696  0.0727
14493W        W30387   4.802   6.129   2.256  0.2669 -0.1864 -0.5516
14494W        W30388   9.185  14.182   0.891  0.1607  0.0429 -0.1798
14495W        W30389   1.395   2.558   5.111 -0.0606  0.0449  0.3170
14496W        W30390   1.959   4.141   4.292 -0.0990 -0.0508  0.1924
14497W        W30391  11.591  15.051   2.682 -0.1746  0.1691  0.0240
14498W        W30392   2.992  16.097   0.528  0.0063  0.2269  0.0060
14499W        W30393  13.720   6.675  16.508 -0.2153 -0.1744  0.0968
14500W        W30394   5.357  12.400   0.400  0.0264 -0.1229  0.2574
14501W        W30395  10.324   4.011   4.834  0.2755 -0.0221  0.0851
14502W        W30396   6.313   1.922  13.268  0.1573 -0.0336 -0.0150
14503W        W30397   9.580  17.490  14.503 -0.4108 -0.3549  0.3324
14504W        W30398  16.472  13.236   3.246 -0.0231  0.1497  0.2295
14505W        W30399   8.071  16.820  13.545 -0.0827 -0.1020 -0.1743
14506W        W30400   1.633   5.689   0.207 -0.0162 -0.0187  0.0351
14507W        W30401   6.317  14.076   3.990  0.0532  0.0901  0.1491
14508W        W30402  11.269   9.042  11.844  0.1817  0.0423  0.0472
14509W        W30403   9.628  17.386   1.128  0.1561 -0.2079  0.0616
14510W        W30404   3.616  13.374   5.487 -0.2529 -0.1298 -0.1635
14511W        W30405   3.975   2.315  15.964 -0.1742 -0.1075 -0.1592
14512W        W30406  10.378   9.146  12.031 -0.0296  0.0032 -0.0687
14513W        W30407   9.688   4.708  12.092  0.0668 -0.1632 -0.0250
14514W        W30408   7.770   6.311  12.519 -0.0143  0.1620  0.0989
14515W        W30409  13.800   0.681  16.226 -0.0175  0.2081 -0.2200
14516W        W30410  10.366   1.424   3.060 -0.1192 -0.0647  0.1485
14517W        W30411   0.590  13.207   5.213  0.2100  0.3820  0.1628
14518W        W30412   2.290   9.223   0.122  0.4132 -0.3634  0.0952
14519W        W30413   7.833   6.175   1.137  0.0013  0.4071 -0.0216
14520W        W30414   1.919   4.035   0.777 -0.0128  0.0627 -0.1526
14521W        W30415  17.463   0.688   5.273 -0.1648 -0.1654  0.0514
14522W        W30416  16.512   5.438  12.405 -0.0922  0.2686  0.0717
14523W        W30417   2.780   5.654   4.717  0.2942  0.0035 -0.0514
14524W        W30418   1.261   0.388   1.190 -0.1284 -0.3163 -0.1139
14525W        W30419   2.096   2.127   1.808 -0.2677 -0.0724 -0.0358
14526W        W30420   0.983   2.031  15.600  0.1733  0.0510 -0.1097
14527W        W30421  13.667  17.243  12.558  0.3021 -0.2372 -0.3809
14528W        W30422   2.198  13.137   2.096  0.2423 -0.4780  0.3237
14529W        W30423   3.891   5.024   2.171 -0.0475 -0.0923  0.0410
14530W        W30424  16.762  13.607  13.942  0.0421  0.1414 -0.1396
14531W        W30425   3.463  15.352  16.538  0.4237 -0.0779 -0.1937
14532W        W30426   0.087   4.711   4.890 -0.1376 -0.1930  0.1065
14533W        W30427   9.717   4.070  12.850  0.1758 -0.2075  0.0908
14534W        W30428   1.367  15.889   4.557  0.3391  0.1577  0.2020
14535W        W30429   4.030   6.131  13.106  0.3423  0.2028 -0.0596
14536W        W30430   2.231   6.132   1.753  0.2095 -0.2438  0.1409
14537W        W30431  17.062  14.248  16.790  0.0074 -0.0440  0.1318
14538W        W30432  13.592   1.528   0.139 -0.0665 -0.1249  0.0858
14539W        W30433   9.678  16.909   1.719 -0.1150  0.2328  0.4515
14540W        W30434  15.097  15.979   6.472 -0.0843  0.0408  0.2780
14541W        W30435   4.295  10.283  15.913  0.1140 -0.1792 -0.2378
14542W        W30436   9.630  16.881  15.202 -0.0554 -0.2801  0.2357
14543W        W30437   8.528   4.959   2.230  0.1209  0.2268  0.3503
14544W        W30438  13.047   9.382  15.372 -0.2684  0.2291 -0.1075
14545W        W30439   4.266  11.417  12.258 -0.0327 -0.0828 -0.2105
14546W        W30440  12.139   3.150   1.108  0.1561 -0.0796  0.4008
14547W        W30441   3.836  14.000   0.176  0.2771 -0.1571  0.0397
14548W        W30442   0.520   6.492  15.883  0.3876 -0.1085  0.0227
14549W        W30443   0.792   7.641   0.646 -0.1878  0.0473  0.0235
14550W        W30444  12.697  17.203  12.233  0.0840  0.0891  0.1302
14551W        W30445  15.807   3.854   3.327 -0.0286  0.1412 -0.1202
14552W        W30446  15.951  16.134  13.324  0.1031 -0.0744 -0.2045
14553W        W30447   2.873  10.694   5.027 -0.0710  0.1816 -0.0312
14554W        W30448  15.000  17.572  14.484  0.0325 -0.1717  0.3089
14555W        W30449   0.226  10.543  15.752 -0.0740  0.1363 -0.1412
14556W        W30450   9.049  10.419  15.069 -0.0140  0.0403 -0.1874
14557W        W30451   4.449   6.612   5.014 -0.0175 -0.0169  0.1028
14558W        W30452   4.076  12.320  13.606  0.0889  0.0452  0.1943
14559W        W30453  12.381   3.685   4.135 -0.4119  0.0114  0.1389
14560W        W30454  13.233  13.577  11.450  0.0374  0.2566  0.0651
14561W        W30455  13.219   8.324  15.151  0.0132  0.3711  0.0070
14562W        W30456  12.101  12.146  12.575  0.2136  0.0227 -0.1414
14563W        W30457   6.030   4.503  13.896 -0.0024 -0.1805 -0.1040
14564W        W30458  16.083   3.079   1.435 -0.1912  0.2607 -0.1447
14565W        W30459   9.050  10.328   5.203 -0.1056  0.0124 -0.4313
14566W        W30460   5.109  16.593   3.132  0.0411 -0.0503  0.4180
14567W        W30461  10.613  10.386   1.810 -0.1853  0.1481  0.1288
14568W        W30462   2.483  13.618   2.021  0.0054 -0.0195 -0.0180
14569W        W30463  16.466   4.527  14.615 -0.0108 -0.0273 -0.1060
14570W        W30464   6.869  13.253  15.967 -0.0469  0.0382  0.2605
14571W        W30465   6.972   2.372  13.112 -0.0369 -0.1352 -0.3889
14572W        W30466  16.879   0.192   1.649 -0.0413 -0.0284  0.1471
14573W        W30467   5.810  16.697   2.187 -0.0785  0.0233 -0.2782
14574W        W30468   4.142  14.100   3.656  0.1395 -0.1324  0.1094
14575W        W30469   9.162   9.304  11.296  0.2345  0.0716 -0.0823
14576W        W30470   5.652   2.547  14.359 -0.1075  0.1115  0.0214
14577W        W30471  14.704   4.981  12.833  0.1737  0.2075  0.0366
14578W        W30472  16.845  10.550   1.525 -0.1853 -0.0309 -0.0738
14579W        W30473   5.047  11.927  14.931  0.1431 -0.0020  0.0462
14580W        W30474   6.035  15.611  13.941  0.0048  0.0698  0.2253
14581W        W30475  12.138  15.088  15.545 -0.0253 -0.1083 -0.0243
14582W        W30476  13.623  13.506  13.669 -0.0666  0.0333  0.1205
14583W        W30477  12.277   6.213  13.777 -0.1721  0.1340  0.2735
14584W        W30478  17.489   5.579   5.028 -0.1730  0.2529 -0.2518
14585W        W30479   7.452  16.729   0.373 -0.0381 -0.0168  0.1073
14586W        W30480  16.119   5.650  14.582  0.1231  0.0058 -0.0731
14587W        W30481   2.414  10.317   2.256  0.0125 -0.1204  0.1456
14588W        W30482   2.151  13.723   4.771 -0.1217 -0.0314 -0.0432
14589W        W30483  10.884  16.829   3.175 -0.3732 -0.0858 -0.3721
14590W        W30484  12.208  11.884  16.045  0.1868  0.2105  0.2036
14591W        W30485   8.624  14.893  17.167  0.0926 -0.0381 -0.1625
14592W        W30486   3.890  14.967  15.386 -0.1713  0.0988 -0.0258
14593W        W30487   8.777  13.242  15.882 -0.0991 -0.1072 -0.0063
14594W        W30488   7.778   4.664  13.379  0.0252  0.3456  0.1464
14595W        W30489  14.427   1.636  14.961  0.0310  0.0178  0.3182
14596W        W30490   0.733  13.949  13.376  0.1980  0.2267 -0.0721
14597W        W30491  17.258   3.377  12.773  0.1107 -0.0113 -0.0881
14598W        W30492   8.723   3.466  14.264 -0.1694 -0.4107  0.1103
14599W        W30493   6.789  11.984   2.309  0.1942  0.1096 -0.3195
14600W        W30494   6.640   9.870   3.945 -0.0446  0.5575 -0.1189
14601W        W30495   1.954  12.445  16.369 -0.0850  0.6973  0.0946
14602W        W30496   8.949  13.241   0.911  0.4538 -0.0902 -0.1355
14603W        W30497  10.456   9.795  16.818 -0.4247  0.0285  0.0228
14604W        W30498   4.608   3.252  17.032  0.0478  0.0977  0.3294
14605W        W30499  15.070  15.988  15.032  0.2366 -0.0570 -0.0655
14606W        W30500   2.897  15.377  15.781  0.1376 -0.0149 -0.1148
14607W        W30501   5.997   5.977  14.484 -0.0671  0.0828 -0.4635
14608W        W30502   2.598  14.186   2.724 -0.0194  0.3190 -0.2091
14609W        W30503   6.069   3.944   0.386  0.0134  0.5013 -0.1051
14610W        W30504  14.733   6.253   4.245  0.3666  0.3187  0.0096
14611W        W30505  15.982  10.251  13.776  0.1559  0.2314  0.0350
14612W        W30506   5.316  11.089   3.188 -0.0632 -0.1395 -0.1468
14613W        W30507   3.368   0.744   5.975 -0.0476 -0.2741 -0.2365
14614W        W30508  13.506   9.761   2.253 -0.1893 -0.2111  0.0418
14615W        W30509  16.385  12.667   3.970 -0.1522 -0.0450 -0.1796
14616W        W30510  16.010   1.754  14.395 -0.2723 -0.1463 -0.2436
14617W        W30511  13.567  11.459  15.228  0.1108  0.0334  0.2913
14618W        W30512   8.816   1.525   5.317  0.2516 -0.3108 -0.0939
14619W        W30513   5.010   6.718  15.619  0.0418  0.0644 -0.0226
14620W        W30514  11.775   8.449   0.397  0.1213  0.1118  0.0109
14621W        W30515   7.572   8.953  11.678  0.1823 -0.1764  0.1336
14622W        W30516   1.007   0.098  12.777  0.1694  0.0299 -0.2873
14623W        W30517   2.430  13.466   3.810 -0.0139  0.1743  0.0924
14624W        W30518   6.025  17.038   3.071 -0.0271  0.0387  0.4239
14625W        W30519   4.327  13.615   3.616  0.0027 -0.1665  0.1093
14626W        W30520  17.013  10.717   6.459 -0.3529  0.0453 -0.1552
14627W        W30521   7.642   8.310  13.427  0.1212 -0.1473 -0.0241
14628W        W30522  14.993  10.074  12.116 -0.0445 -0.1526 -0.0865
14629W        W30523  13.770   0.125   5.271  0.1958 -0.0123 -0.1696
14630W        W30524   3.321  15.877  16.570 -0.1630  0.1760  0.0300
14631W        W30525  16.980   8.390   2.808  0.0784  0.2220  0.0794
14632W        W30526   7.094   4.736  12.831  0.0761 -0.1116  0.0295
14633W        W30527   1.904  12.481   3.159 -0.1072 -0.0711 -0.1068
14634W        W30528   5.999   9.765   2.601  0.1840 -0.4787  0.1060
14635W        W30529  10.741  16.491   2.202 -0.2889  0.0198 -0.0958
14636W        W30530  10.101   7.153   3.816 -0.0141 -0.0544 -0.0733
14637W        W30531   2.414   3.026  14.843 -0.3226 -0.0047 -0.1204
14638W        W30532   1.556   2.662  15.364 -0.0580 -0.1803 -0.2569
14639W        W30533  10.550   7.193  11.965  0.0150 -0.0793  0.0862
14640W        W30534   2.770   7.568  14.789 -0.3275 -0.0562  0.2511
14641W        W30535   2.244   4.699  13.659 -0.0442 -0.1178  0.0476
14642W        W30536  17.562  14.733  14.908  0.3108 -0.0894 -0.0630
14643W        W30537  10.799   8.998   1.995  0.0891  0.3839 -0.1266
14644W        W30538  17.386  13.923  12.385 -0.0595 -0.1451 -0.2957
14645W        W30539  16.806  15.232   0.161  0.3870  0.0967 -0.0775
14646W        W30540   1.233   4.259  16.201 -0.0995 -0.1300  0.0727
14647W        W30541   8.147   7.063   1.567  0.4498 -0.1341  0.3752
14648W        W30542  12.827  16.915  17.226 -0.1108 -0.0435 -0.3288
14649W        W30543   8.019   3.062  14.989 -0.0411 -0.2554  0.2294
14650W        W30544   8.033   5.369  15.610 -0.1957 -0.0550 -0.3768
14651W        W30545   2.316  14.862   5.947 -0.0150 -0.2834 -0.2085
14652W        W30546   5.703  11.127  13.994 -0.0246  0.0799  0.3629
14653W        W30547  13.010   3.860  11.850  0.3054  0.1902  0.0627
14654W        W30548  15.646   9.382   2.942 -0.3171  0.1094  0.1041
14655W        W30549   8.258   1.337   4.827  0.0158  0.0887  0.1920
14656W        W30550  17.358   5.247  16.219 -0.1878 -0.2451  0.0613
14657W        W30551  13.281   8.674   1.561  0.1281  0.1871  0.0009
14658W        W30552   0.035  10.305   3.531  0.1463 -0.2859  0.1633
14659W        W30553   4.907   2.745  12.079  0.1863  0.1287 -0.4321
14660W        W30554   0.288   5.509   5.328  0.2390 -0.0765 -0.0233
14661W        W30555   5.588  16.123  12.233  0.0920  0.1216  0.0474
14662W        W30556   0.227   2.773  14.710 -0.0742 -0.1446  0.0585
14663W        W30557   5.846   2.410   5.481 -0.1803  0.1415  0.0790
14664W        W30558   3.130  15.951   4.295  0.2391 -0.3471  0.1863
14665W        W30559   7.856  16.301  15.559  0.2442 -0.3558 -0.0836
14666W        W30560  14.593   1.644   4.853 -0.3675 -0.0044 -0.0815
14667W        W30561   1.895   8.647  13.951 -0.2042 -0.0508  0.1278
14668W        W30562  16.488   5.010  12.702 -0.0451 -0.1106  0.2970
14669W        W30563   3.876   9.854  15.262  0.0913 -0.1059 -0.2239
14670W        W30564   7.658   5.521  12.971 -0.1900  0.2385  0.1744
14671W        W30565   5.076  10.389   4.557 -0.2127 -0.1136 -0.3569
14672W        W30566   8.853  11.902   3.281  0.2626 -0.1027  0.1209
14673W        W30567   1.689   9.785   4.604 -0.1205  0.1388  0.0762
14674W        W30568  14.840   4.071   5.962 -0.1475 -0.0381 -0.0697
14675W        W30569   3.650  10.794   0.186  0.0056 -0.4851  0.0746
14676W        W30570   3.913  15.103   4.515 -0.0678  0.0030  0.0173
14677W        W30571  10.118   1.791   3.965 -0.0039  0.0534  0.2651
14678W        W30572  10.118   1.329   0.704  0.0137  0.0703 -0.1118
14679W        W30573  17.005  15.009   5.202 -0.1862  0.0334 -0.2378
14680W        W30574   3.246   8.763  14.781  0.0370 -0.1078  0.3367
14681W        W30575  15.656   6.893   3.886  0.0717  0.1772  0.1651
14682W        W30576   7.797  14.052  13.328 -0.0189  0.1810  0.1333
14683W        W30577  12.615  13.254  14.110  0.2261 -0.2210 -0.1893
14684W        W30578   1.756  14.355  16.293 -0.1399  0.0881  0.0541
14685W        W30579   7.341   7.943   0.350 -0.0003  0.0607 -0.2395
14686W        W30580  10.467   8.163  16.707 -0.3471 -0.0414  0.0185
14687W        W30581  11.436  13.097  16.877 -0.2101  0.3484 -0.3784
14688W        W30582   7.983   7.604  14.503 -0.3869  0.0964  0.1131
14689W        W30583  14.354   0.178   5.143  0.0188 -0.1895 -0.1275
14690W        W30584   6.282   7.734  11.851 -0.1289 -0.0423 -0.0014
14691W        W30585   5.035   9.044  12.543  0.0398  0.1688  0.1653
14692W        W30586   7.543   9.638   4.313 -0.0893 -0.0909  0.0938
14693W        W30587   6.004   1.494   2.565  0.0861 -0.0027 -0.2591
14694W        W30588   7.763   0.063   5.357  0.3653 -0.1380  0.1131
14695W        W30589   3.029   2.764   1.454  0.0448 -0.2947 -0.0564
14696W        W30590  10.466   0.296   3.691  0.2905  0.1145 -0.0030
14697W        W30591   7.505   1.514  16.665  0.0038 -0.3786 -0.0374
14698W        W30592   2.325  13.084   1.285  0.0716  0.0972 -0.0916
14699W        W30593  10.588  11.080   4.956 -0.3360  0.0660 -0.1323
14700W        W30594   4.995  16.794   5.766 -0.1230 -0.0908  0.2678
14701W        W30595   6.787  16.866   5.400  0.1167 -0.1627 -0.1610
14702W        W30596   6.794  10.154   3.338  0.1848  0.0667  0.4982
14703W        W30597  16.876  11.373  12.449  0.1643  0.0503 -0.1571
14704W        W30598   5.737  15.396  13.600  0.0446 -0.0886 -0.0405
14705W        W30599   9.677  12.349  16.301 -0.3989  0.2820 -0.0125
14706W        W30600  15.505   3.238   4.614 -0.0617 -0.0900  0.0237
14707W        W30601   0.578  13.563  16.658 -0.0671  0.0523  0.2596
14708W        W30602  10.657   5.015   2.459 -0.1308 -0.0648 -0.1790
14709W        W30603  14.401   7.569  15.758  0.0207  0.1383  0.0410
14710W        W30604   3.248  13.571  16.366 -0.0339 -0.1072  0.0789
14711W        W30605   6.520   4.394   1.987 -0.2002  0.3684 -0.1025
14712W        W30606   5.421   2.221  14.713  0.1000 -0.0636 -0.3114
14713W        W30607  14.178  13.963   1.239 -0.2020 -0.3555  0.0824
14714W        W30608  17.365   1.888   5.424 -0.1929  0.1238 -0.0440
14715W        W30609   7.291   2.154  16.182 -0.2357  0.2549 -0.0343
14716W        W30610   9.647   4.597  13.075 -0.0146  0.0769  0.0050
14717W        W30611  16.291   1.621   0.556 -0.2390 -0.0971  0.1458
14718W        W30612  10.067   9.351  16.978 -0.0640 -0.2987 -0.1494
14719W        W30613   9.076  11.452   3.415  0.0925 -0.0396  0.1116
14720W        W30614   8.367   8.025   0.463  0.5265  0.0960 -0.2789
14721W        W30615   8.492  14.021  15.353 -0.1732  0.2832  0.1215
14722W        W30616  13.347   8.346  13.505  0.0120  0.1057  0.0055
14723W        W30617   2.701   4.437  13.653 -0.3242 -0.0307 -0.1869
14724W        W30618  12.674   9.735  15.503  0.1744 -0.0832 -0.0572
14725W        W30619   2.584   4.290   1.367  0.0884 -0.0829  0.1145
14726W        W30620   4.450   6.883   0.789  0.0391  0.1046  0.2207
14727W        W30621  16.972  17.307   1.465  0.1273  0.0113 -0.0036
14728W        W30622  10.811  15.281  15.544 -0.1218  0.1159  0.0459
14729W        W30623  15.529   9.812   3.225  0.2076  0.1924 -0.2146
14730W        W30624  12.462  14.105   5.285  0.0068  0.1421  0.5250
14731W        W30625   9.025   2.973   5.366 -0.0285 -0.1941 -0.1475
14732W        W30626  11.950   8.722   4.900 -0.3462  0.0261 -0.4115
14733W        W30627   6.523   0.743   5.004 -0.1620  0.1823  0.0139
14734W        W30628  15.654  13.256   4.998  0.0377  0.1230 -0.1466
14735W        W30629   5.707   8.751  15.459  0.0888 -0.0017 -0.0029
14736W        W30630  15.168   1.570  17.169 -0.3028  0.3399  0.2532
14737W        W30631   9.157   2.090   5.533 -0.0869  0.1356 -0.1124
14738W        W30632   5.061   7.385   2.931 -0.1709 -0.0290  0.0744
14739W        W30633  13.547   3.744  16.588 -0.1778 -0.1359  0.0475
14740W        W30634   2.364  14.919  14.127  0.2174 -0.2986 -0.5864
14741W        W30635   1.498   1.657   5.327 -0.1361 -0.0990  0.0199
14742W        W30636  15.534  12.781  11.869 -0.0834 -0.0560  0.0653
14743W        W30637   2.074   2.031   1.344  0.0550 -0.0112 -0.2137
14744W        W30638   4.067   7.458   4.280  0.0010  0.0677  0.0584
14745W        W30639  10.622  11.979   0.229  0.2572  0.0841  0.1786
14746W        W30640  14.077   6.193  12.643 -0.1534  0.1313 -0.1359
14747W        W30641   0.315   9.868   0.316 -0.0042  0.0689 -0.1183
14748W        W30642   7.697   7.508   3.084  0.1974 -0.0382  0.2051
14749W        W30643   2.475  11.614  15.765  0.0474 -0.0869  0.2471
14750W        W30644  14.602  10.217  11.835 -0.0013 -0.0285  0.1664
14751W        W30645  11.837  17.081  16.296  0.2050  0.2064 -0.0484
14752W        W30646  16.512  15.253   4.462  0.1246 -0.0332 -0.1795
14753W        W30647   3.574   1.404   1.334  0.0624 -0.0563 -0.3132
14754W        W30648  14.722   2.231  14.199  0.0612  0.0361 -0.2659
14755W        W30649   7.958   7.734  12.083 -0.5787 -0.1056  0.0048
14756W        W30650   7.546   5.814  14.901 -0.0839 -0.1282 -0.0277
14757W        W30651  16.413   2.748   1.575  0.2444  0.2172 -0.0648
14758W        W30652  17.177  12.911  12.874  0.0597  0.0832  0.2617
14759W        W30653  12.404  12.954  16.241  0.4609 -0.2212  0.1281
14760W        W30654   8.584   8.097  13.918  0.2457 -0.0244 -0.1156
14761W        W30655  13.197   8.074   6.141 -0.1756 -0.2403  0.0645
14762W        W30656   7.847   4.105  12.276  0.0430 -0.3933  0.0464
14763W        W30657  12.596  14.847  12.147 -0.0147  0.0567 -0.0023
14764W        W30658  10.763  13.683   3.165 -0.1796 -0.3275 -0.0071
14765W        W30659   1.296   6.366   5.656 -0.2779 -0.0332  0.2005
14766W        W30660   6.977   0.119  13.941 -0.0991 -0.0727  0.1812
14767W        W30661  15.490   7.389  12.213  0.2937  0.0441  0.2323
14768W        W30662   7.725   6.731  14.804  0.3278 -0.0004 -0.1301
14769W        W30663  13.196  13.733  13.520  0.0656 -0.4712 -0.2366
14770W        W30664   3.602   8.624  13.491 -0.0271 -0.2707 -0.0389
14771W        W30665   5.303   1.526  13.197  0.1246 -0.1035 -0.1518
14772W        W30666   1.279   0.524   4.612  0.0916 -0.2379 -0.0667
14773W        W30667  10.633   2.776  13.251 -0.0404  0.1425 -0.0151
14774W        W30668   5.554   4.521   4.270 -0.0573 -0.2576 -0.0759
14775W        W30669  17.215   9.665   3.163  0.1482  0.0534  0.2684
14776W        W30670   6.835   1.865   2.946  0.0520  0.1383 -0.1452
14777W        W30671   4.224  10.467  14.616  0.2993  0.1228  0.1785
14778W        W30672   6.347   6.781   6.162 -0.1954 -0.0154 -0.1540
14779W        W30673  15.098   9.858   3.469 -0.2895 -0.2343  0.0027
14780W        W30674   2.255   1.933  14.896 -0.1579 -0.1883  0.1845
14781W        W30675  15.916  17.111   5.029 -0.1926  0.0285 -0.0592
14782W        W30676   4.953  16.986   2.860  0.0500  0.2695 -0.2271
14783W        W30677   0.432   7.517  13.726  0.0513  0.2494  0.3018
14784W        W30678   8.085   4.638   3.506 -0.0929  0.0059 -0.0632
14785W        W30679   3.222  10.796   1.421  0.0124  0.0787  0.0349
14786W        W30680  13.606   5.902  12.312 -0.0082  0.0527 -0.5059
14787W        W30681   7.509   3.432  14.622 -0.1066  0.0544 -0.0313
14788W        W30682  11.802   5.514  14.891  0.0403 -0.0489  0.0365
14789W        W30683   4.567  10.089  16.298 -0.0275  0.0149  0.0545
14790W        W30684  15.236  11.700  12.493  0.1286 -0.2479 -0.0818
14791W        W30685   2.816   9.912   0.319 -0.1059 -0.0417 -0.1352
14792W        W30686  16.361   1.126   0.800  0.0569 -0.0021  0.2715
14793W        W30687   8.987   1.404   2.741  0.5254 -0.0282 -0.1201
14794W        W30688  16.718   7.787  15.814  0.1971 -0.0601 -0.1734
14795W        W30689  14.804  13.161   1.475 -0.0438 -0.2203 -0.2498
14796W        W30690   3.291   5.858  15.422  0.0086 -0.0195 -0.2060
14797W        W30691  17.535  15.853  17.216 -0.0442  0.0005 -0.3057
14798W        W30692   9.195   0.721  13.570 -0.3364  0.1656  0.1417
14799W        W30693  12.902   5.908   3.656  0.0403 -0.0652  0.1765
14800W        W30694  13.416   9.905  12.589 -0.3671 -0.0287  0.0825
14801W        W30695  11.468   2.818  15.724  0.0086 -0.0277 -0.1795
14802W        W30696  14.337   2.074   6.715  0.0609  0.2533  0.4338
14803W        W30697  13.843   4.667   0.210  0.0479  0.0995 -0.0110
14804W        W30698  10.755  12.918   1.603  0.3378  0.0825 -0.3187
14805W        W30699   5.308   9.395  16.438 -0.0477  0.0964  0.1558
14806W        W30700  16.723   5.349   4.196  0.0208  0.1758 -0.3831
14807W        W30701   0.506  14.191  15.613 -0.2351  0.2891  0.0114
14808W        W30702  16.994   9.878   4.803 -0.2910  0.4100 -0.0153
14809W        W30703   4.029   2.401   5.743 -0.0880  0.3388 -0.1701
14810W        W30704  12.025   7.072   2.403 -0.2013 -0.2021 -0.0342
14811W        W30705   1.755  16.790  12.119 -0.1189 -0.1544  0.0555
14812W        W30706   5.719   0.919   4.372 -0.1587 -0.0042  0.1823
14813W        W30707   7.730   9.808   1.360 -0.2072  0.0006 -0.0402
14814W        W30708   6.926   1.419  12.791  0.1661 -0.0226  0.0514
14815W        W30709  15.717   5.337   0.922 -0.0709 -0.0875  0.1343
14816W        W30710   2.260  10.187   0.500 -0.0674 -0.1565  0.2225
14817W        W30711   7.066  17.638  13.420 -0.3679 -0.0254 -0.0046
14818W        W30712  10.773  17.455   5.872 -0.3397  0.0050  0.1286
14819W        W30713   9.522  11.954   5.225 -0.2045 -0.3203  0.1778
14820W        W30714  12.552   8.969   3.337  0.2603 -0.0038 -0.1813
14821W        W30715   6.478  11.813   3.298 -0.2791  0.4152 -0.3538
14822W        W30716   1.284  10.005  15.148  0.2623 -0.0784  0.2250
14823W        W30717  14.707  10.807   1.584  0.1115 -0.0202 -0.0283
14824W        W30718  11.616   1.224   4.858 -0.0515 -0.1103  0.0001
14825W        W30719  12.086   1.685   5.000 -0.2532 -0.4629  0.0048
14826W        W30720   2.540   6.398   5.196 -0.1813 -0.3332  0.0117
14827W        W30721   9.489   1.209   4.171  0.0987 -0.0935  0.3445
14828W        W30722  14.538   9.141  10.778 -0.1059  0.2460 -0.0553
14829W        W30723   1.227  12.697  14.713  0.1350  0.0899  0.0218
14830W        W30724   3.772  17.260  16.155 -0.3140  0.0806 -0.1609
14831W        W30725   6.000  12.803  12.225  0.3077 -0.0629 -0.0559
14832W        W30726   3.673   3.022   1.975  0.2668  0.2140  0.1831
14833W        W30727  11.800  10.594   3.000 -0.1582 -0.0443 -0.3795
14834W        W30728   9.877  14.670  15.617  0.0777 -0.1379 -0.1166
14835W        W30729   4.980   6.008  12.252 -0.3775 -0.0113 -0.0412
14836W        W30730  13.108   3.955  13.466  0.3015 -0.0349  0.0210
14837W        W30731   4.332  15.147   1.758 -0.3220  0.0221 -0.0105
14838W        W30732   6.466   3.946  13.361  0.2147  0.1511 -0.2744
14839W        W30733  10.386  15.034   5.217 -0.3947  0.0058 -0.2375
14840W        W30734  14.710   6.770  11.650 -0.2584  0.1086  0.1020
14841W        W30735  12.922   0.844  14.400 -0.0487  0.0163  0.0103
14842W        W30736   7.281   6.949   5.255  0.1529 -0.0415 -0.1090
14843W        W30737   8.477  12.009  16.126  0.1741 -0.0774  0.0217
14844W        W30738  13.192  16.431   0.299  0.0053 -0.0729 -0.0476
14845W        W30739   7.389   8.195  15.059 -0.0487 -0.1004 -0.0969
14846W        W30740   6.272  16.243   0.060  0.3094 -0.1642 -0.2645
14847W        W30741  10.134   7.461  11.374 -0.2783  0.0760  0.2247
14848W        W30742  10.383  12.518  12.884 -0.2180 -0.0192  0.3018
14849W        W30743   0.460   1.959  14.059  0.1366  0.1117 -0.0521
14850W        W30744   4.562  16.585  16.983  0.3548 -0.1920 -0.0093
14851W        W30745   4.063   4.846   0.241 -0.0043  0.2674  0.0499
14852W        W30746   7.604   2.281   3.890 -0.0442 -0.0701 -0.3004
14853W        W30747   1.261   4.547  17.199 -0.2285 -0.1463 -0.1591
14854W        W30748  13.204  10.705  14.784 -0.1295  0.0000 -0.0542
14855W        W30749  12.119  14.784  13.674  0.1317  0.2931 -0.3226
14856W        W30750  14.516  12.991  13.610  0.1302 -0.1970  0.1473
14857W        W30751   0.436  14.852  13.545  0.1409  0.0957  0.0364
14858W        W30752  10.723   8.677  13.275 -0.1667  0.0190  0.2582
14859W        W30753  17.550   8.931   0.472  0.1000  0.0048 -0.0067
14860W        W30754  11.861  14.493   1.497  0.0253 -0.2420  0.0008
14861W        W30755   8.413  12.039   4.388  0.0508 -0.0938 -0.2968
14862W        W30756   2.094   8.839   2.394  0.4426 -0.0549 -0.1898
14863W        W30757   4.243  15.872  15.786 -0.1280 -0.0563  0.1585
14864W        W30758  15.597  14.385   3.345  0.0307 -0.1794 -0.0306
14865W        W30759  13.260  11.064   2.998 -0.3818 -0.2501 -0.0612
14866W        W30760   6.271  13.602  13.176  0.0571  0.0915 -0.0263
14867W        W30761   1.497   4.423  12.055 -0.1032 -0.0172 -0.0469
14868W        W30762   4.915   8.377   0.322 -0.0365  0.4262  0.0626
14869W        W30763   8.087   3.669  17.109  0.0170 -0.2933 -0.1936
14870W        W30764   9.031  10.737   2.334  0.4042  0.0543  0.0347
14871W        W30765  16.202   4.235   0.674  0.0270  0.1246  0.1862
14872W        W30766  14.631   1.534   0.254 -0.0827  0.1233  0.0389
14873W        W30767   8.786   9.528   4.089  0.0381  0.2060  0.1442
14874W        W30768  12.802   4.241   0.442 -0.0378 -0.2218  0.2004
14875W        W30769   6.246  16.045  14.499  0.0256  0.1866 -0.1423
14876W        W30770  17.086  14.789  15.179 -0.1957  0.1064  0.1228
14877W        W30771   6.265  16.740  15.294  0.0570 -0.3381 -0.1658
14878W        W30772   5.812  11.193  11.612  0.2271  0.1447  0.3784
14879W        W30773   5.075  10.036   4.116 -0.1617  0.0929  0.0142
14880W        W30774  14.338   9.654  15.969 -0.0582  0.1706  0.1160
14881W        W30775   6.128  10.904   5.234  0.0271  0.0106  0.0135
14882W        W30776   7.071   6.149   4.705  0.1341  0.1605  0.2533
14883W        W30777   2.135  13.905   2.363 -0.4108 -0.1937 -0.0447
14884W        W30778  10.389   1.950  13.729  0.3168 -0.0466 -0.1051
14885W        W30779  15.053   3.526   1.866 -0.3475 -0.4805  0.2017
14886W        W30780  15.549   5.081  12.699 -0.2276  0.2132  0.1117
14887W        W30781  10.704   6.280   0.674  0.1960 -0.3844  0.2513
14888W        W30782   1.835   0.584  16.899  0.0719  0.1957  0.1283
14889W        W30783   1.620   2.587  14.868  0.2166  0.0676 -0.1332
14890W        W30784   6.271  11.232  14.805  0.2604  0.0581 -0.1968
14891W        W30785  15.301   6.586  17.029  0.0369 -0.0103 -0.0859
14892W        W30786  16.033   9.401   5.100 -0.0929 -0.3399 -0.1728
14893W        W30787  10.776   3.439  15.346 -0.0214 -0.0859 -0.0708
14894W        W30788   9.821   9.266  12.497  0.1497 -0.0048  0.3732
14895W        W30789   9.544   0.129  15.740  0.0564 -0.3994  0.1198
14896W        W30790   5.850   9.375   3.170 -0.0038  0.2107 -0.2604
14897W        W30791  11.023   4.135   3.350  0.1931 -0.1299  0.0025
14898W        W30792  10.546  10.981  14.172 -0.0364  0.0244 -0.1756
14899W        W30793   5.659  15.304   3.646 -0.0109  0.0532  0.0167
14900W        W30794   6.361  17.167   5.625 -0.1362  0.1014  0.1210
14901W        W30795  12.106   2.932  16.319  0.2118 -0.2447 -0.1028
14902W        W30796   5.829  16.960  15.579 -0.0625  0.0519 -0.0293
14903W        W30797   7.862  15.954  14.701  0.0828 -0.2212 -0.0477
14904W        W30798   1.680  11.176   0.542  0.1627  0.0300  0.0268
14905W        W30799   8.946  16.102  12.389 -0.2228  0.1204  0.1489
14906W        W30800   3.514   0.779  15.088 -0.2768 -0.1451  0.4533
14907W        W30801  16.227  16.705   0.631 -0.2358 -0.2632 -0.3354
14908W        W30802  12.469  13.413  14.672  0.1947  0.2749  0.0486
14909W        W30803   7.670  11.495  14.959 -0.0161  0.1508 -0.3454
14910W        W30804  12.025  14.905   1.183 -0.1075 -0.2016  0.1815
14911W        W30805  13.261  14.972  15.958  0.0335  0.0760  0.3854
14912W        W30806   1.288   1.160   0.743 -0.3497  0.0048 -0.2689
14913W        W30807   6.767   6.077  15.568  0.1189 -0.2069 -0.0995
14914W        W30808  12.848  14.858   3.770  0.0234 -0.0647  0.1508
14915W        W30809  13.883   6.062   1.279 -0.0064  0.0485 -0.0462
14916W        W30810   4.800  14.687   4.264  0.0410  0.1116 -0.2206
14917W        W30811  16.606   4.793   3.808 -0.0622  0.0092 -0.0705
14918W        W30812   0.804   4.932   1.163  0.1749  0.0918  0.3483
14919W        W30813   3.909   1.875   6.446  0.0824 -0.0353  0.0066
14920W        W30814  14.263  13.972  14.630  0.1762  0.0965  0.4604
14921W        W30815  13.365   0.189  17.170 -0.3402  0.2562  0.0500
14922W        W30816   0.554  12.306   1.933 -0.2410 -0.1566  0.2539
14923W        W30817   5.601  12.034   6.052  0.1276 -0.1215 -0.1752
14924W        W30818  13.260   1.438   2.995  0.1834 -0.2198  0.2982
14925W        W30819   7.067   9.115  13.802 -0.0355 -0.2341 -0.2885
14926W        W30820  10.640   7.646   1.772 -0.0075  0.1808 -0.1419
14927W        W30821  13.120   2.875   0.739  0.1376  0.0740  0.0508
14928W        W30822   2.653   4.175   0.051  0.1667 -0.2579  0.1185
14929W        W30823   3.092   1.246   3.228 -0.0738 -0.0052  0.1186
14930W        W30824  15.897   1.513  15.785  0.0375  0.1089 -0.2836
14931W        W30825   4.823  11.568  15.205  0.2658 -0.0169  0.1982
14932W        W30826   5.942   6.863  13.983 -0.0148  0.3157 -0.1672
14933W        W30827  10.232   0.030   5.123 -0.0346  0.1947  0.1567
14934W        W30828   4.978   8.185   4.164 -0.1583  0.1252 -0.1406
14935W        W30829  10.689  17.067   3.961  0.0479 -0.2405 -0.2665
14936W        W30830   1.651   3.939  13.945 -0.0750 -0.0867  0.0196
14937W        W30831   0.551   3.306   1.928  0.0293 -0.0500 -0.1204
14938W        W30832   6.564  17.184   0.997 -0.1254  0.0464 -0.2145
14939W        W30833  14.352   7.703   3.169  0.2125  0.1095  0.2055
14940W        W30834   5.302   7.599  13.993  0.0521  0.3058 -0.0378
14941W        W30835   5.467  16.723   4.813  0.2890  0.3345  0.1485
14942W        W30836  16.867   3.724  12.798  0.0058  0.0303 -0.0084
14943W        W30837   9.501  10.346   1.285  0.2510  0.1642  0.2784
14944W        W30838   6.713   9.125  13.447  0.0786 -0.2336 -0.1157
14945W        W30839  10.974   9.309   0.195 -0.4448  0.0194 -0.4027
14946W        W30840   4.411   1.971  12.820  0.1568  0.2712  0.0909
14947W        W30841   9.968   8.140   3.891  0.1893  0.0928  0.0168
14948W        W30842   3.894   8.823  14.669  0.0240  0.0450 -0.2232
14949W        W30843  15.776   1.066   0.915  0.2680  0.3163  0.0963
14950W        W30844   6.111   7.889   2.934 -0.1002  0.0292 -0.1911
14951W        W30845   8.738  13.708   3.702 -0.4304 -0.1487  0.0790
14952W        W30846   0.882  12.533  14.204  0.1778  0.3695  0.2860
14953W        W30847   3.510  11.236   6.287  0.2046 -0.0392  0.1047
14954W        W30848  10.788  15.767  15.947 -0.3820 -0.1123 -0.1556
14955W        W30849  11.821   1.380   5.787  0.3078  0.1586  0.3163
14956W        W30850   9.721  13.331   1.539  0.0826  0.2398  0.3404
14957W        W30851   4.780   7.557   3.971  0.2146 -0.0863 -0.0432
14958W        W30852  14.546   8.816   4.093  0.0129  0.3786 -0.0685
14959W        W30853   4.889  13.863  13.816  0.2273  0.1202 -0.1311
14960W        W30854   6.658   8.027   3.969  0.1889 -0.0449 -0.1847
14961W        W30855   2.339  10.648   4.932  0.2541 -0.2662  0.1378
14962W        W30856  15.767  10.253   5.498 -0.0211  0.0085  0.2116
14963W        W30857   7.714   5.543   0.988  0.0791  0.0213  0.0974
14964W        W30858  14.665   8.118   5.829  0.2985 -0.1353  0.1602
14965W        W30859   3.365   6.467  14.185 -0.2944 -0.2689  0.1438
14966W        W30860   5.632   5.806  14.176 -0.2154  0.0733 -0.1955
14967W        W30861  13.394   0.306   5.647 -0.3057  0.1619 -0.2176
14968W        W30862  12.274   9.253   5.071  0.0708 -0.2073 -0.0817
14969W        W30863  13.656  12.860   3.402  0.1904 -0.4269 -0.1146
14970W        W30864  12.243  10.283  14.281  0.4009 -0.2280 -0.4674
14971W        W30865  14.589   1.896  12.047 -0.0746  0.3615  0.0790
14972W        W30866   1.680  15.780   1.396  0.0520 -0.0143  0.0044
14973W        W30867   0.340  12.075   0.578  0.1749  0.1476  0.2480
14974W        W30868  10.961   2.322   0.167  0.1076 -0.1108 -0.0053
14975W        W30869  11.701  14.234  14.763  0.0263  0.0856 -0.0540
14976W        W30870  14.286   4.878   3.037  0.1205  0.4328 -0.1008
14977W        W30871   0.543  11.483  14.446  0.0986  0.2062  0.1062
14978W        W30872  17.252   8.394   1.325  0.2288 -0.0670  0.1067
14979W        W30873   0.629  15.915   4.582 -0.0852  0.0581  0.2407
14980W        W30874  12.574   4.542   2.140 -0.4310 -0.2535  0.2078
14981W        W30875  17.454   3.829  15.913  0.2757 -0.0323 -0.1129
14982W        W30876  14.732   9.381  16.099 -0.4275 -0.2911 -0.1144
14983W        W30877   7.325   4.446  14.443 -0.0281  0.0553 -0.2014
14984W        W30878   8.965   3.395  17.281  0.2426 -0.0158  0.1507
14985W        W30879   5.405   6.092  13.557  0.3183  0.3048  0.3468
14986W        W30880   1.964   5.065  13.458  0.0475 -0.3176 -0.2858
14987W        W30881  10.782  10.396   1.174 -0.0636  0.3488 -0.2130
14988W        W30882   6.534  11.282  15.822 -0.1588  0.1396  0.1049
14989W        W30883  14.388   7.120  15.586 -0.1161  0.1830  0.1099
14990W        W30884  13.839   4.098  13.209  0.5716  0.0238 -0.1900
14991W        W30885   6.563  15.655   0.053 -0.2602 -0.2489 -0.0764
14992W        W30886   4.083   1.182  12.118 -0.0166  0.1621  0.0325
14993W        W30887   1.127  16.040   4.987 -0.0261  0.0456  0.0149
14994W        W30888   5.964  12.566  13.995 -0.0541 -0.0711  0.0535
14995W        W30889  13.037   2.245  13.051 -0.1270 -0.1034 -0.1401
14996W        W30890  14.541   0.128   5.607  0.0643 -0.0133 -0.0171
14997W        W30891  12.128   7.657  13.831 -0.0214 -0.1220  0.1758
14998W        W30892   4.226   9.121   3.854  0.2907  0.1100  0.1885
14999W        W30893   9.994   9.879  16.859 -0.0812  0.4335 -0.2871
15000W        W30894   1.132   0.414   5.179  0.1462  0.1743 -0.3840
15001W        W30895  13.872  17.608  12.260  0.0387  0.0787  0.1146
15002W        W30896   1.481   7.092   1.828 -0.1555 -0.0133  0.2321
15003W        W30897   7.163   3.042   1.162 -0.3243 -0.0718  0.1246
15004W        W30898   9.259   4.919   0.831  0.2460 -0.1502  0.0510
15005W        W30899  10.581   9.257   4.724 -0.1953  0.3182  0.3793
15006W        W30900  14.642   8.906  13.833  0.3159  0.2262 -0.0858
15007W        W30901  12.356   6.825  11.804 -0.3355  0.0544 -0.0218
15008W        W30902   8.199  10.831  13.668 -0.1495 -0.1350  0.1184
15009W        W30903  10.103   7.495   0.920  0.2281 -0.0708  0.0328
15010W        W30904  17.387  17.598   3.113 -0.1192 -0.1001  0.3903
15011W        W30905   3.277  10.503   1.862  0.0383  0.1985  0.1625
15012W        W30906   3.596   0.898  12.903  0.3228 -0.2531  0.2584
15013W        W30907   5.506   2.182   0.069 -0.1624 -0.1920  0.1454
15014W        W30908   7.513  15.094  15.183  0.2156 -0.2234  0.1388
15015W        W30909   0.312   1.729  12.847 -0.0395  0.0439  0.2344
15016W        W30910   3.151   5.223  14.771  0.0410 -0.2818 -0.0677
15017W        W30911   7.769   1.425   4.976  0.2606  0.4378  0.0525
15018W        W30912   7.792   5.326  17.279 -0.2626 -0.3658 -0.0540
15019W        W30913   6.177   6.303   4.934  0.0351 -0.0411  0.2609
15020W        W30914   5.170  12.004   3.626  0.1579  0.0497 -0.3265
15021W        W30915   9.130  10.085  11.801 -0.0717  0.2394 -0.2105
15022W        W30916  11.315   8.286  16.391 -0.0657  0.1176 -0.0044
15023W        W30917   1.890  17.351  14.210 -0.0982  0.1809  0.1831
15024W        W30918   1.332   3.484   5.345 -0.0583 -0.0775  0.0927
15025W        W30919  16.224  15.064  16.836  0.0428  0.2402 -0.1022
15026W        W30920   7.147  10.572   0.153 -0.2537 -0.3577 -0.4270
15027W        W30921  13.904   7.460   3.269  0.2296 -0.0986  0.0504
15028W        W30922  16.086   6.804  12.539 -0.0835 -0.1857 -0.1064
15029W        W30923   0.983   7.614  15.865  0.2250  0.0829 -0.2985
15030W        W30924   5.137  12.894   0.588 -0.3518  0.1247 -0.0387
15031W        W30925   0.481  17.580   0.791 -0.3142 -0.1165  0.0390
15032W        W30926   5.293   7.136   5.068  0.0720  0.2034  0.1246
15033W        W30927   2.693   1.267  11.063  0.2072 -0.1977  0.4413
15034W        W30928  12.091   3.499   4.533  0.3541  0.3010  0.1246
15035W        W30929   1.183  11.759   2.150 -0.1258 -0.0112 -0.0248
15036W        W30930   1.602  10.476  15.974 -0.1144  0.1222  0.2084
15037W        W30931   5.990   4.334   2.756  0.0129  0.0593  0.2641
15038W        W30932   0.221  11.031   2.321 -0.0894 -0.0420 -0.0054
15039W        W30933  16.663  13.854   4.788 -0.0629 -0.1898  0.1247
15040W        W30934   2.115   5.776   2.645  0.5893  0.0112 -0.0056
15041W        W30935  12.818  16.074   3.363 -0.1669  0.0183 -0.0401
15042W        W30936  10.035   9.954  13.628  0.1513  0.1388 -0.0154
15043W        W30937   1.975   3.474   5.563 -0.0888 -0.0003 -0.0745
15044W        W30938   9.162  15.907  16.264  0.0924  0.1268 -0.0404
15045W        W30939   6.129   8.110   0.446  0.2282 -0.0743  0.1127
15046W        W30940  16.593   2.198   5.175  0.0333  0.0722 -0.0939
15047W        W30941   5.590   6.552   2.811  0.1006  0.3699 -0.2053
15048W        W30942  11.486  16.412  15.804 -0.1212 -0.0116 -0.0054
15049W        W30943   9.567  15.745  15.287  0.0087  0.0636  0.3987
15050W        W30944  15.416  11.155  13.339  0.5156 -0.3010  0.1919
15051W        W30945   9.432  14.820  14.631 -0.3836  0.2452 -0.2230
15052W        W30946   4.032  10.581  11.640  0.0204 -0.0859 -0.0980
15053W        W30947   9.941   4.967  12.727  0.0610 -0.2955 -0.0568
15054W        W30948  13.155   4.921  16.357  0.2397  0.4674  0.0222
15055W        W30949   8.550   5.750  16.499  0.1139  0.1533 -0.0584
15056W        W30950  12.532  14.850  13.298 -0.0042 -0.1513 -0.0793
15057W        W30951  14.836  17.485   4.409  0.1255 -0.1995 -0.0397
15058W        W30952  15.923   1.906  14.896  0.0307  0.1496 -0.1804
15059W        W30953   2.519  17.332  14.165 -0.0297 -0.0978  0.0182
15060W        W30954   3.844  17.631  16.526 -0.0200  0.1627  0.0705
15061W        W30955  13.873   6.675   4.616 -0.1670 -0.0704  0.1698
15062W        W30956   0.114  17.089   4.323 -0.1759 -0.0221  0.3869
15063W        W30957  17.111   6.989  14.780 -0.0351  0.0562 -0.0342
15064W        W30958  16.236   4.709   0.897  0.0721 -0.0083 -0.0045
15065W        W30959  14.724   5.994   1.134  0.1854 -0.0879  0.4458
15066W        W30960   7.519   1.683  16.160 -0.1323  0.0444 -0.1507
15067W        W30961   1.079   5.598   1.483 -0.0705  0.0464 -0.1934
15068W        W30962  12.464  14.690   3.044 -0.0644  0.0807 -0.2235
15069W        W30963   9.329   0.516  15.992  0.0170  0.0558  0.1490
15070W        W30964  10.797  15.230   4.976 -0.1834 -0.1126 -0.1358
15071W        W30965   2.686  13.923   3.742  0.1607 -0.0892 -0.1001
15072W        W30966  15.851   4.172   1.736 -0.1309 -0.2724  0.0390
15073W        W30967  14.214   7.396  14.826 -0.1558  0.0425  0.1744
15074W        W30968   9.202  15.357  12.396  0.4813  0.0646 -0.0119
15075W        W30969   1.169   9.578  15.928  0.2029  0.0451  0.4848
15076W        W30970   3.715   1.916   2.349 -0.1513 -0.0605  0.2533
15077W        W30971   7.455   1.047   5.250 -0.4016 -0.1085 -0.2257
15078W        W30972  10.928   7.605   3.987 -0.1116  0.0246 -0.2576
15079W        W30973  16.144   3.332  12.097  0.0791 -0.1807  0.0634
15080W        W30974   1.086   8.578   2.705  0.2367  0.3545 -0.1517
15081W        W30975  14.122   4.117   2.259 -0.3533  0.0386 -0.0975
15082W        W30976   8.186   5.039   3.937 -0.0337 -0.2547 -0.2181
15083W        W30977   2.345  17.516   2.638 -0.2638  0.2705 -0.0317
15084W        W30978  14.302  11.571  13.969  0.0715 -0.3933 -0.1093
15085W        W30979   3.345  17.082   0.318  0.0502  0.1362  0.0994
15086W        W30980   9.609  17.332  11.839  0.2858 -0.0976 -0.0576
15087W        W30981  10.897   0.864   2.454 -0.0657 -0.0091 -0.1111
15088W        W30982  13.271   9.064   4.573 -0.0049  0.0677 -0.1992
15089W        W30983   9.393  15.892   2.645  0.3661 -0.1071 -0.3786
15090W        W30984   0.759  12.511  12.842  0.2378 -0.0593  0.0941
15091W        W30985  15.258  14.788  14.281  0.0691 -0.1129  0.0656
15092W        W30986   1.767   5.166   3.180 -0.4166 -0.3271 -0.0039
15093W        W30987  14.752   4.208   3.542 -0.2780  0.0061 -0.1272
15094W        W30988  16.630  11.694   1.955  0.2899 -0.0554  0.3842
15095W        W30989   5.670  15.263   1.070  0.0900  0.3963  0.1825
15096W        W30990   7.683   2.846  15.983 -0.0271  0.0805 -0.1077
15097W        W30991   8.108  17.334  14.425 -0.1294 -0.0995 -0.1884
15098W        W30992   4.558   5.045  12.106 -0.0910 -0.2044 -0.0415
15099W        W30993  17.282   2.837   5.629 -0.2772  0.0653 -0.2655
15100W        W30994   5.371   8.915  16.516  0.0527 -0.0853 -0.1629
15101W        W30995   8.825  12.779   5.569 -0.0530  0.2916  0.0295
15102W        W30996   4.166  12.998   2.928  0.2717  0.1170  0.0383
15103W        W30997  17.555  12.178  13.428 -0.2865 -0.1368  0.0066
15104W        W30998  15.227   8.690   1.467 -0.1598  0.0289 -0.1247
15105W        W30999   4.369  16.194   4.643 -0.0187  0.1128 -0.0985
15106W        W31000  11.077   8.669  11.494 -0.0680 -0.0702  0.2329
15107W        W31001  10.100   2.441   0.168 -0.2219 -0.0109 -0.1902
15108W        W31002   8.217  14.916  16.235  0.0429  0.1600 -0.1117
15109W        W31003   2.497   0.476   6.269 -0.1159  0.1237  0.0718
15110W        W31004   6.407   1.910  12.341 -0.1415  0.1225  0.0304
15111W        W31005   9.451  12.777  14.391  0.0962 -0.0037  0.1838
15112W        W31006   4.382  16.694   1.463 -0.1606 -0.0253  0.2132
15113W        W31007   5.846  13.115  12.761  0.2884 -0.2448 -0.0531
15114W        W31008  15.379   3.479  16.591  0.5171 -0.3134  0.0522
15115W        W31009   0.846  12.264   0.477 -0.0158  0.2338 -0.2391
15116W        W31010  12.394   1.178   4.390  0.3249 -0.0252 -0.1881
15117W        W31011   6.458   7.330   6.193 -0.2009  0.1331  0.0893
15118W        W31012   9.173   2.436  12.910 -0.0603  0.0507 -0.2730
15119W        W31013  10.946  10.489   0.670  0.0814 -0.0808 -0.2793
15120W        W31014   0.535   0.804  14.155  0.3147  0.1817 -0.1315
15121W        W31015  17.555   3.404  15.459  0.1796 -0.2599  0.0586
15122W        W31016   3.392   3.105  13.447  0.2495 -0.2969  0.2090
15123W        W31017  14.793   3.527  16.245  0.0074  0.2370 -0.1673
15124W        W31018   0.391   3.199  16.059 -0.0860  0.0041 -0.2034
15125W        W31019  12.559   9.272  15.346  0.3689 -0.2680  0.0225
15126W        W31020  10.150   7.303  13.183  0.1578  0.0177 -0.0592
15127W        W31021   6.886  12.727   0.596 -0.0494  0.1039 -0.1578
15128W        W31022   6.362  11.586   4.946  0.0279 -0.3199 -0.1283
15129W        W31023   8.346   6.871   4.508  0.1742 -0.1477  0.0551
15130W        W31024   4.812   8.800  16.552 -0.2916  0.1401  0.1616
15131W        W31025  17.567  16.088   5.748 -0.0065 -0.0912 -0.0320
15132W        W31026   6.462   2.342  13.096  0.2330 -0.4115 -0.1215
15133W        W31027   1.400  14.716   3.919 -0.0077  0.3625  0.1867
15134W        W31028   0.562   8.527  14.454  0.2268  0.0706 -0.0115
15135W        W31029  13.461   9.628  16.247  0.1382  0.1499 -0.0191
15136W        W31030   4.396   0.412   4.266 -0.2093 -0.0148  0.3904
15137W        W31031   6.764   0.038  12.990  0.0027  0.0248  0.1115
15138W        W31032  11.440  12.862  15.973 -0.2349  0.3344 -0.1067
15139W        W31033  13.115   9.561   1.034 -0.0564 -0.0541  0.0683
15140W        W31034  16.880  15.450  15.751 -0.1347  0.0684  0.2517
15141W        W31035   1.454   6.055  15.814  0.3635  0.0292 -0.0749
15142W        W31036   1.278   3.893   1.922 -0.6283  0.2407 -0.4946
15143W        W31037  12.468  10.718  14.264 -0.1734  0.1543  0.0139
15144W        W31038  16.633   2.791   2.568  0.1631  0.1086  0.2722
15145W        W31039   0.386   2.893  14.102 -0.0182 -0.0345  0.0693
15146W        W31040   6.732   7.815   1.262 -0.0539  0.0294 -0.3063
15147W        W31041   2.507   6.449  14.596  0.3109  0.0128  0.0261
15148W        W31042  14.385   6.596   0.091 -0.2349  0.0525 -0.3843
15149W        W31043   4.261  14.539   2.542 -0.0686  0.0560  0.0358
15150W        W31044   2.125   9.195  12.709 -0.1032 -0.1334  0.2385
15151W        W31045   4.055   5.640   0.611 -0.3567 -0.1828  0.1055
15152W        W31046   0.792  16.738   1.740 -0.0734 -0.0123  0.3420
15153W        W31047   9.139   6.323  15.115  0.1060  0.2392 -0.2039
15154W        W31048   6.293  14.915   6.655 -0.1004 -0.3085  0.3694
15155W        W31049   1.897   7.454   2.993  0.0800  0.0211  0.1326
15156W        W31050  16.264   1.419  14.050  0.0289 -0.0070 -0.1233
15157W        W31051  13.285  11.789  12.198  0.1032  0.0635  0.0390
15158W        W31052   5.045   3.363   6.163 -0.0856  0.0340  0.2172
15159W        W31053   3.786  17.333   5.121 -0.0494  0.4192  0.2050
15160W        W31054  17.198  17.468   4.037  0.1555 -0.3555  0.1439
15161W        W31055   0.958   3.343   5.628 -0.0486  0.0504  0.1422
15162W        W31056  13.968   2.290  13.611  0.1675 -0.1738  0.0714
15163W        W31057   6.422   9.636   5.398 -0.2782  0.0597  0.0655
15164W        W31058  16.461  11.327   5.754 -0.0968  0.1363  0.0283
15165W        W31059  12.598  11.048  13.285  0.4201 -0.0766  0.2163
15166W        W31060  14.598  15.271   3.631 -0.0716 -0.1356 -0.2695
15167W        W31061  12.079   7.968   2.894  0.1848  0.1785  0.1209
15168W        W31062   1.658  12.982  14.375 -0.0867 -0.0681  0.0904
15169W        W31063   1.220   4.141   6.130 -0.1007  0.1678  0.1154
15170W        W31064  12.538   6.429  13.055  0.0381  0.2322 -0.4655
15171W        W31065  16.327  10.606   1.696 -0.1668  0.0389 -0.1734
15172W        W31066  14.922  16.471   0.363 -0.1689  0.0610  0.2902
15173W        W31067   7.131  14.558  16.408 -0.4930 -0.2577 -0.0601
15174W        W31068  11.253   1.075   2.126  0.0520 -0.0655  0.0472
15175W        W31069  12.207   0.915  14.213 -0.1897 -0.0354 -0.0712
15176W        W31070  11.335  15.485   0.802 -0.2179 -0.2327 -0.1437
15177W        W31071  12.581   5.054   4.679  0.0469 -0.1856  0.1493
15178W        W31072  10.161  12.410  16.051  0.1215  0.3110 -0.0531
15179W        W31073  13.006   9.767   5.473  0.0008 -0.3183 -0.2435
15180W        W31074   1.011  10.139  12.222  0.3376 -0.0500 -0.1424
15181W        W31075  16.857  13.856   4.276  0.0302  0.2785 -0.0235
15182W        W31076  11.155   8.530   3.962  0.1811 -0.0769 -0.0853
15183W        W31077   2.098   4.366  14.603  0.1792 -0.3095 -0.0997
15184W        W31078  13.711  12.047   3.738 -0.1334  0.0401 -0.0307
15185W        W31079  10.247   2.799  13.665  0.2326  0.0542 -0.0050
15186W        W31080  14.741  12.967  15.851 -0.3402 -0.2325 -0.0770
15187W        W31081  12.128  15.355   1.371 -0.0092 -0.3155  0.2751
15188W        W31082  10.305   6.276   1.963  0.2188  0.2081 -0.0360
15189W        W31083   9.739   0.929  16.510  0.0381  0.0848  0.1349
15190W        W31084   9.187  13.222  13.152  0.0447  0.1529 -0.0387
15191W        W31085  14.498   2.581   5.967 -0.1558 -0.1130  0.0308
15192W        W31086   5.978   8.889   5.342 -0.1739 -0.3527 -0.0007
15193W        W31087   8.864   6.174  15.599 -0.0141  0.0283 -0.1185
15194W        W31088   6.137   6.925  11.592 -0.1788 -0.0466 -0.0171
15195W        W31089   3.594  13.068  14.917  0.3038  0.2077 -0.0395
15196W        W31090   1.656   2.751  16.939 -0.0664  0.0176 -0.0821
15197W        W31091  12.547   1.534   4.810 -0.0693  0.0514  0.5524
15198W        W31092   9.803  10.629   3.827 -0.0270  0.3213  0.0327
15199W        W31093   3.220   9.757  16.390  0.0290  0.1218 -0.0573
15200W        W31094  10.578   2.555   0.405 -0.1044  0.0488  0.1426
15201W        W31095  15.772   4.675   3.976  0.0423  0.3376 -0.0599
15202W        W31096   5.390   5.515  15.427 -0.1060  0.1238 -0.0167
15203W        W31097   2.496  11.766   5.744  0.0220  0.0063  0.0627
15204W        W31098   5.731  10.495   5.298 -0.1667  0.0703 -0.0444
15205W        W31099   7.713  11.283  11.283 -0.0182  0.3195  0.0183
15206W        W31100  11.705   4.529  13.901  0.1108  0.0473 -0.0794
15207W        W31101   7.134  13.261  11.917 -0.3868  0.1662 -0.2455
15208W        W31102  11.151  12.573   1.364  0.0190  0.1804  0.0353
15209W        W31103  17.266  16.370   4.881 -0.1459 -0.0788 -0.1850
15210W        W31104   9.057   3.130   3.418  0.1661 -0.1971 -0.0318
15211W        W31105   5.483   4.280  13.262  0.0017 -0.2381 -0.1799
15212W        W31106   3.167   8.654  15.323  0.0839 -0.1517 -0.2647
15213W        W31107  15.040  16.074  11.982 -0.2185  0.3835 -0.1621
15214W        W31108  16.942   5.409   1.145  0.0739  0.2175 -0.1721
15215W        W31109   3.962  15.774  14.848 -0.0620 -0.4195  0.0717
15216W        W31110   9.568  15.517   1.048 -0.2760  0.0928 -0.2163
15217W        W31111   0.998   5.691  13.854 -0.0221 -0.0652 -0.2492
15218W        W31112  13.182   4.055   3.487  0.2240 -0.0729 -0.0842
15219W        W31113   0.676   2.148   2.758 -0.1514  0.3834  0.2669
15220W        W31114   5.967   6.399   3.136 -0.0383  0.0483  0.1543
15221W        W31115  14.230   3.756   0.664 -0.1416 -0.0808  0.0024
15222W        W31116  11.615  13.488   3.318 -0.0336  0.2599  0.0750
15223W        W31117  12.008  15.279  14.512 -0.2252  0.2740  0.0762
15224W        W31118   5.323  13.781  16.567  0.1997 -0.1105 -0.0689
15225W        W31119   2.374   1.631  15.313 -0.3442  0.0032 -0.0585
15226W        W31120   2.881   7.487   3.779 -0.1359 -0.2843  0.1413
15227W        W31121  10.210  13.558   2.382  0.1164  0.2403  0.2300
15228W        W31122   3.581   4.853   2.976 -0.0841 -0.2316 -0.1040
15229W        W31123  14.403   6.192   3.046  0.3965 -0.1847 -0.2153
15230W        W31124  13.469   3.065  14.058  0.0657 -0.2338 -0.0063
15231W        W31125   8.925   3.141  13.416  0.1202 -0.2183  0.1872
15232W        W31126  10.744  10.853  13.363 -0.0524  0.0664 -0.2078
15233W        W31127  11.435   9.259   0.546 -0.0032 -0.2398 -0.0952
15234W        W31128   5.023   4.025   0.549  0.0825  0.0416  0.0796
15235W        W31129  11.121  13.908  17.131  0.2168 -0.0869 -0.1457
15236W        W31130  16.783   2.340   2.402 -0.2190 -0.1253  0.1688
15237W        W31131  11.823   5.346   1.068  0.1828 -0.3789 -0.2669
15238W        W31132   3.662   4.980   0.022 -0.0069  0.0856  0.0562
15239W        W31133   2.661  13.332  15.677 -0.1304  0.0134  0.0196
15240W        W31134   6.503   7.641  12.306 -0.1048  0.1995  0.3478
15241W        W31135   6.135   2.542   5.988  0.4155  0.0396  0.0185
15242W        W31136  15.145  17.223   1.690  0.2657  0.0836  0.2968
15243W        W31137   2.149  12.793  17.271  0.2430  0.2862 -0.1196
15244W        W31138   7.050  10.898   3.787  0.0996  0.0762  0.3086
15245W        W31139  14.757  11.414  14.645  0.1090 -0.2623 -0.0494
15246W        W31140   0.671  16.304   1.512 -0.2015  0.0041  0.2185
15247W        W31141  16.160   7.998  17.259  0.1688  0.2682 -0.0416
15248W        W31142   9.469   1.489   5.356  0.1341  0.1860  0.1968
15249W        W31143  15.748  16.912   1.793  0.0288  0.3075  0.0989
15250W        W31144   3.671  15.111  14.256  0.2157  0.0380  0.3341
15251W        W31145  11.963  12.904   4.047 -0.1139 -0.3205  0.1340
15252W        W31146   4.472  10.962   1.524  0.0110 -0.2398 -0.0100
15253W        W31147  13.374  11.182  13.975 -0.2148  0.1108  0.2781
15254W        W31148   7.059  13.819  15.082  0.1063 -0.0501  0.1073
15255W        W31149   1.414   8.701  15.047 -0.0393 -0.1672 -0.0410
15256W        W31150  10.063   3.942  15.459  0.0409 -0.0588  0.0096
15257W        W31151   2.595  10.076  15.741 -0.1316  0.1900 -0.1478
15258W        W31152   7.759  16.099   0.653  0.0227  0.0564 -0.2117
15259W        W31153   7.907   2.651   2.838 -0.2070  0.1344  0.3138
15260W        W31154   3.785   6.334  16.254 -0.3375 -0.2417  0.0787
15261W        W31155   9.955  15.705   1.414 -0.2408  0.2103 -0.1179
15262W        W31156   6.103   4.733   3.072  0.0734  0.1310  0.1531
15263W        W31157   2.429   1.365  16.681 -0.0094  0.4790 -0.0653
15264W        W31158  11.358   2.114   1.415  0.1194 -0.1537 -0.0832
15265W        W31159   0.314  11.005  15.675  0.1800 -0.0623  0.0969
15266W        W31160   9.321  14.223   4.340 -0.0992 -0.2891 -0.1090
15267W        W31161   8.337  14.980   0.325  0.0672 -0.1860  0.4371
15268W        W31162   5.738   3.455  15.473 -0.0020 -0.0719  0.3667
15269W        W31163   1.846   7.788   3.493 -0.0902  0.1822  0.2982
15270W        W31164  10.756   7.718  14.019 -0.0527 -0.0852 -0.1826
15271W        W31165   8.258   2.721  14.562  0.2348  0.0884  0.0735
15272W        W31166   4.627   0.134   0.302  0.0907  0.1059  0.0282
15273W        W31167  11.839   7.720  14.779  0.4070  0.4058 -0.2175
15274W        W31168   5.886  11.071   0.486  0.0725 -0.0659 -0.1630
15275W        W31169  15.135   9.055   5.129  0.0901  0.3838  0.0250
15276W        W31170   0.981  10.506  14.190  0.0456 -0.4118  0.0790
15277W        W31171  13.086  10.939   4.422  0.3415 -0.0252  0.0995
15278W        W31172   1.057  16.968  12.348 -0.1036  0.1015 -0.2666
15279W        W31173   7.287   5.339  17.121  0.0304  0.0700 -0.0542
15280W        W31174   6.172  12.634  16.893 -0.0891 -0.0074 -0.2215
15281W        W31175   6.114   1.323  16.819 -0.1326 -0.0317  0.1827
15282W        W31176   8.414  14.286   0.462  0.3395  0.2442  0.4643
15283W        W31177   6.525  10.735   2.714  0.0433  0.1746  0.0500
15284W        W31178   7.329  15.379  14.784 -0.2229  0.1174 -0.0484
15285W        W31179   7.921  13.988   1.167  0.3241 -0.1253  0.0246
15286W        W31180  17.078  13.018   2.395  0.1806  0.0916  0.0556
15287W        W31181  14.196   7.120   5.461 -0.0985 -0.2976 -0.0694
15288W        W31182   3.029   7.443   4.261 -0.0772  0.1657 -0.3659
15289W        W31183  10.301  12.633  14.707 -0.4535  0.1967 -0.1403
15290W        W31184  11.448   3.813  14.934  0.0045 -0.0557  0.2850
15291W        W31185   6.244  13.511   1.488 -0.1009  0.1702  0.0467
15292W        W31186   7.506  13.428  13.615 -0.1765 -0.2399 -0.0930
15293W        W31187   6.643  12.422  17.064  0.0552 -0.0953 -0.1861
15294W        W31188   9.873  15.870  14.152 -0.0142 -0.2421 -0.0800
15295W        W31189   4.224   6.401   1.661  0.1204 -0.0796  0.0166
15296W        W31190   8.416   3.164   0.073 -0.0517 -0.2132 -0.2731
15297W        W31191   1.574  14.744   1.411 -0.1111  0.3606 -0.0594
15298W        W31192   1.548  14.874   2.931 -0.3223  0.1865 -0.3978
15299W        W31193  14.812   4.050  15.343  0.2450 -0.0455 -0.0917
15300W        W31194   4.259   2.761  16.134  0.3547  0.1756  0.0287
15301W        W31195  14.323   0.750   3.688  0.4936 -0.0547  0.2645
15302W        W31196  16.205   2.761  14.324 -0.0398 -0.1307  0.1974
15303W        W31197   4.084   2.234   2.408  0.1695 -0.3112  0.0116
15304W        W31198  17.347   6.007  16.948 -0.2222  0.1840  0.4028
15305W        W31199  11.238  14.335   5.262 -0.3583  0.1542  0.0240
15306W        W31200   6.485   5.322  12.175 -0.1162 -0.0395 -0.0732
15307W        W31201   8.566   8.275  14.761 -0.0611  0.0417  0.1818
15308W        W31202   8.185  10.131   0.650  0.3123 -0.1553 -0.0288
15309W        W31203   0.724  11.788  16.621 -0.2312  0.1507 -0.0321
15310W        W31204   7.124   1.039   3.997  0.1415 -0.0278 -0.0632
15311W        W31205   6.970  13.992  13.806  0.2659 -0.0747 -0.1869
15312W        W31206  12.061   7.631   1.911  0.0604 -0.1637 -0.1178
15313W        W31207  14.125   3.799  14.135 -0.0624 -0.1515 -0.1302
15314W        W31208  11.899  13.885   3.163  0.2012  0.1474  0.0213
15315W        W31209   8.115  15.442  13.295  0.3304  0.1859 -0.0105
15316W        W31210   5.393   2.109  16.487 -0.1152  0.3193 -0.1364
15317W        W31211   6.499   6.340   1.479  0.2222 -0.2478 -0.0503
15318W        W31212  11.378   8.939  12.287  0.0586  0.2741 -0.2461
15319W        W31213   7.975  11.719   5.126  0.1391 -0.2452  0.3428
15320W        W31214   9.187  16.137   1.420 -0.1220 -0.0412 -0.0779
15321W        W31215   8.930  12.879  16.326  0.1187  0.0322  0.1401
15322W        W31216  12.952   0.735  16.254 -0.1846  0.0266 -0.2202
15323W        W31217  12.651  12.679  15.862  0.1355 -0.2332  0.1419
15324W        W31218  14.960   4.628  15.130  0.0774  0.3457 -0.4094
15325W        W31219  15.057   5.858   0.319  0.0916 -0.2085  0.1905
15326W        W31220  15.189   7.167  16.235  0.0048 -0.2655  0.1344
15327W        W31221  12.533  10.283   1.232 -0.2064 -0.0358  0.0188
15328W        W31222   5.685   1.924   1.465 -0.2433 -0.2258 -0.0068
15329W        W31223   7.773  16.989   5.258 -0.2646  0.3884 -0.0126
15330W        W31224   3.039  15.321   1.255  0.1051  0.1809 -0.1192
15331W        W31225  16.901   8.876  12.219  0.1242  0.0589 -0.1748
15332W        W31226  13.551   0.535  16.839 -0.0710 -0.1702  0.3495
15333W        W31227  17.483  12.091   2.366 -0.0609 -0.0169 -0.0796
15334W        W31228   4.798   5.588  16.340  0.2291  0.0975  0.1127
15335W        W31229   4.721   4.997   0.635  0.0439 -0.3910  0.4482
15336W        W31230  11.054   7.606  11.344 -0.0331 -0.0441 -0.2348
15337W        W31231  17.290  13.384   6.170 -0.0237  0.1414 -0.2774
15338W        W31232   3.346   0.144   5.867  0.0093  0.1190 -0.0886
15339W        W31233   9.021  14.508  14.845 -0.2025 -0.0984 -0.1385
15340W        W31234   2.222   6.011   5.161  0.1758  0.2042  0.2254
15341W        W31235  14.783   7.263  14.548 -0.1941  0.1247  0.0608
15342W        W31236  10.879   5.190  12.892 -0.0937  0.0368  0.0490
15343W        W31237   0.485   6.144   0.270  0.2263 -0.2044 -0.0377
15344W        W31238   4.646  14.274   5.985 -0.1656 -0.2191  0.0010
15345W        W31239   5.956   3.806   2.728  0.3200  0.0109 -0.0776
15346W        W31240   1.509   1.789  13.682  0.1216  0.0119  0.1194
15347W        W31241  16.136   4.356   6.658  0.2772  0.0604  0.3392
15348W        W31242  10.511  15.623  13.728 -0.1822  0.0606 -0.2529
15349W        W31243   8.082  17.371  13.786 -0.0470  0.2570 -0.2718
15350W        W31244   7.307  17.319   3.149  0.0894  0.1537  0.1587
15351W        W31245  10.826   7.175  13.455  0.5186 -0.3367  0.5269
15352W        W31246  11.553   8.136   3.047 -0.0243 -0.0437 -0.0313
15353W        W31247   3.758  14.698  12.577 -0.1822  0.1931 -0.0639
15354W        W31248   6.492  14.614  12.302 -0.0208  0.0552  0.2495
15355W        W31249  15.176   1.851  13.984 -0.1914 -0.2081  0.0271
15356W        W31250   7.796   7.687   5.866 -0.4021 -0.3883 -0.0823
15357W        W31251   6.132   9.661   0.224  0.1036  0.1265 -0.3680
15358W        W31252  17.427   6.736   1.846 -0.2887 -0.0108 -0.0610
15359W        W31253   8.857  15.042   0.747  0.0632  0.0682  0.1233
15360W        W31254   3.324   5.751   0.187  0.1544 -0.0745  0.1658
15361W        W31255   7.553   1.193  16.331  0.1522  0.1336  0.0382
15362W        W31256   9.275   5.460   5.158 -0.0421 -0.0351  0.2906
15363W        W31257  15.514  12.233   1.874 -0.1732  0.0060 -0.1314
15364W        W31258   1.510   0.377   1.760 -0.0877  0.2000  0.3203
15365W        W31259   6.340  16.657   5.378  0.0301  0.1692  0.0258
15366W        W31260  14.298   1.766  15.647 -0.0092  0.0110 -0.0374
15367W        W31261   5.386  11.185   3.944  0.3271 -0.0159  0.1288
15368W        W31262   9.767   5.119  11.723  0.2846  0.2312  0.1990
15369W        W31263   1.359   7.885  16.107 -0.1660  0.0032 -0.0366
15370W        W31264  16.265   2.740   5.936  0.3716  0.1117  0.0863
15371W        W31265   3.239  11.308  14.776 -0.1510  0.1009  0.2662
15372W        W31266   9.978   3.580  15.021  0.0014  0.0514  0.3718
15373W        W31267   4.446   0.385   7.034  0.1671 -0.1048  0.3332
15374W        W31268  15.173  16.967   3.488  0.2336  0.0973 -0.1520
15375W        W31269  15.247   9.542   5.132  0.1071  0.1664  0.0560
15376W        W31270  14.289  15.835   4.311 -0.0664 -0.0190  0.0242
15377W        W31271  13.324   4.045   5.279  0.0728  0.1188 -0.2463
15378W        W31272   6.360   8.397  15.842 -0.0549  0.4193  0.2640
15379W        W31273   3.221  13.165   4.889 -0.2362 -0.2798 -0.2327
15380W        W31274   9.393  16.248  15.254  0.0576  0.0156  0.0474
15381W        W31275   7.216  13.929   4.011  0.0309  0.1745  0.1228
15382W        W31276  13.874  12.953   4.447  0.0091  0.1771  0.1467
15383W        W31277  16.088   4.790   2.228 -0.0833  0.0840  0.0294
15384W        W31278   1.334   2.936   2.214 -0.1050 -0.0895 -0.1231
15385W        W31279   1.031   0.012   2.861 -0.2536 -0.3314 -0.1242
15386W        W31280  13.068   1.344  15.910  0.3230  0.0367  0.1179
15387W        W31281   4.340  13.749  11.780  0.0507 -0.2647 -0.0107
15388W        W31282  10.626   8.197  10.919  0.2579 -0.2288 -0.3132
15389W        W31283   8.818  12.827  11.952  0.0247  0.1748 -0.0811
15390W        W31284  15.220   2.291  13.195  0.3186 -0.2800 -0.2364
15391W        W31285  13.279   5.757   4.805 -0.1233 -0.0210 -0.1255
15392W        W31286   6.083  15.829  11.679 -0.0136 -0.0886  0.2274
15393W        W31287   2.258   4.441  12.811 -0.0050  0.2274 -0.0742
15394W        W31288  16.022   3.676   3.931  0.2510  0.0903 -0.1506
15395W        W31289  16.948  13.034   3.215 -0.2893 -0.3060  0.3652
15396W        W31290  12.843   3.248   0.258 -0.0955 -0.0139  0.2707
15397W        W31291   5.408   5.259  13.136 -0.1524  0.0191  0.0543
15398W        W31292  15.771  14.932  12.640  0.2598  0.2880  0.2474
15399W        W31293   6.628  14.449   0.425  0.1530  0.1089  0.0152
15400W        W31294  14.079  13.879  13.213  0.1403  0.3083  0.0377
15401W        W31295   2.300  15.090   6.816  0.1545 -0.1801 -0.3230
15402W        W31296   1.093  16.975  10.814 -0.0788 -0.1278 -0.0350
15403W        W31297   3.578   7.102   0.830  0.0139  0.0004  0.0022
15404W        W31298   1.654  10.490  16.508  0.0547 -0.0606  0.0932
15405W        W31299   3.385  17.573  16.368  0.4103 -0.0793  0.0559
15406W        W31300   2.225   1.290   1.654 -0.2732 -0.0015  0.4272
15407W        W31301   6.047   6.097   1.473 -0.1790  0.0577  0.0981
15408W        W31302  14.793   8.110  14.374  0.2723  0.2323  0.0573
15409W        W31303  16.362   4.867   1.390 -0.0851 -0.2350 -0.0205
15410W        W31304   8.355   4.133   3.018 -0.0962 -0.1067 -0.1477
15411W        W31305  16.919   1.018  13.500  0.0950  0.2846  0.1963
15412W        W31306  10.357  14.930   1.193 -0.0243  0.2767 -0.4189
15413W        W31307   0.771   6.175  16.647  0.1290 -0.2662  0.0845
15414W        W31308  13.123  11.273  13.556 -0.0679  0.2792  0.0917
15415W        W31309  14.474   0.753   2.914  0.0520 -0.0434 -0.1978
15416W        W31310  13.565   7.520   5.880  0.2347 -0.2238  0.2940
15417W        W31311   7.238  12.635   3.505 -0.3137  0.2602 -0.0549
15418W        W31312   5.422  11.947   0.137  0.0139 -0.1917  0.3187
15419W        W31313   9.292  17.541  13.506 -0.2608  0.1042  0.2253
15420W        W31314  16.938   8.199  16.966  0.0429  0.2244 -0.2221
15421W        W31315   3.500   2.974  14.040  0.3306 -0.0217  0.0071
15422W        W31316  10.954   1.836  13.107  0.0280  0.0134 -0.1911
15423W        W31317   8.399  17.230  16.971  0.0822  0.3716 -0.2457
15424W        W31318   5.391  11.706   1.329  0.1431  0.1381 -0.1810
15425W        W31319   2.227  13.892   2.860  0.1534 -0.0501  0.2383
15426W        W31320  11.131   2.755   5.323 -0.0039 -0.1237  0.0535
15427W        W31321  10.659  12.853  12.022 -0.1219  0.1148 -0.0230
15428W        W31322  12.575   0.377  12.474  0.0507 -0.1797 -0.3149
15429W        W31323   9.986   6.465  14.667 -0.3603 -0.1803  0.1152
15430W        W31324  13.707   9.523  11.845 -0.2632  0.2767 -0.0168
15431W        W31325   7.963   0.108   1.832  0.0530 -0.2841  0.0766
15432W        W31326   2.455   4.623   6.250  0.1203 -0.1161  0.0315
15433W        W31327  11.263  16.218  12.360 -0.0347 -0.0706  0.0183
15434W        W31328   0.405  12.032  13.639  0.0128  0.1075  0.0245
15435W        W31329  13.823  10.393  14.001 -0.0060 -0.1068  0.2373
15436W        W31330   5.092   6.084  13.064 -0.1652 -0.0134  0.1429
15437W        W31331   0.257   4.330   3.536 -0.0255  0.0036  0.2850
15438W        W31332   3.091   6.657   2.937 -0.3630 -0.0501 -0.2318
15439W        W31333  13.406  16.485  16.096  0.2407  0.0470 -0.0807
15440W        W31334   1.739  10.379   0.084 -0.4015 -0.2102  0.2115
15441W        W31335  16.895  15.114  16.235 -0.1559 -0.1818 -0.1149
15442W        W31336   8.402   4.593   3.909  0.2355  0.0664 -0.0925
15443W        W31337  13.213  11.023  14.445  0.0378 -0.0108 -0.1049
15444W        W31338   5.355   9.966  14.455  0.0573 -0.0888  0.0685
15445W        W31339   6.038   9.856   5.129  0.0223  0.1665 -0.1034
15446W        W31340   0.890   5.987  17.125 -0.1485 -0.1214 -0.2494
15447W        W31341   2.043   2.510   6.653  0.2753 -0.2455 -0.0093
15448W        W31342   9.636  13.010  15.822 -0.2515  0.3247 -0.1970
15449W        W31343   8.492   9.295   0.288 -0.2263 -0.0088  0.0309
15450W        W31344   9.249   7.590   2.678 -0.0268  0.4058 -0.0583
15451W        W31345   6.493  14.889  13.882 -0.0783  0.0394  0.3230
15452W        W31346   2.630   7.166   5.519 -0.1963  0.1652 -0.1428
15453W        W31347   1.907   7.412   1.968  0.1893  0.1688  0.1862
15454W        W31348   4.536  14.749  12.762  0.2109  0.0421  0.0890
15455W        W31349  10.611  17.152  13.025  0.0241  0.0209  0.0324
15456W        W31350  16.479   8.657   2.580  0.2898 -0.0350  0.0609
15457W        W31351   8.698  10.763  16.472  0.0827  0.0355  0.1492
15458W        W31352   6.407  16.073  12.086  0.2881 -0.2160 -0.3834
15459W        W31353   2.200  13.661  15.612  0.5846  0.0721 -0.0933
15460W        W31354  14.060   4.478  13.474 -0.1060  0.0144 -0.0623
15461W        W31355  11.763   8.673  15.290  0.2291 -0.0040  0.0820
15462W        W31356  14.151   7.818   1.364 -0.0749 -0.3464 -0.4204
15463W        W31357   6.060   7.631   4.160 -0.0363 -0.2665  0.0632
15464W        W31358   1.159  14.746  16.747  0.0066  0.0993 -0.1764
15465W        W31359  17.046  10.256  12.436 -0.1336  0.0163 -0.0271
15466W        W31360  13.463   6.218   6.157 -0.0441  0.0170 -0.0145
15467W        W31361   0.419  14.494   1.234 -0.0439 -0.0532 -0.2861
15468W        W31362   6.586   5.020  15.777  0.0388 -0.2141  0.2151
15469W        W31363  14.502   4.114   5.628 -0.3414 -0.3593  0.0731
15470W        W31364   8.397   5.313   1.886  0.3648 -0.1603 -0.3736
15471W        W31365  11.707   3.476  13.098  0.1361  0.2201  0.0648
15472W        W31366  11.899   0.583   0.352  0.0134 -0.3018  0.1774
15473W        W31367  15.613   9.813   2.649  0.1800  0.1319 -0.1427
15474W        W31368   0.965   1.113   4.014 -0.0409  0.1589  0.0195
15475W        W31369   0.372   9.987   5.735  0.1514 -0.1001 -0.1989
15476W        W31370  12.220   9.933  17.169  0.1733  0.4401  0.0854
15477W        W31371  15.912   5.535   3.723 -0.0253 -0.0509  0.1696
15478W        W31372   1.991   4.949   2.186 -0.0262 -0.1085  0.2323
15479W        W31373  15.307   6.935  12.929 -0.0152  0.1691 -0.0229
15480W        W31374   0.887   6.333   2.721  0.0661  0.0655 -0.0456
15481W        W31375   0.978   3.785  13.361  0.0310  0.2765  0.3188
15482W        W31376  14.498   7.018  14.084  0.1350  0.1999 -0.1548
15483W        W31377  11.719   2.044  14.983 -0.2855  0.1470  0.0258
15484W        W31378   5.257  16.625  13.960  0.3617 -0.0338  0.0546
15485W        W31379  10.582   3.918  15.605  0.4138 -0.0973  0.1705
15486W        W31380   5.782   2.408   4.700  0.1609  0.1066  0.0655
15487W        W31381  11.911   7.243   1.321  0.2088 -0.1993 -0.0632
15488W        W31382   4.353   5.195   5.165 -0.3138 -0.0287  0.1188
15489W        W31383   3.223  13.106  16.464 -0.2101 -0.1207  0.1268
15490W        W31384   0.678   2.915  14.535  0.0756 -0.0908  0.1299
15491W        W31385   8.634   5.287  16.064 -0.1128  0.0470  0.2733
15492W        W31386   8.347  16.138   5.375  0.0557  0.1264 -0.0944
15493W        W31387  15.468   4.276   4.163  0.3049  0.0857  0.1621
15494W        W31388   2.740  12.776   2.571 -0.0221  0.2691  0.1831
15495W        W31389   0.108   7.212  16.742  0.0315  0.1908 -0.2668
15496W        W31390   6.479  15.593  12.058 -0.2311  0.0933  0.2088
15497W        W31391   6.142   3.567   4.255 -0.3416 -0.0215 -0.0434
15498W        W31392   8.080   1.705   5.253  0.2260 -0.0764  0.3436
15499W        W31393  13.609  14.696   5.161 -0.2836 -0.0424 -0.1110
15500W        W31394  10.261  10.537   2.200 -0.0570  0.1262 -0.0758
15501W        W31395  15.401  15.086   1.546 -0.0497 -0.0176 -0.0819
15502W        W31396   6.523   8.721   3.168  0.3875  0.1838 -0.2686
15503W        W31397  11.980  16.247  15.528 -0.0232 -0.0677  0.1723
15504W        W31398  13.926   2.436  12.974 -0.0908 -0.1480  0.1422
15505W        W31399  12.244   2.020  16.417  0.0346 -0.2411 -0.1894
15506W        W31400  11.607  15.071  14.239 -0.0793 -0.0366  0.0018
15507W        W31401   3.974  17.349  16.927 -0.1340 -0.1639  0.5193
15508W        W31402   4.502  11.910  14.479 -0.0843  0.1747 -0.1885
15509W        W31403   1.909  12.203   4.080 -0.2673 -0.1488  0.0088
15510W        W31404  17.402   0.693  13.645  0.0984  0.0425 -0.0569
15511W        W31405  14.412  16.520   0.471  0.1062  0.3935 -0.3313
15512W        W31406   3.786   5.473   1.930 -0.0250  0.2084  0.1897
15513W        W31407  14.639   3.975   0.553  0.1364  0.4269  0.1822
15514W        W31408  12.608   0.349  13.377 -0.0308  0.1329 -0.0595
15515W        W31409  12.743  11.258   0.167 -0.1331 -0.4001 -0.2689
15516W        W31410  14.895   2.877  14.185  0.3807 -0.4225  0.0296
15517W        W31411  10.968   6.578   0.387 -0.0596 -0.0060 -0.0567
15518W        W31412  14.741   5.043   5.549 -0.3097  0.0882  0.0595
15519W        W31413  15.190   7.611  11.860  0.0513 -0.0333 -0.3389
15520W        W31414   9.746   2.912  14.389 -0.0334  0.0109 -0.4450
15521W        W31415  16.442   6.726   0.187 -0.5240 -0.0215 -0.1082
15522W        W31416  10.648  15.152   4.345 -0.0155  0.3010 -0.1468
15523W        W31417  17.312   2.302   2.224  0.1546  0.1362 -0.0811
15524W        W31418  17.410  15.099   5.586 -0.2096 -0.3759 -0.0112
15525W        W31419  14.742   0.737   1.456 -0.2379 -0.3473  0.0143
15526W        W31420  17.214   3.112   2.015  0.0615 -0.2285  0.0401
15527W        W31421   8.742  13.619  16.463  0.0997 -0.0744  0.0617
15528W        W31422  16.871   4.253   2.516  0.0687 -0.0985  0.2518
15529W        W31423   4.254  16.738  16.297 -0.0909  0.3137  0.0299
15530W        W31424  11.411  11.588  15.977 -0.4200  0.0933  0.0322
15531W        W31425   9.122  10.122   4.343 -0.2536 -0.2017 -0.1093
15532W        W31426  11.858  11.954   5.429  0.0750 -0.0201 -0.4799
15533W        W31427   1.010   4.044   2.394 -0.1636  0.1030 -0.0898
15534W        W31428   2.835  17.401   2.712 -0.0185 -0.3818 -0.0364
15535W        W31429   1.752   9.034  13.358 -0.0920  0.2868 -0.0600
15536W        W31430   4.570  16.724   0.966  0.0131  0.0996  0.1613
15537W        W31431  12.581   2.783  16.755 -0.4549  0.0476 -0.0263
15538W        W31432   5.890   3.894  16.710 -0.0346 -0.3721 -0.2967
15539W        W31433  10.885  10.057   0.402 -0.3486 -0.1279  0.2547
15540W        W31434   5.857  13.947   3.955  0.1043  0.1104  0.2763
15541W        W31435   8.545   0.727   5.647  0.0354 -0.3507 -0.0952
15542W        W31436   2.791   1.022  12.335  0.1815 -0.0254  0.1922
15543W        W31437   0.767   1.920   2.271  0.0310  0.3539 -0.0863
15544W        W31438  17.364   7.165  15.589 -0.2264 -0.0855  0.0327
15545W        W31439   5.187  11.399  14.883  0.0782 -0.1131  0.0486
15546W        W31440  11.522   4.337   3.170 -0.1659 -0.1070  0.1798
15547W        W31441  10.109   7.366  15.156  0.1694 -0.3285  0.2851
15548W        W31442  15.001  17.257   4.960 -0.3686  0.2719  0.1389
15549W        W31443   3.403   2.520  14.452  0.0214  0.0418  0.1233
15550W        W31444   8.717  15.922   4.422 -0.1555 -0.0505 -0.2132
15551W        W31445   6.616   2.415   4.180 -0.2808 -0.1032  0.0093
15552W        W31446   2.625   7.181  13.759  0.0717  0.1459 -0.3108
15553W        W31447  16.151   9.674   3.771 -0.0674 -0.2324 -0.0665
15554W        W31448   8.492  10.832  12.040 -0.0405  0.0439  0.0116
15555W        W31449  11.527  10.556   3.810  0.2291 -0.1368  0.0256
15556W        W31450   5.153   5.854  13.894 -0.0009  0.0669  0.0337
15557W        W31451   5.489  15.959   3.429 -0.0090  0.0390 -0.4156
15558W        W31452   5.730  14.012   6.087 -0.0134  0.0270  0.2645
15559W        W31453   4.242  11.485   1.289  0.0095 -0.1845 -0.1119
15560W        W31454  14.779   9.188   5.473  0.0586  0.0752  0.2332
15561W        W31455   8.555   6.359  13.561 -0.1468 -0.0202  0.0863
15562W        W31456   8.029  14.941   3.166 -0.0050 -0.1308  0.0712
15563W        W31457   6.101   4.742   0.752  0.0789 -0.0261  0.1058
15564W        W31458  14.372  11.956   5.222  0.0709  0.0108  0.1424
15565W        W31459   5.811   7.353  12.299  0.0481  0.0095 -0.0645
15566W        W31460   0.957  13.172  16.409 -0.0522  0.2753  0.2380
15567W        W31461  15.600  14.278   5.818  0.1646  0.0882  0.0300
15568W        W31462  16.690  15.923   2.771  0.0224  0.2172 -0.1661
15569W        W31463   2.363  11.154  15.501 -0.4595 -0.2027  0.0815
15570W        W31464   1.615  15.467   4.420 -0.1553 -0.0985  0.0825
15571W        W31465   9.769   4.753   0.071 -0.3768  0.0495  0.2130
15572W        W31466  15.829   4.956   1.201 -0.3216  0.2790  0.0793
15573W        W31467   3.138   6.866   2.497  0.3563 -0.2944  0.0698
15574W        W31468   4.763   5.291   3.934  0.2308 -0.0844 -0.3690
15575W        W31469  12.100  17.518  14.020 -0.1671  0.0837 -0.0139
15576W        W31470   6.708   6.539  17.045 -0.2754  0.1320 -0.4000
15577W        W31471   2.806  11.844   4.208 -0.0041  0.0768 -0.2041
15578W        W31472  15.031  15.152   3.887  0.1974  0.3229  0.0073
15579W        W31473   1.091   3.952   5.310  0.2386  0.1699  0.1528
15580W        W31474  11.182   6.195  12.523  0.3069  0.0680 -0.0477
15581W        W31475   7.545   2.457  12.249  0.0113 -0.3042  0.2459
15582W        W31476  10.527  10.152   0.747  0.3256  0.1140  0.0399
15583W        W31477  14.099  14.131   0.788  0.0929 -0.2706 -0.0136
15584W        W31478   0.582  16.689  15.704  0.1969 -0.1280  0.0164
15585W        W31479   3.766   5.346  14.733 -0.1273 -0.3040  0.0162
15586W        W31480  16.492   0.734   4.988  0.0200  0.0126 -0.0053
15587W        W31481   9.398  15.165  14.100  0.0117  0.0163  0.2539
15588W        W31482  11.392  14.735  16.329  0.1082 -0.1476 -0.0718
15589W        W31483  13.856   4.007  13.767 -0.0750  0.1911  0.2851
15590W        W31484   2.982  16.050  15.172  0.0243 -0.3618 -0.0888
15591W        W31485  11.012   7.535   2.093 -0.1260 -0.1663 -0.2774
15592W        W31486   7.190  17.371   2.272  0.0961 -0.0037  0.0132
15593W        W31487   1.363   3.841   5.679  0.0845 -0.3540  0.0645
15594W        W31488  13.426  13.686   4.469  0.0569  0.2167  0.0945
15595W        W31489  11.264   4.119   0.812  0.1906  0.2230 -0.2150
15596W        W31490   8.086   3.186   0.611 -0.0309 -0.0357 -0.1014
15597W        W31491   1.315  15.202   0.831 -0.2535  0.0065 -0.1805
15598W        W31492  15.563   5.340   2.784 -0.2872 -0.2204  0.0530
15599W        W31493   5.189  10.599   2.657  0.1351 -0.0823  0.1629
15600W        W31494   3.577  14.241  12.385 -0.0826 -0.3260 -0.0717
15601W        W31495  15.808   7.204   2.427  0.3191 -0.3536 -0.1081
15602W        W31496  16.366   1.098   5.986 -0.4980  0.1620 -0.0626
15603W        W31497  13.768   2.923   1.879  0.0795  0.2239  0.3012
15604W        W31498  14.478  15.640   2.410  0.0214 -0.0489  0.0773
15605W        W31499   5.801   3.328   4.619  0.0249  0.0400  0.0708
15606W        W31500   6.536  10.191  13.494  0.1005  0.0059  0.1696
15607W        W31501   7.800   3.735  14.342 -0.1136 -0.0830 -0.0188
15608W        W31502  15.871  11.638   4.354  0.1411 -0.2144 -0.1064
15609W        W31503   2.849  13.905  14.242  0.0809  0.2572 -0.1260
15610W        W31504   5.097  13.329  13.024 -0.0529  0.3751  0.2185
15611W        W31505   4.641  15.148   0.043  0.0076  0.2959  0.1457
15612W        W31506   2.851   3.874   0.425 -0.0734  0.0933 -0.1313
15613W        W31507  11.175   0.052   4.438  0.1985  0.1873 -0.1214
15614W        W31508   3.433   5.958   3.405  0.0013  0.1571 -0.0023
15615W        W31509  13.477  12.507  15.362  0.5656  0.0413  0.1452
15616W        W31510  13.088  13.845  15.426  0.2511  0.1216  0.0542
15617W        W31511   9.493  13.047   0.638 -0.3347 -0.1089 -0.2599
15618W        W31512  10.697   8.775  16.916 -0.0579  0.2553 -0.0082
15619W        W31513  17.220  11.183   3.526  0.0323  0.1929 -0.2616
15620W        W31514   1.562   0.074   5.920  0.2340 -0.1286  0.2446
15621W        W31515   7.702   5.986   2.836  0.1790 -0.0250  0.1924
15622W        W31516   7.510  10.582  12.990  0.0660  0.2032 -0.1998
15623W        W31517   7.531  10.273  16.541 -0.0589  0.0926  0.1676
15624W        W31518   8.249   8.152   1.319  0.2599 -0.1191  0.2053
15625W        W31519  17.219   1.366   5.377  0.1238 -0.0451 -0.2243
15626W        W31520  10.628   9.684   2.792  0.0988  0.0622  0.0140
15627W        W31521   8.610   8.172  12.289  0.0005  0.1942 -0.0549
15628W        W31522   6.869   0.736   0.319 -0.1811 -0.0943 -0.1468
15629W        W31523   4.352   1.513   2.934 -0.2075 -0.3312  0.1234
15630W        W31524   7.981   8.887   5.548  0.0725 -0.1264  0.0952
15631W        W31525   7.821   1.288   5.525  0.0129 -0.1186 -0.2040
15632W        W31526   5.217   1.592   6.031  0.2078  0.1114 -0.0379
15633W        W31527  12.639  17.122   3.083  0.2320 -0.1161 -0.2547
15634W        W31528   2.720   3.270  14.448  0.2335 -0.2460 -0.0969
15635W        W31529   4.706  12.971  15.552 -0.2763  0.0448 -0.0685
15636W        W31530   4.805  12.871  13.517  0.2882  0.4795 -0.0166
15637W        W31531  14.558  16.132   1.571  0.2089  0.1930  0.2075
15638W        W31532   9.559  14.482   2.449 -0.1051  0.3450  0.1574
15639W        W31533   4.909  12.237  14.490 -0.1271  0.1684 -0.1703
15640W        W31534  10.241   9.726  14.784 -0.3742  0.1705  0.3730
15641W        W31535  16.103  14.586   0.513 -0.0690  0.2394  0.0077
15642W        W31536  16.465   2.265   1.322  0.1378 -0.0796 -0.2362
15643W        W31537  13.966   7.782   0.920 -0.1225  0.1033  0.4643
15644W        W31538   7.099   6.008   5.249  0.3233  0.2282 -0.0396
15645W        W31539   7.857  13.584  12.169  0.0005  0.2543  0.0262
15646W        W31540   6.149  14.884   4.064 -0.2593  0.0239  0.0999
15647W        W31541   4.900  13.686   3.445  0.1565  0.0933 -0.1174
15648W        W31542  10.629   9.443   3.777  0.0604  0.2149 -0.2045
15649W        W31543   7.738  17.189   1.963 -0.2012  0.2574  0.0190
15650W        W31544  13.656  14.141  16.295  0.0232 -0.2603 -0.2176
15651W        W31545  17.156   1.339   2.452 -0.2906  0.5200  0.0144
15652W        W31546   2.014  12.619  14.336  0.0060 -0.0820 -0.0733
15653W        W31547   4.720   5.066   6.605 -0.1623 -0.0523 -0.0586
15654W        W31548   0.222   0.952   2.115 -0.0490  0.0153  0.0680
15655W        W31549   9.727   0.719  12.092  0.0231 -0.1831 -0.0074
15656W        W31550   2.727  14.512   4.554  0.0990 -0.0581 -0.1260
15657W        W31551   1.656   8.793  16.213 -0.0573  0.1453  0.1725
15658W        W31552  12.559  16.876  15.221 -0.0028  0.0052  0.0292
15659W        W31553  16.737   3.800   2.417 -0.0339  0.0163  0.4551
15660W        W31554   7.183  15.006  11.953  0.1247 -0.2646 -0.1809
15661W        W31555   1.649   2.367  12.672  0.4108 -0.0897 -0.2543
15662W        W31556   0.018   9.244   1.979  0.0065 -0.2294 -0.2804
15663W        W31557  13.409   7.723  17.197 -0.1396  0.0407 -0.0266
15664W        W31558  17.523  14.129  14.828 -0.3921  0.2742  0.1963
15665W        W31559   4.104   1.165   4.721  0.2309 -0.3907 -0.0995
15666W        W31560   0.684  16.551  13.371 -0.2735 -0.0123  0.1608
15667W        W31561  15.732  11.239  11.718 -0.3004  0.2758  0.0782
15668W        W31562   0.534   7.776   0.291  0.0393 -0.2970  0.0949
15669W        W31563   4.691  16.146  12.440  0.1296 -0.2763  0.0267
15670W        W31564  13.677   0.133  14.660 -0.2802  0.2251  0.1445
15671W        W31565  16.224  16.386  12.527  0.0498 -0.1644  0.0625
15672W        W31566   5.306  12.069  13.887 -0.3460 -0.0728 -0.0214
15673W        W31567  11.172   4.594   0.048  0.1157 -0.1792  0.1275
15674W        W31568  10.244   1.902   5.531  0.1717  0.0837  0.0561
15675W        W31569   5.510   2.955   2.758  0.0857  0.0323 -0.0399
15676W        W31570  11.725  12.225  12.869  0.0636  0.3298 -0.2226
15677W        W31571   9.724   1.374   6.473  0.0878 -0.2153 -0.1006
15678W        W31572  15.537  13.884  13.336 -0.3677 -0.3050 -0.1990
15679W        W31573  16.611   9.056  16.454 -0.0462 -0.0738 -0.3032
15680W        W31574   5.062   6.791   3.693  0.0274 -0.2256 -0.0732
15681W        W31575   4.811   6.700   2.403  0.0165  0.0964 -0.0142
15682W        W31576  15.092   1.876  15.653 -0.1820 -0.0022  0.2423
15683W        W31577  10.506   5.737   3.898 -0.0691  0.2638  0.2458
15684W        W31578   1.845   8.906  14.867 -0.1327  0.2685  0.0462
15685W        W31579   9.467  10.572  17.159 -0.0089 -0.1720 -0.0896
15686W        W31580  12.863   5.703  15.037 -0.0735 -0.3062 -0.2780
15687W        W31581  13.065  14.478  16.126  0.1716 -0.1103 -0.1641
15688W        W31582   6.878   4.013  15.055  0.0695 -0.0254 -0.0115
15689W        W31583   7.934  12.892  13.959  0.1021  0.1073 -0.0722
15690W        W31584  13.925   0.632   3.402  0.4051 -0.1356  0.1585
15691W        W31585   4.874   5.453   5.860  0.0839  0.1920 -0.0317
15692W        W31586  13.141   5.539   5.341  0.4389  0.0615 -0.0442
15693W        W31587   9.547  11.857  14.878  0.1888 -0.1824  0.0471
15694W        W31588   4.130   5.116  12.781  0.0930  0.0657 -0.2405
15695W        W31589  13.300   8.675  11.718  0.1337  0.0612 -0.0080
15696W        W31590  13.004   3.273  14.611  0.1115  0.2521  0.1096
15697W        W31591   6.951   7.680  15.938  0.2245 -0.2611 -0.1836
15698W        W31592  13.834   1.760   1.986  0.0101 -0.2334  0.0812
15699W        W31593  15.186   9.069  13.056  0.1267 -0.0121 -0.1318
15700W        W31594  17.630  16.015   2.848 -0.1180  0.0907 -0.2637
15701W        W31595   1.195  16.004  12.811 -0.0094  0.0910  0.0522
15702W        W31596   8.110   6.548  14.029 -0.0261 -0.1623 -0.1024
15703W        W31597  16.716   4.953  15.043  0.0147  0.1532  0.0366
15704W        W31598   8.233  10.008  16.926  0.2843  0.1645  0.1984
15705W        W31599  11.262  13.693   0.582  0.0258 -0.1605 -0.1531
15706W        W31600  14.384  13.370   2.423 -0.0185  0.1120  0.0392
15707W        W31601  16.828   4.773  13.279 -0.2856  0.0330 -0.1163
15708W        W31602  12.261  15.814   2.563  0.0109 -0.1173 -0.1846
15709W        W31603  10.976   0.758  15.677 -0.2764  0.1334  0.3345
15710W        W31604   0.627  10.072   3.533  0.1923  0.5403  0.1612
15711W        W31605   0.101  15.507   1.119  0.4237  0.2927  0.1711
15712W        W31606  16.095   5.558  17.146 -0.0384 -0.3868  0.1741
15713W        W31607  16.485   4.851   0.100 -0.2062  0.2100 -0.1558
15714W        W31608  11.933   5.698  12.211  0.0067  0.0737  0.0282
15715W        W31609   7.636  16.217   2.481  0.2380 -0.1008  0.3542
15716W        W31610   5.084   5.983   3.054  0.0166  0.1663  0.1404
15717W        W31611   7.002  11.862  11.547 -0.1198 -0.0908  0.0508
15718W        W31612  15.555   6.261  16.603 -0.1630  0.1326  0.1368
15719W        W31613  14.123   5.928   2.244  0.0191 -0.0124  0.1303
15720W        W31614   0.165   6.760  14.195  0.0853 -0.0587 -0.0632
15721W        W31615  15.248  12.454  12.136  0.2017  0.3939  0.1108
15722W        W31616   7.257   5.319   2.780 -0.0802 -0.0283  0.4128
15723W        W31617  13.886  10.299   0.650 -0.0259 -0.2969 -0.0713
15724W        W31618   7.920   7.852   2.786  0.1485  0.0805  0.2087
15725W        W31619  16.804  10.051  14.569  0.0929  0.1513 -0.0510
15726W        W31620   3.957   3.083  14.626  0.2075 -0.0031 -0.3003
15727W        W31621  16.341   9.773  14.568  0.1767 -0.3159  0.1956
15728W        W31622  13.403   3.158  12.094  0.1594 -0.0594 -0.0467
15729W        W31623   6.364   2.262   0.367 -0.0939 -0.0633  0.1557
15730W        W31624   5.127  11.642   4.046 -0.0761 -0.0590 -0.1052
15731W        W31625  16.093   7.014   3.674  0.0955  0.0961 -0.1335
15732W        W31626  15.246   1.068   1.139  0.1916  0.0203 -0.2921
15733W        W31627   7.461   5.574  16.012 -0.0407 -0.2894 -0.0599
15734W        W31628  11.597  15.622  11.671  0.1224 -0.1551  0.2200
15735W        W31629   0.236   4.994   5.372  0.0840  0.2736  0.0003
15736W        W31630   2.021  16.229  14.587  0.1834  0.0077 -0.0035
15737W        W31631  13.137  16.345  14.826 -0.0103  0.0659 -0.0053
15738W        W31632   4.139  10.520   6.053  0.2747 -0.1035 -0.0050
15739W        W31633  14.296   8.428  13.778  0.1633 -0.4507 -0.1185
15740W        W31634  17.630  15.819  16.726  0.0152  0.2072  0.0231
15741W        W31635  11.964  17.121  14.827  0.1463  0.1228 -0.1838
15742W        W31636  11.952   8.708   2.659 -0.0222 -0.3088  0.4200
15743W        W31637   2.815   8.761   6.549 -0.0601 -0.1306  0.0355
15744W        W31638   5.072   2.026   3.472  0.3614  0.0253 -0.0745
15745W        W31639  13.580   6.826  13.159  0.3153 -0.0314  0.1232
15746W        W31640  16.736  12.451  15.801 -0.1154 -0.2514 -0.2853
15747W        W31641  14.696   0.317   2.136  0.0066  0.0389 -0.2090
15748W        W31642   0.212   9.457   4.976 -0.0901 -0.1804  0.0402
15749W        W31643  14.800  16.332   1.992  0.0643  0.4390  0.0907
15750W        W31644   2.541   5.295  16.484  0.0290 -0.2358  0.3429
15751W        W31645   4.003  16.548  14.120  0.1115 -0.1546 -0.1177
15752W        W31646   2.469  11.703  14.308  0.0919 -0.0658 -0.2906
15753W        W31647   2.668  15.252   2.141  0.1126  0.1464  0.0898
15754W        W31648   2.356   5.435  13.362 -0.3558 -0.0762  0.1801
15755W        W31649  17.416   4.677   4.448  0.0938 -0.3834  0.0257
15756W        W31650   8.473   6.450  13.004 -0.1829  0.0396 -0.0770
15757W        W31651   0.178   2.459   3.913  0.0826 -0.1160  0.0098
15758W        W31652   3.617  16.199  16.990 -0.2144  0.2794  0.2320
15759W        W31653   7.397  16.038   5.000  0.4997 -0.1357  0.0642
15760W        W31654  16.785  15.204  12.862 -0.0175  0.1992  0.2102
15761W        W31655   5.390  10.175   1.643 -0.0139  0.1538 -0.1039
15762W        W31656   6.306  12.733   5.502  0.0902  0.2520  0.0800
15763W        W31657   6.223   7.722  14.288 -0.0950 -0.0217  0.0181
15764W        W31658  14.456  16.237   5.064 -0.0055  0.3670  0.1378
15765W        W31659   8.657  15.423   2.695 -0.1389 -0.0063 -0.2328
15766W        W31660   0.255   8.542   0.688 -0.0280  0.0358 -0.2153
15767W        W31661  10.722   2.734   6.391  0.1073 -0.0912 -0.2399
15768W        W31662  15.889  13.998   3.520 -0.0789 -0.1276  0.1201
15769W        W31663   0.005   4.927  15.158 -0.0399 -0.2078  0.0243
15770W        W31664   0.660   3.328   2.514 -0.3179 -0.1105  0.1257
15771W        W31665   9.217   4.575  15.999 -0.1945 -0.0147 -0.1727
15772W        W31666  17.614   5.856  15.117  0.0521  0.0955 -0.1394
15773W        W31667   7.100  13.541   0.073 -0.0853  0.1592 -0.4455
15774W        W31668  12.647  16.759   1.702  0.0997  0.3131  0.2180
15775W        W31669   1.716   7.898  13.310 -0.3696  0.0350 -0.0341
15776W        W31670  12.578   4.180   1.321  0.2239  0.1533  0.0295
15777W        W31671   8.596   0.610  16.702  0.1656 -0.0731  0.2914
15778W        W31672   2.686  13.045   5.375  0.2632 -0.1767  0.0002
15779W        W31673  11.985   3.129  17.285  0.2136 -0.3995 -0.0520
15780W        W31674   1.856  15.484   5.014  0.0027 -0.0286 -0.0203
15781W        W31675  10.203   5.603   5.316  0.0317  0.0015  0.0155
15782W        W31676   6.923  13.674  16.867  0.0515  0.0287  0.0579
15783W        W31677   6.935  11.733  12.019  0.0195 -0.2090 -0.1634
15784W        W31678   2.940  14.389  13.988 -0.0683 -0.1809 -0.1620
15785W        W31679   3.305  11.994   3.133 -0.1193  0.2315 -0.1757
15786W        W31680  13.824  14.055  14.854  0.0541 -0.0017 -0.0973
15787W        W31681   2.856   5.299   2.684  0.1415  0.0056 -0.0299
15788W        W31682   3.616   7.720  16.461 -0.1497  0.3820  0.1028
15789W        W31683   1.970   3.183   3.125  0.2141  0.0594  0.0532
15790W        W31684   1.271   5.356   0.405  0.1142  0.3638 -0.2482
15791W        W31685   5.711   9.673  16.676 -0.2435  0.3314  0.0019
15792W        W31686  11.222  16.897   0.938 -0.0561  0.2547  0.2862
15793W        W31687   6.728  13.436   5.517 -0.1725  0.1836  0.1086
15794W        W31688   6.140   2.397   2.480 -0.1875 -0.0692 -0.2000
15795W        W31689  12.180  11.621  12.542  0.0050 -0.2284  0.0684
15796W        W31690  12.733  15.713   0.870 -0.2923  0.0385  0.1024
15797W        W31691  16.712  17.603   4.216 -0.0470  0.0150 -0.0173
15798W        W31692   9.521   3.310   1.639 -0.0236  0.0378 -0.0340
15799W        W31693  15.737   7.752   0.120 -0.3006  0.0591 -0.0298
15800W        W31694   6.117   4.929  15.491  0.1911  0.0598 -0.0186
15801W        W31695  16.072  10.790   5.193  0.2498  0.1022 -0.0004
15802W        W31696  13.078   4.400   3.026  0.1807  0.0441 -0.0632
15803W        W31697   2.018  14.976  15.485 -0.0065  0.1153  0.0910
15804W        W31698   9.625  15.969  16.294 -0.1179 -0.0401 -0.0959
15805W        W31699  14.957   6.342   3.200  0.1290  0.3283 -0.1286
15806W        W31700   4.444   4.722   1.044  0.1881 -0.0197 -0.0735
15807W        W31701   5.035  10.166  16.547  0.1628  0.0425 -0.0555
15808W        W31702  14.778  11.201   0.573 -0.0613  0.3131  0.1470
15809W        W31703   7.952   1.923   0.644  0.4118 -0.1055 -0.0637
15810W        W31704   6.190  15.820   5.833 -0.1960 -0.4443  0.2232
15811W        W31705   9.178  16.594  12.201  0.0255 -0.1056  0.2221
15812W        W31706  15.238   0.581   2.231  0.4397  0.1462 -0.0062
15813W        W31707  13.294  15.480  13.700 -0.2222 -0.1787  0.2909
15814W        W31708  15.933   8.774  12.043 -0.0406 -0.3723 -0.0104
15815W        W31709  16.745   2.959  15.506  0.3952  0.2034  0.1637
15816W        W31710  17.417   1.657   4.932 -0.0860  0.0978 -0.2313
15817W        W31711  11.155   7.120   1.875 -0.2989 -0.0491 -0.1986
15818W        W31712   5.647  12.869   3.797  0.3326 -0.1714 -0.0087
15819W        W31713   7.863  14.120   5.534  0.1638 -0.2576 -0.0863
15820W        W31714   8.956   4.164  14.550 -0.1013  0.0959 -0.0385
15821W        W31715  14.640   2.790  12.596 -0.3117 -0.0481  0.3527
15822W        W31716   4.468   5.227   0.225 -0.3211  0.3685 -0.3428
15823W        W31717   7.196   8.413   1.952  0.2149 -0.1756 -0.2215
15824W        W31718   6.429  11.894   0.116  0.1321  0.0201  0.0790
15825W        W31719  14.850   5.460   3.798 -0.1505 -0.1016  0.0015
15826W        W31720   6.979   0.212   2.069 -0.1293  0.1158 -0.0452
15827W        W31721   9.829   2.905   1.683 -0.0664  0.0268 -0.0982
15828W        W31722   4.587  17.308   2.720 -0.2098  0.0038  0.1499
15829W        W31723  10.660   1.544  12.586 -0.1245 -0.0060 -0.2104
15830W        W31724  14.060  16.555   3.701 -0.2133  0.0238 -0.0514
15831W        W31725  13.562   5.729   1.670 -0.2242 -0.2862  0.1301
15832W        W31726   3.138   4.287  15.911  0.0578 -0.1757 -0.3240
15833W        W31727   0.381   2.936   5.150  0.1304  0.2107  0.1103
15834W        W31728  15.910  15.288  17.167 -0.0730  0.1745 -0.0626
15835W        W31729   5.173   9.033  16.071 -0.1237  0.3148 -0.0916
15836W        W31730   0.816   5.008   2.177  0.1662  0.1479  0.1153
15837W        W31731  16.406   5.060  13.222  0.1273  0.0669 -0.2521
15838W        W31732   4.673   1.037  17.110 -0.1116  0.3554 -0.0491
15839W        W31733  15.873  14.874  16.273  0.2304  0.2635  0.0476
15840W        W31734   2.938  17.100  11.484  0.2026  0.1444 -0.1723
15841W        W31735   2.982   0.358   2.867  0.1947 -0.0449  0.1512
15842W        W31736   4.599  10.524  13.924  0.1054  0.0329 -0.0794
15843W        W31737  12.187   3.598  12.329  0.0496 -0.0166 -0.0775
15844W        W31738   9.590   2.997   6.129  0.0576 -0.0514 -0.1511
15845W        W31739   1.104  14.578   3.536  0.1998  0.1688  0.2239
15846W        W31740  15.677   5.659  14.335  0.2061  0.0465  0.0487
15847W        W31741  17.333  10.473  12.856 -0.3113 -0.0822  0.2080
15848W        W31742   4.802   7.437  13.798 -0.2047 -0.0146 -0.1405
15849W        W31743   7.627   6.447  10.790  0.2157  0.0382 -0.2928
15850W        W31744   8.210  10.214  12.919 -0.0139  0.4162 -0.0541
15851W        W31745   6.358   6.766  16.563 -0.1227 -0.1186 -0.2517
15852W        W31746   2.222  13.192  11.861 -0.2196 -0.0031 -0.3883
15853W        W31747   4.916  16.237  13.985 -0.1254 -0.1510 -0.0244
15854W        W31748  10.201   8.547   5.855  0.2711 -0.1589 -0.2249
15855W        W31749   2.212   6.558  16.148 -0.0698  0.4015  0.1929
15856W        W31750   5.383   8.600   0.512 -0.0884  0.2288 -0.1833
15857W        W31751  13.126   8.988  17.293 -0.1714  0.0826 -0.2668
15858W        W31752   0.943  14.681  13.667  0.2359  0.0120 -0.0156
15859W        W31753   8.082   4.344   1.675  0.0719  0.0475 -0.1139
15860W        W31754  10.264   2.928   3.156  0.3800 -0.2067  0.0884
15861W        W31755  13.304   9.041  12.415  0.0675  0.4933 -0.1739
15862W        W31756   1.868  15.052  13.989  0.4098 -0.2409  0.0763
15863W        W31757  14.904  12.117  12.262 -0.2176  0.1091 -0.0806
15864W        W31758   0.941   4.691  15.517  0.0547  0.0119 -0.3116
15865W        W31759  15.882   7.540  13.042  0.0543  0.0058  0.1218
15866W        W31760  16.964  17.218  15.071  0.0960  0.1140 -0.1734
15867W        W31761  15.585   1.550  11.916  0.0626  0.1253 -0.0525
15868W        W31762  12.783   9.333   2.585  0.0270  0.0387 -0.3046
15869W        W31763  11.115   0.787  17.024  0.1638  0.0542 -0.2348
15870W        W31764  13.269  14.014  15.941  0.1754  0.2274 -0.0685
15871W        W31765  16.210   2.258   1.727  0.1325  0.2547  0.0832
15872W        W31766  10.233   0.916   1.755  0.5021  0.3107 -0.1337
15873W        W31767   4.270   9.060  14.937  0.2116 -0.0368  0.2605
15874W        W31768  16.341  15.301  15.478 -0.2198 -0.1863  0.1808
15875W        W31769   6.716   4.558  12.044 -0.0487  0.0254  0.1658
15876W        W31770  14.766   1.078  12.795 -0.0783  0.2208 -0.0005
15877W        W31771   2.016   3.441   1.787 -0.0555  0.1078  0.1071
15878W        W31772   5.433   7.316   3.362 -0.2978  0.1226 -0.1213
15879W        W31773   4.466   9.161  16.656  0.3134 -0.0482  0.1531
15880W        W31774   2.068  10.399   0.910  0.0785  0.1056  0.1433
15881W        W31775  17.157   2.123  15.917 -0.0525 -0.0027 -0.2224
15882W        W31776   3.255   2.829   2.248 -0.1062 -0.0496  0.2221
15883W        W31777   3.841  16.605  13.154 -0.2003  0.4254  0.1661
15884W        W31778   5.876   5.701   1.829  0.0377  0.1226  0.1035
15885W        W31779  17.226  14.737  16.042 -0.2129  0.1049 -0.0275
15886W        W31780   6.666   3.435  12.207 -0.0410  0.1069 -0.0427
15887W        W31781  12.401  12.535   0.202  0.0662  0.1057  0.0364
15888W        W31782  16.937   5.278  14.118 -0.0019  0.1486  0.4253
15889W        W31783   8.538  16.116  13.958  0.1906 -0.0586  0.2630
15890W        W31784  15.115   3.218  13.226 -0.2336  0.1840  0.2222
15891W        W31785   1.847   1.890  12.837  0.1045 -0.0252  0.2751
15892W        W31786  14.447  15.155   0.751  0.0901 -0.1196 -0.1492
15893W        W31787  15.087   0.053   3.027  0.1934  0.1660 -0.1164
15894W        W31788   7.805   0.745  16.361 -0.0883  0.1062  0.0396
15895W        W31789   8.668   0.071  13.321 -0.2077  0.1936 -0.0550
15896W        W31790  14.802   8.395  12.373 -0.0792 -0.4635  0.0828
15897W        W31791  15.637   6.953   4.776  0.0497 -0.1855  0.0857
15898W        W31792   5.452  16.911  15.226  0.2425 -0.1007 -0.1604
15899W        W31793  15.366   4.090  16.070 -0.2207  0.1769 -0.2817
15900W        W31794  10.041   2.335  13.766  0.1321 -0.1131  0.3703
15901W        W31795  10.453  14.587  12.711 -0.0040  0.0867 -0.0570
15902W        W31796  13.418  13.746   2.779  0.0175  0.1070 -0.0351
15903W        W31797  10.789   6.512   3.127 -0.1686 -0.0998 -0.4167
15904W        W31798   3.674  12.282  12.173 -0.2263  0.0692  0.1840
15905W        W31799  12.492  12.781   4.599 -0.0309  0.1042 -0.1793
15906W        W31800  16.231  13.199   0.729 -0.3352 -0.0929 -0.1611
15907W        W31801  13.217   5.394  16.647  0.1016 -0.0994  0.0009
15908W        W31802  12.051   2.939   1.613 -0.5503  0.1322  0.2293
15909W        W31803   5.731  13.477  16.789  0.0595 -0.0807 -0.0637
15910W        W31804   9.930   9.123   2.370 -0.1479  0.1241 -0.0026
15911W        W31805   0.673   1.130   4.433  0.0786 -0.2950  0.1328
15912W        W31806  16.845   3.934   3.411 -0.0406  0.1332 -0.0929
15913W        W31807   3.574   6.453   3.261  0.1353 -0.2264  0.2020
15914W        W31808   0.688   0.036   0.328  0.1805 -0.0261 -0.3272
15915W        W31809  11.254   7.562   1.613  0.1842  0.0432 -0.3913
15916W        W31810   5.029   4.453  14.011 -0.1004 -0.0182 -0.0962
15917W        W31811   7.320   8.450   0.247  0.1141  0.1901  0.2601
15918W        W31812   5.068   5.625   0.746 -0.0821  0.0513  0.2629
15919W        W31813   0.408  15.785  16.357 -0.1834  0.0640 -0.0327
15920W        W31814   5.094   1.241   2.478  0.2974  0.1119  0.0646
15921W        W31815   3.461   3.328  12.835  0.0160  0.0496 -0.2532
15922W        W31816   6.208   4.864  12.055 -0.1813 -0.2311 -0.0193
15923W        W31817  15.572   8.941  13.974 -0.2686 -0.1961 -0.1302
15924W        W31818   9.080   3.764   1.305  0.1940  0.1329  0.0098
15925W        W31819  10.543   1.244   0.991  0.0948  0.4583  0.0179
15926W        W31820   2.181   7.381   5.553  0.2909  0.1869 -0.1630
15927W        W31821  15.784  16.289   3.216 -0.2348 -0.2979 -0.2099
15928W        W31822  16.821  14.578  12.356  0.0310 -0.2251 -0.0793
15929W        W31823   2.070   2.409   4.331 -0.3805  0.1205 -0.1343
15930W        W31824  17.620   2.703  14.292  0.1945 -0.0588 -0.1136
15931W        W31825   7.018   5.206  14.743 -0.2241 -0.0054  0.1095
15932W        W31826  12.096  12.885  13.276 -0.1637  0.0220 -0.0775
15933W        W31827   0.623  16.575  17.084 -0.0806  0.0254 -0.1578
15934W        W31828   9.443   1.099   3.487 -0.1060  0.1650  0.2770
15935W        W31829   9.577   0.021   2.464  0.2627 -0.1471 -0.2082
15936W        W31830   4.907   4.571  13.466 -0.1315  0.1181  0.2237
15937W        W31831  10.662   5.304  15.063  0.1891 -0.3673  0.1265
15938W        W31832   4.433   5.151  13.847 -0.2930 -0.1706  0.2985
15939W        W31833   9.442   2.318  15.193 -0.2865 -0.1222  0.2993
15940W        W31834  16.083  16.047   6.348 -0.1249 -0.0439  0.1466
15941W        W31835   7.488   7.737  15.923 -0.2932 -0.0365 -0.2982
15942W        W31836  11.197  16.538   5.720  0.2185 -0.1590 -0.1267
15943W        W31837  15.043   9.397  13.395 -0.0452 -0.0717  0.2229
15944W        W31838   2.286   9.533   3.213  0.0757 -0.3070  0.1191
15945W        W31839   0.550  16.599  12.849 -0.0722  0.4642  0.3330
15946W        W31840  17.398  11.544  16.060 -0.0077 -0.1203 -0.0900
15947W        W31841   3.104   9.120   0.968  0.4680  0.5204 -0.0250
15948W        W31842  16.510  12.982   4.867 -0.0933 -0.2182  0.0858
15949W        W31843   7.395   2.576   5.635 -0.1378 -0.2455  0.0312
15950W        W31844  15.832   1.082  15.495  0.0720  0.0609  0.1315
15951W        W31845   6.201  13.733   0.992 -0.1576 -0.0206  0.1719
15952W        W31846  11.949  13.947  16.604 -0.0139 -0.1882 -0.1125
15953W        W31847   8.484   7.371  14.471 -0.1590 -0.2295  0.2545
15954W        W31848   0.029   8.275   1.566  0.0246  0.1955 -0.3718
15955W        W31849   2.610   1.741   1.134 -0.0033  0.3072 -0.0977
15956W        W31850  12.986   6.800  14.299  0.0424  0.2938 -0.0123
15957W        W31851  17.409  12.764   6.921  0.1896  0.0889 -0.1723
15958W        W31852  10.944   1.178   3.326  0.0174  0.2324 -0.0138
15959W        W31853   6.708  15.686  16.896 -0.0562 -0.2961  0.3787
15960W        W31854   7.635   8.331  16.055  0.0084 -0.1273  0.2220
15961W        W31855   6.919  14.549  11.970 -0.0588  0.2979  0.1498
15962W        W31856   3.242   9.151  13.988  0.1986  0.0086 -0.0449
15963W        W31857   0.230  14.814   5.560  0.1004  0.2204 -0.1790
15964W        W31858   2.865  10.901  14.625 -0.0010  0.0563  0.0805
15965W        W31859  12.585   2.491   4.888  0.0924 -0.1977 -0.2429
15966W        W31860   1.228   2.912  15.699 -0.3089  0.3437 -0.0085
15967W        W31861   1.393   1.794  15.924 -0.0822 -0.0790 -0.0125
15968W        W31862   7.497   4.322   0.090  0.0578  0.1237  0.0382
15969W        W31863   0.670   8.676   5.304 -0.2658 -0.0408 -0.0047
15970W        W31864   2.409  12.798   3.113 -0.3092 -0.0160 -0.1228
15971W        W31865   6.941  10.824  14.627 -0.1031  0.0601  0.0219
15972W        W31866  14.347   7.137  11.751 -0.1694 -0.0394 -0.3008
15973W        W31867  17.181   9.525   4.418 -0.0164  0.2943 -0.0354
15974W        W31868   7.543  12.687  15.854  0.0199  0.4637  0.0088
15975W        W31869   7.253  15.531  15.297  0.0825  0.2592  0.2031
15976W        W31870   1.238   3.654  12.224  0.1587  0.0505  0.0161
15977W        W31871   2.456   6.960  15.877  0.1404  0.0491 -0.0968
15978W        W31872   3.598  13.751  14.185  0.1538  0.0728 -0.0164
15979W        W31873  16.816   1.276  17.148 -0.1235 -0.2000  0.1723
15980W        W31874   3.162   1.380   1.616 -0.1103 -0.2520  0.1519
15981W        W31875   1.199   5.092   0.834  0.0307 -0.1547 -0.1041
15982W        W31876  16.963  13.323   1.460  0.1525 -0.2200  0.0870
15983W        W31877   3.167   0.093  13.051  0.0041 -0.1335  0.2581
15984W        W31878  10.059   7.621   5.555  0.0009 -0.0403  0.0605
15985W        W31879  16.250  14.718  14.611  0.0510  0.0046 -0.0676
15986W        W31880   3.513   1.013   3.469  0.0297 -0.3040  0.0628
15987W        W31881  12.972   6.140   6.321 -0.0315  0.2056 -0.2608
15988W        W31882   4.107  10.826   0.462  0.1684 -0.1015 -0.0368
15989W        W31883   1.969  10.560  14.541 -0.4759  0.0547 -0.2208
15990W        W31884   6.560   4.477   3.070  0.0371 -0.0961  0.2316
15991W        W31885  15.378  11.112  14.561 -0.2262 -0.0522 -0.2610
15992W        W31886   6.287   3.008  12.710 -0.0011  0.2255  0.0556
15993W        W31887   3.138   1.189  12.779  0.0216 -0.1285  0.0917
15994W        W31888  13.167   5.335  15.678 -0.0352  0.0006 -0.0420
15995W        W31889   9.432  16.888   1.181 -0.1895  0.0662 -0.2546
15996W        W31890   8.087   0.625  13.976  0.0618 -0.1132  0.3994
15997W        W31891  11.222  10.114   1.422  0.0650  0.0295  0.4761
15998W        W31892  12.716  13.837  16.640  0.2782 -0.0692  0.1438
15999W        W31893  13.506   3.467   2.708  0.1757  0.2787  0.0765
16000W        W31894   5.361  12.456  14.727 -0.2758  0.2505  0.1045
16001W        W31895   7.810  15.854   4.208  0.0299 -0.0505  0.0913
16002W        W31896   4.697  14.858   1.525 -0.0889  0.0066  0.1123
16003W        W31897  16.150   9.510  13.463  0.1498  0.2721 -0.2605
16004W        W31898   7.543  10.318   6.219  0.1465 -0.0384 -0.2274
16005W        W31899   4.102   3.249  16.930 -0.1350  0.0450  0.1646
16006W        W31900   1.831   9.194   2.685 -0.2350 -0.1472 -0.1240
16007W        W31901   9.265   5.832  16.129 -0.0080  0.0564  0.0118
16008W        W31902   3.531  11.486  13.887  0.0368 -0.1673 -0.1515
16009W        W31903  13.167   2.483   4.003  0.1309 -0.2403 -0.1538
16010W        W31904  11.761  16.375   0.578  0.0867 -0.1043 -0.0148
16011W        W31905   3.595  12.878  16.157 -0.0814  0.1579  0.0348
16012W        W31906   6.631  13.976  14.680  0.0782  0.2472  0.0225
16013W        W31907  15.572  13.855  17.093 -0.1488  0.0075 -0.0453
16014W        W31908   7.623  14.566  13.537  0.1225 -0.2205  0.0965
16015W        W31909  16.493   9.525  15.663  0.1731  0.3735  0.2403
16016W        W31910  10.217   3.069   1.423  0.2912 -0.1761  0.2156
16017W        W31911  16.061  14.722  15.377  0.1102 -0.0062  0.1696
16018W        W31912   4.573  12.759   2.652  0.1025 -0.0872 -0.1123
16019W        W31913  17.390   9.107  13.345  0.2921 -0.0488 -0.1461
16020W        W31914   5.754   8.660  12.702  0.0965 -0.1126 -0.4616
16021W        W31915   5.924   8.890  13.566 -0.0303 -0.3195  0.1428
16022W        W31916   4.161  16.099  15.124 -0.0969  0.1674  0.0851
16023W        W31917  11.236   0.577  16.550  0.0069 -0.1989 -0.0620
16024W        W31918   0.132   8.745   3.775  0.1619  0.0303 -0.0709
16025W        W31919  14.635  14.381   1.342 -0.2046 -0.2008  0.3292
16026W        W31920   4.892  14.685   5.984 -0.3347 -0.1207 -0.2019
16027W        W31921  14.920   5.525   4.266 -0.0725 -0.1763 -0.2161
16028W        W31922  17.332  15.612  14.960 -0.2860 -0.4198 -0.1407
16029W        W31923   3.332  11.148   0.344  0.0815 -0.1265 -0.0284
16030W        W31924  14.682   6.546   5.664  0.0200  0.0489 -0.1703
16031W        W31925   8.771  15.875  14.730 -0.0199  0.1949  0.1916
16032W        W31926   5.670   0.939  14.364 -0.1919 -0.1256 -0.2515
16033W        W31927  13.214  11.533  13.164 -0.2478 -0.0410 -0.1479
16034W        W31928   2.463   5.227  15.131 -0.2395  0.2539  0.0428
16035W        W31929   2.851  13.731  14.985  0.2836 -0.1138 -0.1700
16036W        W31930  10.118   1.194   6.207  0.0541  0.0353  0.1931
16037W        W31931  15.092  12.499  17.085 -0.3073  0.1443  0.0205
16038W        W31932  16.417   0.347   3.043 -0.2747  0.3504  0.2165
16039W        W31933   8.089   2.303   2.009  0.0806  0.0981 -0.1136
16040W        W31934   1.953   5.345  12.987 -0.0158 -0.1095  0.0254
16041W        W31935   7.423   5.313   3.761  0.0457 -0.1717 -0.0355
16042W        W31936   4.049  16.276  12.824  0.3142 -0.1048  0.1644
16043W        W31937  14.272   1.131  13.108  0.0565  0.3724  0.0800
16044W        W31938  12.775  11.728   3.623  0.1169 -0.0251 -0.0085
16045W        W31939  11.342  16.135   2.277  0.0240  0.0995  0.1289
16046W        W31940  17.130   5.668  13.795  0.3543  0.1228 -0.1868
16047W        W31941  10.606  14.662   3.354  0.0727  0.0610 -0.0300
16048W        W31942  17.348  12.182   0.027  0.0499 -0.0043 -0.0575
16049W        W31943   2.836  16.988  15.061  0.0072  0.1764  0.1267
16050W        W31944  12.665   6.164   3.231 -0.3703  0.1757 -0.0090
16051W        W31945   5.257   1.080   5.116 -0.1343 -0.3019 -0.1363
16052W        W31946  14.529  16.687   4.009  0.1656 -0.3021  0.0573
16053W        W31947   7.756   9.057   0.411 -0.0479  0.1526  0.2703
16054W        W31948   2.564  11.060   5.723 -0.0145 -0.1634 -0.1695
16055W        W31949  14.389   8.960  15.261 -0.3820 -0.3855 -0.1640
16056W        W31950  13.372  17.435   3.485 -0.0486 -0.2682 -0.3320
16057W        W31951   4.998   5.051  12.674  0.0068  0.2765 -0.1232
16058W        W31952  16.128   4.660   0.416  0.0340  0.1307  0.0296
16059W        W31953  16.671  16.168   1.660  0.0698  0.1194 -0.0342
16060W        W31954   9.393  10.175  12.224  0.1644 -0.1654 -0.0724
16061W        W31955  14.528   4.771  14.190 -0.2172 -0.0987  0.0477
16062W        W31956  14.769   6.327  15.706 -0.6220 -0.0595  0.0357
16063W        W31957   1.719  10.118   5.491 -0.2577  0.1851 -0.0363
16064W        W31958   5.178   9.048   3.945  0.3523  0.0679  0.1879
16065W        W31959  16.990   8.024  12.445 -0.0386 -0.0151 -0.1314
16066W        W31960   7.582   6.201   2.262  0.3417  0.0995  0.2728
16067W        W31961   2.486  15.620   2.480 -0.1728 -0.1707  0.0688
16068W        W31962   3.476  15.571   5.014  0.3335 -0.1363 -0.0762
16069W        W31963   4.888   5.759  16.793 -0.1361  0.3631  0.0305
16070W        W31964   9.198   5.394   4.044 -0.0166  0.0303 -0.0130
16071W        W31965   4.488   9.781   1.762  0.1247 -0.1305  0.0922
16072W        W31966   1.670   0.959  16.236  0.1038 -0.0734  0.2934
16073W        W31967   8.122   7.316  13.196  0.1216  0.1607 -0.0074
16074W        W31968  13.624   9.428   3.013 -0.0440  0.2957  0.0509
16075W        W31969  16.995   4.089   0.246 -0.0478  0.1439  0.0956
16076W        W31970  12.266   7.882  11.375 -0.0666 -0.1247  0.0144
16077W        W31971   2.749   4.470   3.240 -0.0291  0.0729 -0.1054
16078W        W31972   9.355  16.396   1.868  0.3024  0.0822 -0.1356
16079W        W31973  17.389   8.501  13.252  0.2163  0.0722 -0.1409
16080W        W31974  17.533  10.443  14.645  0.3939 -0.2558  0.2318
16081W        W31975  15.715   2.258  15.241  0.0284 -0.0720  0.1941
16082W        W31976  13.587  16.199  16.493 -0.1991 -0.1918 -0.0758
16083W        W31977   9.611   7.357   3.924 -0.3004 -0.4218  0.0160
16084W        W31978  14.868  11.377  16.774  0.0219 -0.0684  0.0767
16085W        W31979  10.426   6.921   5.304 -0.0500 -0.1215 -0.2338
16086W        W31980  12.230  12.313  11.652  0.1417  0.0653 -0.0759
16087W        W31981  13.895   0.875   1.306 -0.2561  0.2765 -0.2389
16088W        W31982   9.766   9.155  13.072 -0.1857 -0.3131 -0.2635
16089W        W31983  16.994  16.953  15.555 -0.0513  0.0577  0.0138
16090W        W31984   2.644   7.768   5.887  0.2512  0.0908  0.0798
16091W        W31985   7.186   7.091  13.949  0.1218  0.0358 -0.0963
16092W        W31986   7.236   8.413  13.041  0.0278 -0.0535 -0.4844
16093W        W31987   7.216   4.117   1.557  0.0277  0.0690  0.5415
16094W        W31988   4.230  10.732   4.336 -0.5600  0.1113  0.1010
16095W        W31989   7.820   8.380   2.195 -0.3147 -0.1979  0.0571
16096W        W31990   4.610   4.039   2.816  0.0852 -0.1117 -0.0101
16097W        W31991   4.957  13.959  15.486  0.1615  0.1593 -0.2968
16098W        W31992   4.853   9.292   3.030  0.0118 -0.0600  0.1401
16099W        W31993  14.840  15.882   5.187 -0.1538  0.1392  0.0570
16100W        W31994   7.242  13.809  13.448  0.0782 -0.1686  0.1291
16101W        W31995   1.944   2.959   0.035 -0.2482  0.0132 -0.1889
16102W        W31996   2.661  12.354  15.149 -0.0456 -0.0559  0.1650
16103W        W31997  17.433  11.140   2.165  0.2212 -0.1487  0.2526
16104W        W31998  15.343  15.819   5.659 -0.2989 -0.0810  0.2508
16105W        W31999   1.799   1.586   3.995 -0.1525  0.1779 -0.1282
16106W        W32000   4.682   6.556   1.499  0.1642 -0.0112 -0.2179
16107W        W32001   0.686   1.157  13.845 -0.0154 -0.0393  0.1806
16108W        W32002  14.030   3.792   3.926 -0.1298 -0.1232 -0.1203
16109W        W32003  10.557   9.807   4.688  0.1528  0.1636 -0.1920
16110W        W32004  17.375   3.976  12.831 -0.1355  0.0931 -0.0894
16111W        W32005  17.061   2.310  16.394 -0.1347 -0.4190 -0.0035
16112W        W32006   5.207   0.765  14.254  0.0090  0.0667  0.1600
16113W        W32007   0.170  10.752  16.180 -0.2282  0.0044 -0.0227
16114W        W32008  16.767   5.147   1.577 -0.0123 -0.1652  0.2704
16115W        W32009   1.824  15.700   5.530  0.0253  0.1625  0.1746
16116W        W32010   1.020  14.111   3.324 -0.3196 -0.0506 -0.1692
16117W        W32011   5.070   9.611   2.134 -0.0728 -0.0481 -0.0732
16118W        W32012  14.685   1.880   4.086  0.1415 -0.1040  0.0000
16119W        W32013   7.004  16.400   3.835 -0.0974 -0.1048 -0.2481
16120W        W32014  11.249   3.229   2.441  0.0469 -0.1140  0.0522
16121W        W32015  15.810  13.524   4.336  0.1630 -0.1380 -0.2555
16122W        W32016  13.727  17.083   4.860  0.2129  0.0241 -0.0937
16123W        W32017  10.793  12.598   5.679  0.0176 -0.1213  0.1121
16124W        W32018  15.532  13.944  16.614 -0.1262  0.0519  0.1665
16125W        W32019   5.640   7.786   2.271  0.1630  0.2613 -0.0721
16126W        W32020  13.568   4.474  15.705 -0.2066 -0.1850  0.1067
16127W        W32021   7.106  12.291   1.097  0.0391 -0.0783 -0.1206
16128W        W32022  10.098   4.564   3.243  0.1017 -0.3359 -0.2351
16129W        W32023   5.329   6.221  14.308  0.1212  0.3722  0.1466
16130W        W32024  12.794  13.902  12.636 -0.2742 -0.0576  0.3295
16131W        W32025   0.854   5.572  16.396 -0.0481  0.1480  0.2205
16132W        W32026  16.933   4.651   1.396  0.2415 -0.0448 -0.1698
16133W        W32027  17.448   5.208   3.664 -0.0090 -0.2520 -0.0814
16134W        W32028   9.482  16.709   2.248 -0.2538  0.1191 -0.5201
16135W        W32029   2.217   6.580   2.921 -0.0909 -0.3695  0.2096
16136W        W32030  14.111  17.048   3.118 -0.0884 -0.0406  0.2369
16137W        W32031   9.827  15.203  16.940 -0.0942 -0.0342 -0.1977
16138W        W32032   5.359  17.212  15.608  0.1103  0.1431  0.1227
16139W        W32033   0.034  11.557   1.299  0.2663 -0.0891 -0.2317
16140W        W32034   6.799   9.513  14.974 -0.0778  0.3147  0.2565
16141W        W32035   9.937   0.118  14.117  0.1763  0.4280 -0.0226
16142W        W32036  13.506  12.781   0.510 -0.1927 -0.4661  0.0745
16143W        W32037  11.769   1.960   1.648 -0.0917 -0.2568 -0.2193
16144W        W32038   2.581   5.286   0.304  0.1013  0.2606 -0.2215
16145W        W32039   8.313  14.177  13.450  0.0366  0.1238  0.2449
16146W        W32040   9.976  12.462  13.695  0.2452  0.3230 -0.0531
16147W        W32041  13.308   7.569   5.366 -0.2372 -0.1256 -0.2157
16148W        W32042  15.564   3.832   3.937  0.1506  0.2085 -0.2507
16149W        W32043   7.732   0.116   0.153 -0.0172  0.0121 -0.0682
16150W        W32044   4.835   0.167  15.491  0.0075 -0.0913  0.0527
16151W        W32045  12.383   3.006   3.675 -0.0549 -0.0696  0.1594
16152W        W32046  10.968  13.580   1.092 -0.0102  0.1352 -0.1191
16153W        W32047  12.606   4.354  15.458  0.4784  0.0483  0.0218
16154W        W32048   7.370  15.547  12.771 -0.0074  0.0923 -0.0388
16155W        W32049   9.674   9.897  16.456  0.1674 -0.0680 -0.1689
16156W        W32050   1.704  11.291  11.111 -0.2500  0.1108 -0.2561
16157W        W32051   1.909   2.253  15.027 -0.2969 -0.1796  0.0334
16158W        W32052   9.657   9.576  13.629  0.1864 -0.2177 -0.0075
16159W        W32053  14.492  14.765  12.023 -0.1070 -0.2105 -0.0309
16160W        W32054   7.705  11.450  14.258  0.2573  0.1978  0.3820
16161W        W32055  14.011   4.937  13.256  0.0358  0.1027 -0.1132
16162W        W32056   4.238  13.830   6.642 -0.1370 -0.1541 -0.1465
16163W        W32057  10.323  10.254   1.358  0.1289  0.1394 -0.0909
16164W        W32058   1.764  14.552  15.504 -0.0185  0.3198  0.1778
16165W        W32059  15.971   1.566   0.903  0.1448 -0.0412 -0.1804
16166W        W32060  16.251  17.331  12.321 -0.0863 -0.0973 -0.1726
16167W        W32061   6.140   4.889  14.275 -0.0769 -0.3033 -0.0534
16168W        W32062  12.328   7.392  12.209 -0.1734 -0.0482  0.1041
16169W        W32063   3.808  11.778   3.029 -0.0142  0.1764  0.1454
16170W        W32064  11.308   6.930   0.611 -0.0085  0.0536  0.1933
16171W        W32065   4.722  12.629   3.724  0.0119 -0.1127 -0.3596
16172W        W32066   7.039  10.069   5.207  0.0448 -0.0348 -0.2163
16173W        W32067   0.497  15.314  13.249 -0.2137 -0.0485 -0.0039
16174W        W32068  15.757  12.003   1.030  0.0538 -0.2452  0.0873
16175W        W32069  13.099   6.710   4.743 -0.1209  0.2624  0.0822
16176W        W32070   3.032   0.706   5.160 -0.0474 -0.2742  0.0329
16177W        W32071   1.081   1.342  13.539 -0.1156 -0.0058  0.0550
16178W        W32072   5.848   7.519  14.846  0.0720 -0.1038 -0.3398
16179W        W32073  10.357   3.574  13.781  0.0206  0.3376  0.1844
16180W        W32074  13.728   0.965  11.330  0.2388  0.0990  0.0057
16181W        W32075  14.968   0.720  11.864  0.2431 -0.1614 -0.2272
16182W        W32076   3.734  16.926   3.433  0.1768 -0.1666 -0.0547
16183W        W32077  13.601  10.212  14.847 -0.2450 -0.1282 -0.1099
16184W        W32078   4.464   0.001  12.833  0.1489 -0.0783  0.1647
16185W        W32079   9.386   3.297  14.382 -0.3069  0.1202  0.0820
16186W        W32080   3.335   4.395   3.153  0.1346 -0.3313  0.0847
16187W        W32081   2.199   2.422   2.675  0.1331  0.0386  0.0711
16188W        W32082  11.748   4.029  13.986  0.1478 -0.1448 -0.3121
16189W        W32083  10.564  13.000  11.004  0.0257 -0.1260 -0.1675
16190W        W32084  12.127  13.073   4.481  0.0464 -0.1343  0.2432
16191W        W32085   8.010  14.185  16.951  0.1770  0.1281  0.1322
16192W        W32086   5.201  10.667  15.558 -0.0246 -0.1419  0.1659
16193W        W32087  12.829  13.148   3.779  0.3480  0.2173 -0.1077
16194W        W32088   2.846   4.238  14.129  0.0465 -0.1132  0.3080
16195W        W32089  15.700  13.781   3.129 -0.0895 -0.3920  0.1577
16196W        W32090   2.721   1.134  14.165  0.1115  0.0739 -0.1957
16197W        W32091  12.224  13.220  11.731 -0.1482 -0.2014 -0.3074
16198W        W32092  14.201   2.367   5.177  0.3573 -0.2126 -0.3627
16199W        W32093   3.338   1.165   4.073  0.2641  0.0902 -0.0895
16200W        W32094   0.833  11.830   0.845 -0.3502 -0.1095  0.0698
16201W        W32095   9.363   2.979  15.649 -0.2850 -0.0071 -0.2695
16202W        W32096   6.206  12.475   0.071  0.3098  0.0030 -0.0885
16203W        W32097   2.729  14.251  16.200  0.1692 -0.0657 -0.3359
16204W        W32098  16.383  13.355   5.568 -0.2360  0.0619 -0.2167
16205W        W32099   7.201   1.000  15.491  0.2089 -0.1718  0.1586
16206W        W32100   0.187   7.001  15.062 -0.1065  0.1891  0.0586
16207W        W32101   2.641   0.793  16.057 -0.3086  0.1466 -0.3225
16208W        W32102   9.968  14.563   5.671  0.4328 -0.0549  0.2884
16209W        W32103   9.724  14.341   5.266  0.2868  0.2304  0.1040
16210W        W32104  15.998  13.012  15.704  0.0721  0.0224  0.0737
16211W        W32105  10.724   4.839   1.150 -0.0232 -0.0727  0.1341
16212W        W32106   1.429  13.418  16.414  0.1218  0.0946  0.0608
16213W        W32107   8.864   5.723  14.739 -0.2178 -0.0914 -0.1329
16214W        W32108   3.535  16.931   2.551  0.4777 -0.2246 -0.1825
16215W        W32109   8.843   1.136   5.689  0.1114  0.1395 -0.3751
16216W        W32110   3.828   4.426   5.231  0.0239 -0.0729 -0.0974
16217W        W32111   5.440   7.904  13.012 -0.2567 -0.0415 -0.1980
16218W        W32112  14.670  10.068  14.416  0.0685  0.1004  0.2317
16219W        W32113  10.805   0.449  11.832  0.1972  0.2666  0.1433
16220W        W32114  11.712   3.905   2.797  0.1260 -0.5433  0.0074
16221W        W32115   4.922  10.839  12.663 -0.1346 -0.1636 -0.0315
16222W        W32116   4.070   4.546   3.810 -0.0713 -0.0146 -0.0950
16223W        W32117  10.965  16.338   3.187 -0.3519 -0.1886 -0.4026
16224W        W32118   3.807   7.447   5.754  0.1961  0.3945 -0.0512
16225W        W32119  10.177   8.883  11.415  0.2076 -0.3849  0.0585
16226W        W32120  13.083  13.334   2.706  0.1894 -0.1609 -0.1636
16227W        W32121   9.127  16.180  11.932  0.1230  0.0272  0.0321
16228W        W32122  15.572   0.867   4.582 -0.0283  0.1132  0.0385
16229W        W32123   4.017   0.698   4.907  0.0871  0.0863  0.0001
16230W        W32124   2.955   7.468   6.120 -0.0273  0.0958 -0.2502
16231W        W32125   9.743   5.043   1.025 -0.3594 -0.2170  0.1000
16232W        W32126   7.659   3.023   0.404  0.1581 -0.0087 -0.0247
16233W        W32127  12.614   5.896  16.348 -0.0971 -0.0814 -0.0125
16234W        W32128   6.060   0.574  13.798 -0.1858  0.2023  0.0506
16235W        W32129   3.384  12.513   0.559 -0.0004 -0.2315 -0.0411
16236W        W32130   3.713   6.037  15.680  0.0376 -0.0161 -0.1240
16237W        W32131  10.068   5.298   4.549 -0.1645 -0.0355  0.1853
16238W        W32132  15.411   2.814  13.921  0.4740 -0.0669 -0.0423
16239W        W32133   7.132  12.769  16.961 -0.0191 -0.1836 -0.0428
16240W        W32134   0.006  12.795  14.656  0.1590 -0.2070  0.0430
16241W        W32135   4.917   5.008   3.365  0.3111  0.1847  0.2171
16242W        W32136  10.615   4.519   3.685 -0.2136  0.1537 -0.0391
16243W        W32137   9.772  13.947  14.928  0.0224  0.2143 -0.0863
16244W        W32138  17.326  10.955  13.520  0.1843  0.2215 -0.2798
16245W        W32139   4.207   8.778  12.844  0.2370  0.0475 -0.1234
16246W        W32140   5.229  15.971  15.459  0.1383 -0.1633  0.1898
16247W        W32141  16.528  13.190  14.876 -0.3149 -0.1197 -0.0471
16248W        W32142  17.174   0.062   2.632  0.0719 -0.0672 -0.0946
16249W        W32143  11.671   0.688  12.229 -0.1366  0.1905 -0.1507
16250W        W32144  10.507  16.920  17.211  0.0587  0.1365  0.0076
16251W        W32145   0.201  10.274  16.313 -0.2199  0.0327 -0.0552
16252W        W32146   1.971  10.901   1.797  0.2874  0.1214 -0.1570
16253W        W32147   2.023   2.058  17.282  0.1009  0.4018 -0.2834
16254W        W32148  11.672  16.272  12.859 -0.0333 -0.4460 -0.0828
16255W        W32149   4.271   7.633   5.546 -0.1778 -0.0417 -0.2194
16256W        W32150   4.521  15.594   0.905  0.2589 -0.4570  0.1246
16257W        W32151  15.532  11.204   1.243  0.1310  0.3109 -0.3269
16258W        W32152  16.528   8.438  14.739 -0.0064 -0.3194  0.0135
16259W        W32153   2.609  14.693   3.195  0.0987  0.0010 -0.0152
16260W        W32154  11.451   8.254   2.132 -0.0360 -0.0406  0.3189
16261W        W32155   7.577  10.128  12.687 -0.2388  0.1804 -0.0405
16262W        W32156  13.078   2.508  12.575 -0.0331  0.0281 -0.0217
16263W        W32157   6.697  16.966   2.562  0.2748 -0.1141  0.0739
16264W        W32158   6.376   5.385  16.725  0.0891 -0.0306 -0.1222
16265W        W32159   4.810   0.316  14.099  0.1227 -0.0648  0.2277
16266W        W32160  17.439   5.649   6.030  0.2914  0.0817  0.0173
16267W        W32161   8.298  11.168   4.431 -0.1668  0.2561  0.1112
16268W        W32162  10.596  10.832  12.403 -0.0969  0.0837 -0.0254
16269W        W32163  11.999  15.114  11.264  0.3893  0.2098  0.1548
16270W        W32164  12.423   2.447   5.344 -0.0387  0.0152 -0.0347
16271W        W32165   0.456  14.215  17.057  0.1169  0.2422  0.0527
16272W        W32166   9.637   8.980   2.723 -0.3245  0.0472  0.0636
16273W        W32167   1.614   9.434   6.140  0.0485 -0.1551 -0.1805
16274W        W32168   9.687   6.957   2.748  0.0239 -0.0032 -0.1388
16275W        W32169   8.320   7.205  13.961 -0.0066  0.1820 -0.3647
16276W        W32170  12.042  13.230  12.200  0.1635 -0.1279 -0.0396
16277W        W32171   8.794  12.525  12.455  0.1418 -0.0523 -0.2368
16278W        W32172  11.112  11.556  14.320  0.0874 -0.2827  0.2415
16279W        W32173   9.391   3.380  13.529 -0.0409  0.0899  0.2113
16280W        W32174   9.039   7.781  12.365 -0.1131 -0.4272  0.0715
16281W        W32175   4.790  14.461  15.550  0.3355  0.0308  0.1931
16282W        W32176  12.205  16.779   3.652 -0.3910 -0.0825  0.0278
16283W        W32177   2.821   4.981   0.014 -0.0626 -0.0994  0.2002
16284W        W32178  16.678  14.577   0.764  0.1474  0.0394  0.1574
16285W        W32179  14.761  14.396  11.857 -0.3892 -0.1809 -0.1289
16286W        W32180  13.981   7.301  16.329 -0.1087 -0.2530 -0.1409
16287W        W32181   9.011  13.404  13.616  0.1632 -0.1133  0.1320
16288W        W32182  12.102  12.387  13.216 -0.0340 -0.2023 -0.1322
16289W        W32183   9.876  10.471  13.436  0.1728  0.1588 -0.2156
16290W        W32184  14.849   8.795   2.555  0.2067  0.1432 -0.3069
16291W        W32185  10.531  15.838   0.614  0.2375  0.1768  0.0290
16292W        W32186   7.326   1.230  14.985  0.0036  0.1437  0.1888
16293W        W32187   3.817   8.953   1.460  0.2224 -0.0830 -0.0469
16294W        W32188  10.624   5.469   0.710 -0.3553  0.0327 -0.0047
16295W        W32189   7.667   8.654  14.283 -0.4184 -0.0668  0.1677
16296W        W32190  13.145  13.324  14.130  0.3285  0.3609  0.2032
16297W        W32191  13.240   3.025  16.244 -0.1825  0.0024  0.1024
16298W        W32192   1.879   7.455  14.762 -0.0171 -0.3675 -0.0217
16299W        W32193   7.110  17.357  12.881  0.1626  0.0900  0.1697
16300W        W32194  11.677   3.973   0.498 -0.3317 -0.1419 -0.1340
16301W        W32195   7.759   2.029   6.372 -0.0185  0.0436  0.0773
16302W        W32196  14.234  11.999   1.100 -0.0087  0.0275  0.0072
16303W        W32197   2.050  15.594   2.243 -0.1357 -0.1975  0.1389
16304W        W32198   6.257  13.307  17.043 -0.3244  0.1635 -0.0189
16305W        W32199   5.758   5.693  13.649 -0.1138  0.0683  0.1526
16306W        W32200   1.188   5.982   5.229  0.2399 -0.1786 -0.0032
16307W        W32201   5.743   3.698   1.701 -0.0257 -0.1013  0.1934
16308W        W32202   5.037   4.620   0.730 -0.0105 -0.4396  0.0664
16309W        W32203  16.646   0.561  15.638 -0.0015  0.4006 -0.2179
16310W        W32204   3.529  15.479   3.899 -0.2246  0.1609  0.2346
16311W        W32205  13.776   9.944   1.807 -0.2820  0.3277  0.1593
16312W        W32206   8.541   8.129  17.049  0.3470 -0.0868 -0.0167
16313W        W32207   3.135  15.691   3.204  0.1033 -0.1965 -0.1746
16314W        W32208   1.364  14.333  14.214 -0.0648  0.1728  0.0147
16315W        W32209  10.752  14.954   1.553 -0.0785 -0.0944  0.3337
16316W        W32210   0.735  15.983  17.131  0.1981  0.2826 -0.0072
16317W        W32211   7.771   0.523   2.128 -0.1254 -0.1297 -0.4108
16318W        W32212   6.351   0.932   1.998  0.0205 -0.4754  0.0440
16319W        W32213   8.090  10.546  11.940  0.1566 -0.1442  0.0467
16320W        W32214   2.389  16.374   1.083 -0.0005 -0.1249 -0.0607
16321W        W32215  10.689   1.739   5.597 -0.1156  0.0040 -0.1158
16322W        W32216  10.496   6.014   2.366 -0.2385  0.1918 -0.0749
16323W        W32217   0.789  12.389   1.388  0.0316 -0.1808 -0.0053
16324W        W32218  11.714   8.964  16.486 -0.2638  0.1553 -0.2535
16325W        W32219  10.629   6.791   4.767 -0.2277 -0.0194  0.0449
16326W        W32220  12.951   1.955   0.995  0.1528  0.0041  0.0028
16327W        W32221   1.591   0.082   2.216  0.1978 -0.0589  0.0898
16328W        W32222   1.487  15.675   2.332  0.2863  0.0270  0.2248
16329W        W32223  14.578  12.354   1.021 -0.0136 -0.1098 -0.0440
16330W        W32224   8.981  10.433  17.258 -0.2196  0.0021  0.1216
16331W        W32225   8.969  16.596   2.162  0.2200 -0.1472  0.1236
16332W        W32226   3.717   7.018   5.422 -0.1750  0.0120  0.0899
16333W        W32227   6.255   0.575   5.399  0.1085 -0.3882  0.2670
16334W        W32228  17.601   1.010   1.279 -0.2164  0.0345 -0.0694
16335W        W32229   7.204  10.984   6.252 -0.3193  0.0807  0.0872
16336W        W32230   2.018  16.195  12.095 -0.0752  0.1779 -0.3771
16337W        W32231  14.579  17.559  14.769  0.0260 -0.0504 -0.1109
16338W        W32232   1.264  14.585  14.621 -0.1937 -0.0543  0.0769
16339W        W32233   9.632   8.286  14.134  0.1540  0.1842  0.3005
16340W        W32234   0.379   0.096  14.772 -0.1065  0.2993  0.0052
16341W        W32235   4.106   1.812  17.048  0.1918 -0.1541  0.1527
16342W        W32236   4.112   4.382  14.048 -0.1977  0.0995 -0.1206
16343W        W32237  15.866  12.225   2.436 -0.1529 -0.3609 -0.0514
16344W        W32238   0.426  15.710  15.429  0.1053  0.0938  0.0537
16345W        W32239  12.904   6.289  16.574  0.1093 -0.0401  0.0973
16346W        W32240  12.721  16.594   3.840  0.2757  0.2077 -0.0297
16347W        W32241  17.501  15.341   4.664  0.1655 -0.1239  0.3576
16348W        W32242  10.614  14.185   2.970 -0.1913 -0.0583 -0.3240
16349W        W32243   4.503   6.818  15.480 -0.0954  0.1031  0.0238
16350W        W32244   3.557   7.738  14.996 -0.1537  0.0535 -0.0167
16351W        W32245  15.918   2.350  14.701 -0.0052 -0.2830 -0.0311
16352W        W32246   8.149  16.694   0.517 -0.1012 -0.0126 -0.0652
16353W        W32247  12.939  16.008  16.277  0.1535 -0.0226 -0.2596
16354W        W32248  16.603   0.435   1.024 -0.0751  0.2378  0.1837
16355W        W32249  14.072   2.525  16.192  0.3797  0.0954 -0.0012
16356W        W32250  11.918  15.855  15.266  0.0372  0.2316  0.1076
16357W        W32251   1.490  16.766  15.050 -0.0096 -0.0039 -0.1356
16358W        W32252   8.921  15.398  16.504 -0.2825  0.2488  0.0709
16359W        W32253  13.446   5.218  17.181 -0.1659 -0.0006  0.2351
16360W        W32254  11.817   0.198   4.418  0.0717  0.4290 -0.3248
16361W        W32255   5.640   9.521   4.817 -0.1988 -0.2358  0.1662
16362W        W32256   2.433  10.217  11.936 -0.0194 -0.1373  0.0202
16363W        W32257   4.235   5.613  14.753 -0.0226 -0.0892 -0.1185
16364W        W32258   0.124  14.066   5.035 -0.0197  0.3855 -0.0202
16365W        W32259   8.418  15.869   2.963  0.0356 -0.4924  0.0936
16366W        W32260   3.229   1.579  12.457 -0.2759 -0.2924 -0.0692
16367W        W32261  12.749  15.877  12.737  0.0285  0.0911 -0.0515
16368W        W32262   1.021  17.218   0.051  0.1838  0.0155  0.0631
16369W        W32263   3.858   1.394   2.808 -0.0446 -0.0075 -0.0159
16370W        W32264   8.888   7.475  16.940  0.3117  0.0876 -0.0393
16371W        W32265   4.140   5.862   4.285 -0.1655 -0.0715  0.1367
16372W        W32266  17.264   1.094   4.956 -0.0234  0.0221 -0.4186
16373W        W32267   2.190   2.267   0.790  0.0501  0.0842  0.0352
16374W        W32268   7.079  16.064  16.889  0.0586 -0.0546 -0.1517
16375W        W32269  10.544  12.826  13.224  0.0069 -0.0553  0.0907
16376W        W32270  16.452  12.759  12.892 -0.1794  0.0588 -0.1281
16377W        W32271  11.832   5.283   3.764  0.0542 -0.2755  0.2584
16378W        W32272   9.433  13.803   1.138 -0.0948  0.0316  0.0797
16379W        W32273   9.217   0.239  16.767  0.0452 -0.0976  0.0135
16380W        W32274   3.962  15.224  14.630 -0.2319  0.0159 -0.2070
16381W        W32275   7.684   0.422  14.133  0.4543 -0.2868  0.2159
16382W        W32276  16.621  11.188   2.836 -0.1704 -0.0228  0.2684
16383W        W32277   7.028  14.833   4.589  0.0130  0.0981 -0.1234
16384W        W32278   4.478  10.972   4.933  0.0148 -0.1264  0.0428
16385W        W32279   6.201  10.609  11.901 -0.0116 -0.0532 -0.1855
16386W        W32280  12.511   6.863   2.619  0.0804  0.0381 -0.1726
16387W        W32281  13.978  11.019  13.414 -0.0320  0.2747 -0.0280
16388W        W32282   7.875  14.081   4.623 -0.0409 -0.0622  0.0450
16389W        W32283  13.034  11.384  15.503  0.0895 -0.2139 -0.2413
16390W        W32284   9.730   6.713   1.119  0.2224  0.2119 -0.1103
16391W        W32285  16.923   6.252   2.134 -0.1247  0.0951 -0.1865
16392W        W32286   5.846  13.776   4.754 -0.1133 -0.2709  0.0505
16393W        W32287   5.804   0.074   4.888  0.1569  0.0325 -0.1849
16394W        W32288  16.526  15.431  14.223 -0.3796  0.4112  0.1287
16395W        W32289  12.640   1.006  16.677 -0.2195 -0.0842  0.0767
16396W        W32290   9.590  11.608  13.125 -0.3253  0.0775  0.0879
16397W        W32291   3.790  16.520  16.017 -0.0082 -0.0903 -0.1127
16398W        W32292   7.383  10.928   4.259  0.3058 -0.2631 -0.1654
16399W        W32293   7.892   9.448  13.981 -0.1704 -0.0845 -0.1387
16400W        W32294  12.497   0.402   0.825  0.2124 -0.2126  0.1597
16401W        W32295  10.055   3.371  16.192 -0.1139  0.0767  0.2446
16402W        W32296  14.721  15.404  15.820 -0.0269  0.0693 -0.2649
16403W        W32297  16.576  17.097  16.492  0.0144 -0.0343 -0.1833
16404W        W32298   4.524   0.158   4.755 -0.0347  0.2110 -0.1303
16405W        W32299  12.429   1.247   5.211  0.2211  0.2871  0.0090
16406W        W32300  10.491  15.590  11.907 -0.3225 -0.1724 -0.1501
16407W        W32301   7.982  14.062  15.232 -0.4780  0.2094  0.1957
16408W        W32302  16.939   1.905  13.123  0.2702 -0.0119 -0.2873
16409W        W32303  12.912   4.491   0.930  0.0539 -0.0965  0.0715
16410W        W32304   6.415   3.819   2.389 -0.2756 -0.1454 -0.2015
16411W        W32305  12.575   2.507  12.199  0.0653  0.1318  0.2810
16412W        W32306   4.521   7.257  15.138  0.4803  0.0035 -0.2000
16413W        W32307   5.646  11.224  12.118  0.0762 -0.2164  0.4510
16414W        W32308  17.263   1.932   4.002 -0.0323  0.1444  0.0680
16415W        W32309   5.060  17.638  15.916  0.0123 -0.1056  0.1504
16416W        W32310   3.752  10.924   4.139 -0.1122 -0.0382  0.1133
16417W        W32311   3.791  16.621   6.132  0.0950 -0.0546 -0.0296
16418W        W32312   8.145   3.600   2.566 -0.2156  0.2038 -0.1293
16419W        W32313  13.023   8.180   0.824 -0.0523  0.0343  0.0191
16420W        W32314   5.746  15.386   4.915  0.0443  0.0427  0.2404
16421W        W32315   7.367   1.879   0.617  0.0737 -0.1225 -0.0404
16422W        W32316   0.880   4.248  14.345  0.1580  0.0248 -0.2216
16423W        W32317   6.058  11.486  16.027 -0.3018  0.0016  0.1514
16424W        W32318  15.453   4.006  14.751  0.0954 -0.3661  0.0136
16425W        W32319   2.068   2.818   3.932 -0.1177  0.2369 -0.0318
16426W        W32320  11.606   6.338  15.454 -0.0776  0.3225 -0.0439
16427W        W32321   1.001  17.044  13.901 -0.0304 -0.2244 -0.1182
16428W        W32322   0.575   8.261   1.035 -0.0012 -0.0861  0.2857
16429W        W32323   4.748   0.049   6.093 -0.0478  0.0316  0.0640
16430W        W32324  10.130  17.059  16.670  0.3275 -0.1348 -0.2866
16431W        W32325   7.961  16.729  12.819  0.1209 -0.0765  0.2293
16432W        W32326   0.223  15.796  12.422  0.2970 -0.0252  0.3461
16433W        W32327   3.663  10.217   6.203 -0.1176 -0.0780  0.3171
16434W        W32328  15.741   8.857   3.577 -0.0974 -0.0888 -0.2767
16435W        W32329  12.061  11.495   2.554  0.1714  0.1767  0.2846
16436W        W32330  10.556   9.916   2.389  0.0756  0.0486  0.2076
16437W        W32331   6.930   6.708   1.016 -0.1025 -0.2902  0.2693
16438W        W32332   4.153  16.540   0.667  0.0751  0.0275 -0.3292
16439W        W32333   9.004  13.963   1.793 -0.1070 -0.2045 -0.1538
16440W        W32334   5.881   6.468   4.023 -0.1642 -0.2453  0.2811
16441W        W32335  11.009  14.206   4.853 -0.0280 -0.2179  0.1195
16442W        W32336   3.599   7.500  14.501 -0.1379  0.1628 -0.1361
16443W        W32337  16.766   2.021   4.729  0.1349 -0.1172 -0.2529
16444W        W32338  10.946   9.975   0.905  0.1631 -0.2730 -0.0705
16445W        W32339   6.391   9.746  15.299 -0.0894  0.2251  0.2555
16446W        W32340   7.932   6.599  15.376 -0.0324  0.0345  0.4365
16447W        W32341   6.915  15.347  14.442  0.0080 -0.0282  0.0817
16448W        W32342  12.476   3.851  16.766  0.1780 -0.0962 -0.1106
16449W        W32343   4.869   1.548   3.636  0.0110  0.0886  0.0609
16450W        W32344   3.485  12.362  12.595  0.2805  0.4130  0.0580
16451W        W32345   8.933  10.840  17.019 -0.0525  0.1729  0.1193
16452W        W32346  13.416  13.631   1.007  0.0311 -0.1043  0.0353
16453W        W32347  17.251   9.933   1.032  0.1095 -0.0328 -0.0205
16454W        W32348  15.572   8.827  13.293 -0.0828 -0.4606  0.0261
16455W        W32349   4.085  11.617   0.642 -0.0123 -0.2705 -0.0936
16456W        W32350  11.349  15.613  13.321  0.2359 -0.1248  0.2464
16457W        W32351   7.170  16.684   6.771 -0.1346  0.2556 -0.0738
16458W        W32352  16.102   1.366   5.653 -0.1838 -0.0633  0.0058
16459W        W32353   8.507  16.484   5.749  0.1417 -0.0165  0.0101
16460W        W32354   0.142  11.245  14.179  0.3993 -0.1951 -0.0618
16461W        W32355   6.084   2.279   1.572 -0.0632 -0.4696  0.1125
16462W        W32356  11.816  11.561   4.485  0.0795 -0.1699  0.0056
16463W        W32357   8.631   4.032   4.939 -0.1391 -0.1692  0.0983
16464W        W32358  10.672   1.655  17.292 -0.0307  0.3072  0.1790
16465W        W32359  14.327  12.131  13.965 -0.3207  0.0494  0.4148
16466W        W32360   9.622   6.038   2.796 -0.1745 -0.0141 -0.1128
16467W        W32361  14.927   2.385  12.697  0.1295  0.3117 -0.1043
16468W        W32362   4.373   0.560   3.126 -0.0888 -0.0277  0.2057
16469W        W32363   9.639  13.595  12.854 -0.2261  0.4219 -0.0070
16470W        W32364   6.333   3.265  13.170  0.0035 -0.3629  0.2378
16471W        W32365  15.650   9.919  15.957  0.1189 -0.3942  0.1589
16472W        W32366   1.422  15.306   5.514 -0.0481  0.0703  0.4329
16473W        W32367  13.484   8.439   0.996 -0.0776 -0.2234 -0.0554
16474W        W32368  10.813   3.637   3.292 -0.4302  0.1356 -0.0240
16475W        W32369   5.397   7.768   4.776 -0.0228 -0.0626 -0.0666
16476W        W32370  12.725  12.391  11.558 -0.1133  0.3390 -0.0430
16477W        W32371  13.481   4.012   4.327  0.2244 -0.0055  0.0908
16478W        W32372   9.490   4.459   1.631 -0.3844  0.2834 -0.0317
16479W        W32373   6.326  11.104   4.803  0.1541  0.1761 -0.1604
16480W        W32374   0.313   3.630  15.658 -0.0393 -0.1543  0.0573
16481W        W32375  16.963  17.227   2.986  0.1913 -0.1978  0.1139
16482W        W32376  12.690   1.540  15.681  0.2351 -0.1084 -0.0089
16483W        W32377   0.494   4.143   3.059  0.0372  0.2660  0.1120
16484W        W32378   7.207   1.616   0.173 -0.2213  0.2538  0.1055
16485W        W32379   8.969   3.413   3.011 -0.2785 -0.0974 -0.3488
16486W        W32380  11.211  10.561  15.129  0.0645 -0.0259 -0.0298
16487W        W32381  15.339   5.983   2.406 -0.2107  0.0326 -0.1228
16488W        W32382   0.707  10.365  12.787 -0.0593 -0.3450  0.0190
16489W        W32383   6.807   3.895  12.941 -0.0325  0.0693  0.1168
16490W        W32384   5.331  15.209  16.568  0.3319 -0.0045  0.2100
16491W        W32385   7.432   6.075   5.750  0.3434  0.1777 -0.1463
16492W        W32386   1.994   1.884  15.366  0.0998  0.0975  0.0411
16493W        W32387  16.042  16.448   1.021 -0.0580  0.2602  0.0306
16494W        W32388  17.087   3.304   5.461  0.0063  0.0164  0.1721
16495W        W32389  10.007   5.769  13.060 -0.0363  0.0656  0.3618
16496W        W32390  12.470   5.487   1.920  0.3304  0.2082  0.1961
16497W        W32391   8.463  11.183  15.452 -0.3333 -0.2410  0.0779
16498W        W32392   2.692   0.316  12.988 -0.2062  0.1480  0.0965
16499W        W32393  11.039   5.738  13.423 -0.0263 -0.0718  0.2389
16500W        W32394  10.974  14.665  17.145 -0.2107  0.5724 -0.3291
16501W        W32395   7.666   6.785   6.288  0.1055  0.0602 -0.1767
16502W        W32396   6.147   2.927   2.570 -0.0175  0.1327  0.1111
16503W        W32397  13.317   5.071   3.682  0.0324 -0.1114 -0.1704
16504W        W32398   5.283  12.651  16.460  0.2350 -0.2505  0.0590
16505W        W32399  10.148   9.446   4.909 -0.0310 -0.1958  0.0953
16506W        W32400  17.253   4.617   5.825 -0.0535  0.3823 -0.2492
16507W        W32401   2.588  13.261   2.947 -0.3476 -0.3052 -0.1684
16508W        W32402  12.213  17.228  14.425  0.1710  0.1787 -0.4255
16509W        W32403   5.935   7.999   3.392  0.1162 -0.0253 -0.1652
16510W        W32404   6.586   7.367   1.391  0.0377  0.2863 -0.1355
16511W        W32405  16.868   8.983   0.058 -0.0001  0.0836 -0.2508
16512W        W32406  13.267   5.914   1.297  0.1211  0.1741  0.0646
16513W        W32407   4.958   1.029   6.332  0.0359 -0.0987 -0.0117
16514W        W32408   9.761   4.477  16.952 -0.0910 -0.1694 -0.1124
16515W        W32409  16.679   5.313   0.234 -0.1321 -0.1020  0.0517
16516W        W32410  14.781   7.545  16.967  0.1655 -0.0104 -0.1430
16517W        W32411  12.521   7.450   1.645 -0.2377 -0.0480 -0.1885
16518W        W32412   6.460  16.882   3.218  0.0872 -0.0569 -0.0090
16519W        W32413  14.483   8.065   2.794  0.2880  0.0044 -0.0066
16520W        W32414  15.493   5.242  15.046 -0.2956  0.0312  0.0828
16521W        W32415   6.427   5.995  13.618 -0.0409 -0.1979 -0.1280
16522W        W32416  15.646   7.159   0.533 -0.1220 -0.0893  0.0230
16523W        W32417  14.894  15.627  11.800  0.2139  0.2682 -0.0772
16524W        W32418  11.335   8.158   0.891 -0.2101 -0.1225 -0.0408
16525W        W32419   3.472   4.513  17.111 -0.2503  0.0985 -0.1319
16526W        W32420  17.339  16.981  15.993 -0.1410  0.2921  0.0456
16527W        W32421   0.381  13.177   4.250 -0.0680  0.0505  0.1132
16528W        W32422  15.436   2.361   5.164 -0.0073 -0.1885  0.2404
16529W        W32423   5.173   9.396   4.480  0.1030  0.4735 -0.0476
16530W        W32424  15.224   0.609  16.688 -0.0591 -0.0330 -0.4170
16531W        W32425  12.223  13.662  15.176  0.2112  0.2115  0.0851
16532W        W32426   4.707  15.630   1.795  0.1791 -0.2175  0.3593
16533W        W32427   5.312   2.773  14.784 -0.4550 -0.2537  0.1090
16534W        W32428  15.953   2.885  13.349 -0.2363 -0.1872 -0.3207
16535W        W32429   4.067  16.875   1.822  0.1349 -0.2656  0.1230
16536W        W32430  13.026  17.517   3.841  0.0670 -0.2434  0.2600
16537W        W32431  13.690   1.674   2.447 -0.0276 -0.0749 -0.1025
16538W        W32432   8.593  14.754   5.405 -0.2657 -0.1909 -0.0181
16539W        W32433   0.378  12.975   4.757 -0.0555 -0.2305 -0.0802
16540W        W32434   4.340  14.687   5.235 -0.1248  0.2010  0.1027
16541W        W32435  14.631   1.642  11.510 -0.2900 -0.0384 -0.0753
16542W        W32436   1.042   4.957  14.664  0.0719  0.0517 -0.2018
16543W        W32437   1.525  10.423  13.117 -0.2059 -0.2749 -0.0884
16544W        W32438   8.507   7.876   3.008  0.1952  0.1316  0.2420
16545W        W32439   2.461  11.445  12.018 -0.0606 -0.0319 -0.0326
16546W        W32440  16.951  15.254   5.750  0.1157 -0.0960 -0.0209
16547W        W32441   9.654   5.839   5.952  0.2614 -0.0096 -0.0091
16548W        W32442   5.578   9.706   2.857  0.0330  0.0396  0.1415
16549W        W32443   3.539   5.121  13.871  0.0627 -0.2236 -0.0840
16550W        W32444  16.614  17.166   0.026  0.0768  0.2784  0.1313
16551W        W32445   8.138   7.520   0.797 -0.0976  0.1653 -0.0087
16552W        W32446  15.061  17.042  13.692  0.0463 -0.2523 -0.4155
16553W        W32447  14.058   7.874  15.020  0.1190  0.2135 -0.3534
16554W        W32448  14.012  10.458  12.199  0.0395 -0.0424  0.0050
16555W        W32449   5.893  17.004  17.014  0.2534 -0.1896 -0.0079
16556W        W32450   6.739  14.117  11.688 -0.0833  0.1965 -0.3601
16557W        W32451   5.276   0.875   4.618 -0.2038 -0.2866  0.3265
16558W        W32452   0.315  14.868  14.475 -0.1255  0.0850  0.0387
16559W        W32453   7.520   8.878   1.073 -0.1593  0.2476  0.2434
16560W        W32454   1.634  16.321   4.798 -0.0099 -0.0626  0.0894
16561W        W32455   8.966  15.867   3.492  0.1305 -0.1170  0.2509
16562W        W32456  12.902   9.363   0.191 -0.0793 -0.3208 -0.0201
16563W        W32457   3.134   0.796  14.222 -0.1570 -0.2768 -0.0215
16564W        W32458   5.428   4.334   1.915 -0.1064 -0.1704  0.2785
16565W        W32459  13.379   3.120   1.143 -0.2846 -0.1025  0.0015
16566W        W32460   0.201   9.052  14.610 -0.1822  0.0586  0.1035
16567W        W32461   2.381   8.542  15.672  0.3313 -0.0038  0.0582
16568W        W32462  10.948   5.832  15.931  0.3254  0.0362  0.0542
16569W        W32463   3.833  16.857   5.350  0.0374 -0.2921  0.3455
16570W        W32464   3.075  13.335   3.123  0.1379  0.2615 -0.2922
16571W        W32465  12.233   0.822   0.697 -0.1425 -0.1792  0.0362
16572W        W32466  15.528   9.283   3.422  0.0638  0.0407  0.3145
16573W        W32467   5.970  12.590   5.126  0.1710  0.0847 -0.1135
16574W        W32468  17.374  13.730   3.057  0.1861  0.1233  0.3090
16575W        W32469   2.364   2.388   3.936  0.1584  0.0634  0.0562
16576W        W32470  10.157  13.936  16.009  0.2543  0.0611 -0.4571
16577W        W32471  16.872  15.921   3.306 -0.0781 -0.1330 -0.1543
16578W        W32472  10.506  15.412   0.272  0.0508 -0.0516 -0.1398
16579W        W32473  13.643  15.794  12.748  0.0898  0.1233  0.3880
16580W        W32474  16.652  11.546   5.261 -0.0466 -0.0085  0.2719
16581W        W32475   1.317   2.372  15.717  0.1477  0.1932  0.0029
16582W        W32476  12.972   1.002   1.899  0.1568 -0.0188 -0.1019
16583W        W32477  14.106  10.038  16.802 -0.3038 -0.0419  0.1870
16584W        W32478   0.193  16.181  13.540  0.1696 -0.0831  0.1008
16585W        W32479  13.224  12.150  17.222 -0.3428 -0.2284 -0.0293
16586W        W32480  10.530   4.931  12.676 -0.0306 -0.0496  0.0300
16587W        W32481  17.407  14.367  12.605  0.1926 -0.1278  0.0341
16588W        W32482  17.439  14.674   5.376  0.3313  0.1303  0.1033
16589W        W32483   1.335  17.481  17.152  0.2837 -0.2583 -0.0877
16590W        W32484  16.146  12.517   2.847 -0.0232  0.1689 -0.0735
16591W        W32485   6.366  15.251  16.715  0.0318 -0.0434  0.0337
16592W        W32486   0.328  13.965  13.939  0.0218  0.0122 -0.2246
16593W        W32487   7.920  12.739  12.039  0.0443  0.0510 -0.0476
16594W        W32488   6.733   9.689  16.430  0.0845  0.0446 -0.0214
16595W        W32489   0.063  15.021  15.474  0.2530  0.2542  0.1240
16596W        W32490   7.128   5.415   2.262  0.0000 -0.0061 -0.4525
16597W        W32491  14.575  17.111  13.651 -0.1714  0.0251  0.1146
16598W        W32492  17.626  11.901  16.861 -0.0020 -0.2371 -0.1710
16599W        W32493   4.484  13.385  14.620 -0.0969 -0.1391  0.0476
16600W        W32494  10.212  13.602   1.625 -0.2882 -0.0288  0.1385
16601W        W32495  13.927  16.432  16.102 -0.0765 -0.3936 -0.3103
16602W        W32496   9.527  15.359   2.659 -0.0066  0.4078 -0.1534
16603W        W32497   1.843  15.210  12.260 -0.0697 -0.0849 -0.2613
16604W        W32498   3.043  11.509  13.249 -0.0933  0.2541 -0.2790
16605W        W32499  16.070   8.969  13.075  0.1716 -0.0716  0.3726
16606W        W32500  10.397  16.840  14.451 -0.0559 -0.4711 -0.0090
16607W        W32501   7.492  14.606   0.199  0.2875  0.0121 -0.0332
16608W        W32502  17.541   7.367   4.388 -0.4853 -0.0702 -0.1197
16609W        W32503   7.411   7.015  14.480 -0.1515 -0.1201  0.0205
16610W        W32504  10.515  15.685  15.528 -0.0335  0.1107 -0.0862
16611W        W32505  17.110   7.869   3.105  0.0964  0.0877 -0.3020
16612W        W32506   8.714   5.848  11.475  0.2638 -0.1331  0.0596
16613W        W32507   5.778   2.371   1.063 -0.1794  0.0465 -0.0234
16614W        W32508  10.347   8.740   0.218 -0.1413  0.0224 -0.0036
16615W        W32509  14.099  10.142  11.792  0.3347  0.1254 -0.0329
16616W        W32510   5.062   5.195  16.627 -0.0049  0.2603 -0.4376
16617W        W32511   1.016  12.087   4.317 -0.1594 -0.0466 -0.0100
16618W        W32512  10.821   1.392  16.372  0.0377  0.0283 -0.1385
16619W        W32513   3.296   6.505   4.291  0.0773  0.3801  0.0458
16620W        W32514   6.888   3.483  16.185 -0.0529 -0.1115 -0.0745
16621W        W32515  14.213   4.862  16.157  0.1616  0.2008  0.0196
16622W        W32516   2.404   2.638   4.890  0.1169 -0.1093 -0.0556
16623W        W32517  17.363  10.545  16.155 -0.1733 -0.0549  0.2972
16624W        W32518   6.475   7.299   4.795 -0.0567 -0.0526 -0.1807
16625W        W32519   0.149  11.272   6.249 -0.0159 -0.1111 -0.0395
16626W        W32520   7.472   9.511  11.596  0.0330  0.2627 -0.0204
16627W        W32521   1.619   3.665   0.962  0.0238 -0.0214 -0.3693
16628W        W32522   4.355   7.814   4.066  0.3830  0.0790 -0.3907
16629W        W32523   3.109   0.757  12.965  0.0393  0.4008 -0.0320
16630W        W32524   6.706  17.321  16.699 -0.0169 -0.1438 -0.1011
16631W        W32525  13.743   6.697  13.759  0.0015  0.3789 -0.0522
16632W        W32526   5.331   2.329   6.627  0.0543 -0.3595  0.1143
16633W        W32527   1.588  13.151   4.862  0.1262 -0.2455  0.0818
16634W        W32528   7.341  12.945  15.224 -0.1994 -0.1580  0.2019
16635W        W32529  10.407  11.667  17.050  0.3409 -0.1892 -0.1144
16636W        W32530  11.864   2.244   0.006  0.1572  0.0338 -0.1691
16637W        W32531   8.716   6.952  16.291 -0.1703  0.0516  0.0465
16638W        W32532   1.418   6.092  17.229 -0.0534  0.1198 -0.0702
16639W        W32533   5.389   6.693   3.283 -0.1878  0.0226 -0.0154
16640W        W32534   0.327  17.360  16.785  0.0757 -0.1240 -0.1300
16641W        W32535   6.717  12.370   2.623 -0.1037 -0.3785  0.2838
16642W        W32536   2.576   3.957   5.214 -0.2075  0.3055  0.3241
16643W        W32537   6.687  14.883  15.828 -0.1876  0.2681  0.2484
16644W        W32538  14.968  17.440  16.078  0.0114 -0.0827 -0.1201
16645W        W32539  12.702   5.856   2.179  0.1587 -0.0916 -0.1387
16646W        W32540  13.665  10.800  17.201 -0.0068  0.1540 -0.3696
16647W        W32541  14.921  12.564   5.736 -0.2832  0.2378 -0.1563
16648W        W32542  10.897   2.466   3.992  0.0181 -0.1107 -0.2500
16649W        W32543  15.099   1.583  16.293 -0.3209  0.1165  0.1605
16650W        W32544  16.855   1.656   0.605 -0.0634  0.0834 -0.0617
16651W        W32545  13.145   5.155  11.582 -0.0848 -0.0129  0.0434
16652W        W32546   6.855  10.685  16.976 -0.2878 -0.1683 -0.0694
16653W        W32547   8.084   4.052   4.934 -0.1149  0.1360  0.0705
16654W        W32548   7.308  10.844  14.240 -0.0055  0.0854  0.0830
16655W        W32549  12.351   8.787  15.655 -0.0534 -0.2026  0.0667
16656W        W32550   3.301  12.304   3.513  0.0669 -0.1799  0.2093
16657W        W32551  13.094  11.649   5.199 -0.2817 -0.0329  0.0430
16658W        W32552  13.778   5.615  11.778 -0.3103  0.2876  0.0947
16659W        W32553  14.356  15.744   4.856  0.1587 -0.1868  0.0111
16660W        W32554   0.304   9.835   3.851 -0.0149 -0.1308  0.0404
16661W        W32555  10.560  16.468  14.117  0.0800 -0.0351 -0.2137
16662W        W32556   0.136   1.104   4.280 -0.0601  0.1575  0.1519
16663W        W32557   4.160  13.494   4.712 -0.2463  0.0210 -0.0955
16664W        W32558  12.839  14.937   4.757 -0.1933 -0.1085 -0.3700
16665W        W32559  13.296   3.134  15.411 -0.1932  0.0162  0.1088
16666W        W32560  12.919  16.611  14.465 -0.1394 -0.1011 -0.1721
16667W        W32561  10.785  11.706  13.743  0.1286 -0.2754  0.4427
16668W        W32562   6.806   4.769  14.381  0.0527  0.1528  0.3802
16669W        W32563  13.495  10.601  15.588  0.2668  0.0850 -0.1912
16670W        W32564   3.364   3.823   0.453 -0.0531 -0.0746 -0.2722
16671W        W32565  12.291  17.562  12.151  0.0038 -0.1373 -0.0113
16672W        W32566   4.863  10.558   5.196 -0.1594 -0.0018  0.1804
16673W        W32567   5.003   2.481   1.266  0.0672  0.0804  0.1298
16674W        W32568   8.240   7.359   4.312  0.1091 -0.2663  0.4564
16675W        W32569   1.254  12.483  16.971  0.0967  0.0272  0.0415
16676W        W32570   2.328   2.461  16.529 -0.0078 -0.1956 -0.2247
16677W        W32571   5.439   7.787  14.988 -0.0452 -0.1784  0.2272
16678W        W32572  17.051  14.125   3.203 -0.0021 -0.0948 -0.0372
16679W        W32573   4.666  17.237   4.140  0.0255 -0.1895 -0.0235
16680W        W32574  16.786  13.447  15.301  0.2574 -0.1849 -0.1804
16681W        W32575  17.366   2.734   1.229  0.2633  0.0159  0.1055
16682W        W32576  15.041   6.452  16.234  0.2019 -0.0937  0.0513
16683W        W32577   7.893  17.025  16.317  0.0666 -0.1909  0.0795
16684W        W32578   0.258   7.743  12.505  0.1035 -0.0255  0.0441
16685W        W32579   6.285   6.679  10.754 -0.2239  0.0848 -0.4396
16686W        W32580   7.468   9.384  12.090  0.2453 -0.1322  0.3844
16687W        W32581  10.039   8.312   0.135  0.2202 -0.1645 -0.0358
16688W        W32582   8.187  15.816  17.058  0.0934  0.0488 -0.2009
16689W        W32583   0.704   6.715  16.715  0.1555  0.1528 -0.1198
16690W        W32584   9.157   9.707   2.788  0.1893  0.0618  0.0885
16691W        W32585  12.671   7.023  16.096 -0.2099 -0.0570 -0.1484
16692W        W32586   0.083   3.520  12.447  0.0633  0.5650 -0.1153
16693W        W32587   3.585   6.722   6.354 -0.0847 -0.2369 -0.1152
16694W        W32588  11.282  11.594   4.344  0.3086  0.0236 -0.4597
16695W        W32589   7.723   4.320   2.535  0.0431  0.1542 -0.1058
16696W        W32590  12.400   5.517   5.819 -0.2535  0.2253 -0.2153
16697W        W32591   9.085   1.814   4.900 -0.0688 -0.1978  0.0476
16698W        W32592   2.623   9.240   2.979 -0.1781  0.1678 -0.0067
16699W        W32593  11.248   7.556  14.594 -0.0925  0.1470 -0.0354
16700W        W32594   2.821  13.620  12.617 -0.0343  0.0320  0.0934
16701W        W32595   7.326  12.291   3.128 -0.0048 -0.3926 -0.3247
16702W        W32596  13.541   4.337   3.112 -0.2524  0.3191  0.1408
16703W        W32597   2.955   4.390   2.779 -0.0086 -0.3643 -0.1541
16704W        W32598  16.627   8.098  12.776  0.6492 -0.0416 -0.2246
16705W        W32599   9.054  12.669   6.439 -0.3884  0.0387  0.0859
16706W        W32600  11.343  11.076   2.401 -0.1580 -0.0240  0.0297
16707W        W32601  11.313  10.763  10.522 -0.1183 -0.1014  0.0202
16708W        W32602  16.670  17.501  16.942 -0.1285 -0.3767 -0.1599
16709W        W32603   7.913   2.638   5.115 -0.4888  0.1282 -0.2742
16710W        W32604  14.718   7.921  13.929  0.0914  0.1604  0.1624
16711W        W32605   1.780  14.361   2.381  0.0314  0.0985  0.2314
16712W        W32606  12.967  12.060   4.494  0.0130  0.0317 -0.0925
16713W        W32607   3.417   5.138   1.800 -0.2159 -0.1000 -0.1496
16714W        W32608   0.335  13.142   1.523 -0.0597  0.0324  0.0115
16715W        W32609   3.834   9.737   4.424 -0.1317  0.1174 -0.0126
16716W        W32610   1.725   2.293   2.760 -0.2758  0.0192 -0.0665
16717W        W32611   2.609   5.754   2.537 -0.0296 -0.0539 -0.0632
16718W        W32612   9.983   3.088  14.813 -0.1767  0.2595  0.0201
16719W        W32613   4.195   2.274   6.380  0.1117 -0.0094 -0.3260
16720W        W32614  14.169  17.550  15.254 -0.0043 -0.0174 -0.0910
16721W        W32615  16.818   4.902  14.569  0.1136 -0.2090 -0.1750
16722W        W32616   4.499   1.198  14.161  0.0565 -0.0396 -0.3022
16723W        W32617  13.117   3.947   0.147 -0.4004 -0.1530 -0.2641
16724W        W32618   8.936   8.942   1.381  0.0598  0.0588 -0.3295
16725W        W32619  14.786   8.315  14.809  0.2034 -0.0250  0.3422
16726W        W32620   1.650   8.167   5.823 -0.1529  0.2335 -0.3018
16727W        W32621   0.246   2.103   2.469  0.0773 -0.0382 -0.0030
16728W        W32622   8.937   5.097  13.265 -0.0055 -0.3816 -0.2038
16729W        W32623  16.813   6.291  13.148 -0.0241 -0.1525 -0.0421
16730W        W32624   5.315  12.599   5.367  0.0130 -0.4754  0.0438
16731W        W32625   6.514   8.190   5.901  0.1231  0.1090 -0.2100
16732W        W32626   3.195  14.831  16.643  0.3190  0.1645  0.0488
16733W        W32627   2.808   7.380  14.192  0.1007  0.0497 -0.2345
16734W        W32628   9.704   6.070  15.422  0.2639  0.0557 -0.0925
16735W        W32629   5.092  16.436   4.604  0.0224 -0.4301 -0.1811
16736W        W32630   4.263   3.252  15.659 -0.3798 -0.0145 -0.0733
16737W        W32631   8.854   8.150  14.349 -0.1558  0.0122  0.0625
16738W        W32632   8.442  16.820  12.860 -0.0859 -0.1785  0.0036
16739W        W32633   3.301  16.278   0.929  0.0206 -0.1697 -0.1639
16740W        W32634   5.328  15.287   5.776 -0.2247  0.0592  0.0797
16741W        W32635   7.545  15.729   2.702 -0.1120  0.0015 -0.1704
16742W        W32636   9.735  16.468  16.169  0.0373 -0.1470  0.2325
16743W        W32637   9.375   4.128   5.652  0.1926 -0.1627 -0.0802
16744W        W32638  11.662   0.775   1.918  0.0930 -0.0021  0.1973
16745W        W32639   3.833   8.548  12.638 -0.2307  0.0347 -0.2357
16746W        W32640   4.250   8.469   3.788 -0.1345  0.2519 -0.1068
16747W        W32641   7.569  11.703   5.952  0.0237 -0.1028 -0.1310
16748W        W32642   1.244   9.764  12.462 -0.3021  0.0324  0.1123
16749W        W32643   9.767  15.464   3.935  0.0283  0.0738 -0.0662
16750W        W32644   6.336   1.662   3.125  0.2662 -0.0193 -0.1647
16751W        W32645   0.416  12.125  16.602  0.2320 -0.0039 -0.0113
16752W        W32646   5.467   6.457  13.236 -0.2953 -0.3889 -0.1357
16753W        W32647  14.708   0.331  11.833 -0.0967 -0.0310  0.1838
16754W        W32648  14.242   5.308  16.996 -0.1890 -0.3951 -0.0147
16755W        W32649  15.492  14.119   0.784 -0.1020 -0.2371  0.3320
16756W        W32650   9.352   8.000   5.972 -0.0394 -0.0309  0.2069
16757W        W32651   4.293   9.981   1.370 -0.1192  0.2813  0.1663
16758W        W32652   0.727  16.618   3.687 -0.1925 -0.2528 -0.0555
16759W        W32653  13.594   2.257   1.860  0.0347  0.2285  0.0880
16760W        W32654   4.459  15.491  13.139 -0.0208 -0.0215  0.0156
16761W        W32655   2.913   2.054  15.937 -0.4022  0.0365 -0.0178
16762W        W32656   7.528   2.089   1.474 -0.4850 -0.1858  0.3297
16763W        W32657   0.542  17.328  15.909 -0.0427  0.0176  0.2483
16764W        W32658   0.370   8.083   6.802  0.1630 -0.1338 -0.1870
16765W        W32659  13.367   5.146   2.048 -0.3676  0.1812  0.0054
16766W        W32660   8.702  12.006   0.113 -0.2401  0.0774 -0.0716
16767W        W32661   1.961  12.946   3.366 -0.1882 -0.0086 -0.1347
16768W        W32662   1.962   7.152  13.022 -0.0475  0.0426  0.0515
16769W        W32663  10.217   9.366  11.552  0.1948 -0.1492 -0.0716
16770W        W32664   7.359   0.676  12.311  0.2060 -0.0582  0.1846
16771W        W32665   8.782   2.798   3.113  0.1801  0.0254 -0.0358
16772W        W32666  11.784  17.153  13.945  0.3302  0.2043  0.1040
16773W        W32667   8.101   0.105  15.103  0.1511  0.0192 -0.1236
16774W        W32668   0.334   5.162  16.231  0.0547  0.0854 -0.2173
16775W        W32669  16.907  11.421   5.992  0.0322  0.0601 -0.1089
16776W        W32670   2.069  16.379  13.500 -0.1078  0.2168 -0.2050
16777W        W32671   5.168   4.109  13.609 -0.0423 -0.2455 -0.2083
16778W        W32672   6.666   0.846  12.900 -0.1662  0.2336 -0.0579
16779W        W32673  12.710  14.634   2.655 -0.0773 -0.0726  0.2905
16780W        W32674  10.605   6.723  11.820  0.3300 -0.0844 -0.1312
16781W        W32675   8.386   7.041   0.787  0.0581 -0.1311 -0.2800
16782W        W32676   8.476  13.437   3.156 -0.1915  0.1885  0.0508
16783W        W32677   9.360  14.961  17.145 -0.2112 -0.0947 -0.0241
16784W        W32678  10.335   9.430  12.941  0.1748 -0.1749 -0.1991
16785W        W32679   7.834   5.676   2.418  0.2131  0.1651  0.1150
16786W        W32680  15.738   1.385  17.280 -0.1962 -0.0331 -0.2860
16787W        W32681   4.475   6.616   2.749  0.3476  0.1114  0.3922
16788W        W32682  10.545   5.930   5.637 -0.0054  0.3538  0.2218
16789W        W32683   7.348   6.734   2.787  0.0301  0.0404  0.0296
16790W        W32684   1.090  11.482   4.977 -0.0158  0.2252  0.0579
16791W        W32685   7.935  17.405   3.851 -0.3484  0.0066  0.0417
16792W        W32686  13.938  17.599   4.836 -0.4807 -0.0196  0.2164
16793W        W32687  10.884  15.629   2.000  0.0476  0.2243  0.1100
16794W        W32688  13.092  17.387  17.215  0.1281 -0.0501 -0.1009
16795W        W32689   8.943   0.575   4.816 -0.2672 -0.0363  0.0860
16796W        W32690   3.529   6.420   0.569 -0.2215  0.1875 -0.3181
16797W        W32691   7.573   8.808   5.201  0.3289 -0.1855  0.0299
16798W        W32692   6.277  16.856   4.096  0.2086 -0.0246 -0.0598
16799W        W32693   9.312  16.067   3.208 -0.1599  0.1685 -0.0968
16800W        W32694  10.658   3.125   6.052  0.2526  0.4057  0.2626
16801W        W32695  16.889   1.808  14.321 -0.2150 -0.3183  0.0886
16802W        W32696  14.869   9.583  12.948  0.1123 -0.1399 -0.0292
16803W        W32697   9.777  13.101   3.576 -0.2814  0.0798 -0.1181
16804W        W32698   9.908   4.226   1.801  0.2180 -0.5557  0.2052
16805W        W32699   1.641   9.090  12.837  0.0561  0.1986 -0.2736
16806W        W32700  16.266   0.818  15.507 -0.1363  0.2795  0.1736
16807W        W32701   1.255   6.466   1.205  0.0497 -0.3012  0.4712
16808W        W32702   3.732  16.897   4.823 -0.1040 -0.1823  0.1851
16809W        W32703   0.708   8.003   3.777  0.1580 -0.1664 -0.3247
16810W        W32704   9.944   5.672  17.166  0.1135  0.0376  0.0976
16811W        W32705   5.784  15.231   5.562 -0.1571 -0.1874 -0.4823
16812W        W32706   8.745  12.325  16.460  0.0218 -0.2239  0.1215
16813W        W32707   5.668  13.122   3.327 -0.1389  0.1419  0.2803
16814W        W32708   7.785  11.882  13.035 -0.0503  0.2573 -0.4483
16815W        W32709   0.802  11.269   5.759 -0.1464 -0.1364 -0.0743
16816W        W32710   8.329  11.305  11.908  0.0428  0.2588  0.0995
16817W        W32711  13.346  15.328   4.205 -0.2264 -0.2761  0.0737
16818W        W32712  12.651   7.331   3.380 -0.1287 -0.0547  0.0139
16819W        W32713   1.620   0.729   0.860  0.1401 -0.0172 -0.1566
16820W        W32714   0.153   6.018   5.236 -0.0713  0.1164 -0.0715
16821W        W32715   2.869  14.201  15.141  0.0724  0.1769 -0.4924
16822W        W32716  15.154   1.921   4.876 -0.0441 -0.1875 -0.0740
16823W        W32717  15.147   4.053  16.954 -0.0159 -0.4611 -0.0493
16824W        W32718   8.717  10.470  14.664 -0.0044 -0.1190  0.1502
16825W        W32719  10.767  12.616  14.932 -0.1006 -0.1972 -0.0269
16826W        W32720   8.531  14.509  12.009  0.0357 -0.2592 -0.2024
16827W        W32721   7.512  15.971  17.284  0.0163  0.1853  0.0391
16828W        W32722   9.825  13.591   3.639  0.0038 -0.0775  0.3389
16829W        W32723   1.421   9.383   4.441  0.0638  0.0214 -0.1611
16830W        W32724   9.193   0.022  16.274  0.1794 -0.1005 -0.0010
16831W        W32725  12.339   4.620   5.366 -0.2180  0.3257 -0.0063
16832W        W32726   2.392   6.167   2.574 -0.0061  0.2154 -0.1954
16833W        W32727  15.887  11.250  15.438 -0.0717 -0.1765 -0.0023
16834W        W32728  14.866   9.107  15.225  0.0619  0.0702 -0.1323
16835W        W32729   9.652   8.296   4.281  0.1576  0.0585  0.0221
16836W        W32730  10.377  14.268  15.626  0.2300  0.2735  0.1299
16837W        W32731   1.502   7.264  15.166  0.2506  0.0542  0.1717
16838W        W32732   0.529  15.694  12.829  0.1036  0.0516  0.1072
16839W        W32733  13.990   2.284   0.360 -0.0837  0.1012  0.3774
16840W        W32734  15.151  16.939   2.527  0.2462  0.1826  0.2488
16841W        W32735   2.243   9.698  15.738 -0.1223 -0.2596 -0.1319
16842W        W32736  14.241   2.430  17.210 -0.1593 -0.0955  0.1086
16843W        W32737  16.546  10.354   5.657  0.3054 -0.1890  0.0481
16844W        W32738  13.237   1.922  13.408 -0.0536  0.0765  0.1312
16845W        W32739   2.838   7.158   4.638  0.1296  0.1867 -0.0766
16846W        W32740   4.917   5.647  15.392 -0.3436  0.0111  0.5909
16847W        W32741   7.533   9.711   3.801  0.0527 -0.0404  0.4568
16848W        W32742   9.496   6.394   4.981 -0.0910 -0.0154 -0.2026
16849W        W32743  13.581   7.732  15.864 -0.0352  0.1099 -0.1500
16850W        W32744  14.118  14.454   4.022 -0.2075  0.1218 -0.2216
16851W        W32745   7.043   3.413  14.876  0.0607 -0.3602  0.0228
16852W        W32746  10.886  17.525  14.019  0.0956 -0.0464  0.0441
16853W        W32747   6.588  13.006  14.608  0.0598  0.0813 -0.1433
16854W        W32748   3.931  12.000   4.912  0.1468 -0.0411  0.0740
16855W        W32749  15.682  15.102  16.684  0.0855 -0.0598 -0.0995
16856W        W32750  12.481  14.547  15.399  0.0109  0.2297  0.0263
16857W        W32751  12.739   8.330  12.961  0.0452 -0.0395  0.3521
16858W        W32752  14.504  13.955   5.910  0.0253  0.0268 -0.0379
16859W        W32753   6.667   7.911   6.304  0.1399 -0.1056 -0.1631
16860W        W32754  10.687  13.853  16.893  0.3553  0.1147 -0.1033
16861W        W32755   1.901  11.057  14.531  0.1126 -0.1500  0.2006
16862W        W32756   0.792   6.298   1.073  0.0087  0.1090 -0.0369
16863W        W32757   7.257   7.069   3.787  0.1829 -0.0543  0.2976
16864W        W32758  12.926  13.485  14.538  0.1355 -0.2915 -0.0946
16865W        W32759  14.737  16.658   0.820 -0.1874  0.0909 -0.0826
16866W        W32760   7.384   0.328  13.650  0.0805 -0.0287 -0.1739
16867W        W32761   5.582  14.770  16.483 -0.0396 -0.0399 -0.1368
16868W        W32762   5.325   4.467  17.182  0.1028 -0.1595  0.1031
16869W        W32763   3.558   5.825   2.148  0.2313  0.0930 -0.0147
16870W        W32764   6.291  10.388   1.861 -0.0082 -0.0191 -0.3278
16871W        W32765   3.648   4.982  15.790 -0.4156  0.1027 -0.0095
16872W        W32766  10.136   3.709  14.179 -0.1232 -0.3074 -0.1528
16873W        W32767   2.836   0.525   0.190  0.2816 -0.0654  0.1442
16874W        W32768  17.600   7.122   5.953  0.0998  0.1627  0.0181
16875W        W32769  13.284  15.192   2.811 -0.0811  0.0880 -0.1243
16876W        W32770  16.310   2.911  15.833 -0.1439  0.2732 -0.1450
16877W        W32771  10.152  12.141  10.826  0.1292  0.0850 -0.0227
16878W        W32772   0.619   7.544   3.223  0.3613 -0.1792 -0.0684
16879W        W32773  15.725   1.198   3.127 -0.0352 -0.1946 -0.0167
16880W        W32774  14.597   5.499   1.040  0.0189  0.2396  0.1530
16881W        W32775  12.220   5.753   1.014 -0.5023 -0.2768  0.0998
16882W        W32776   0.811   2.297  15.983  0.0452 -0.0256  0.0786
16883W        W32777  14.039   6.269  13.893  0.3858 -0.1842 -0.0789
16884W        W32778  15.590   6.746   0.140  0.0529 -0.1793 -0.0658
16885W        W32779   6.417   1.013  15.190 -0.3020  0.0638 -0.2325
16886W        W32780   1.447   8.814  14.025  0.1576  0.0342 -0.0618
16887W        W32781   3.569   1.530   1.866 -0.0343 -0.1715 -0.0109
16888W        W32782   8.157   9.045   6.033  0.2138  0.1707  0.0724
16889W        W32783  11.695  15.431   5.036  0.1768 -0.0201  0.2396
16890W        W32784  11.198   6.766  14.084  0.0824  0.0078 -0.1986
16891W        W32785   2.998   7.716   2.895  0.1183  0.2093  0.2142
16892W        W32786   1.218  11.230   3.542 -0.0662  0.2454 -0.2957
16893W        W32787  10.153   8.749   1.077  0.1479 -0.2880 -0.1320
16894W        W32788   3.166   1.766  16.723  0.0083  0.0633 -0.0770
16895W        W32789   6.166  16.918   0.810  0.1404 -0.0114  0.1893
16896W        W32790   8.550  15.977   5.800  0.0203  0.1716  0.2305
16897W        W32791   1.002   6.989   2.058  0.0508  0.0183 -0.2775
16898W        W32792   2.027  13.319   1.635  0.1848 -0.1461  0.0917
16899W        W32793   3.039  16.279   5.301 -0.1352  0.1535  0.2873
16900W        W32794  14.098   5.194  11.476 -0.0104  0.0749 -0.1561
16901W        W32795   4.136   3.877   4.678  0.0245 -0.2089 -0.1340
16902W        W32796  10.071   5.022   4.981 -0.0464  0.1178  0.4093
16903W        W32797   8.993  10.086  14.536 -0.1957  0.2191  0.2389
16904W        W32798   5.805   1.440  17.172  0.1117 -0.1521  0.0925
16905W        W32799   7.810   7.023   4.577  0.0955  0.0761 -0.0070
16906W        W32800   8.773  15.766  13.024  0.0223  0.0895  0.0473
16907W        W32801   9.044   9.849  13.408 -0.0256 -0.1413  0.2030
16908W        W32802   1.519   2.618  13.387 -0.0453 -0.0239 -0.3106
16909W        W32803  10.859   6.427  12.256  0.0311  0.0077  0.3574
16910W        W32804   5.235  10.957   2.238 -0.1725  0.0134 -0.1498
16911W        W32805   4.508   4.346   2.337  0.0542 -0.2209 -0.0986
16912W        W32806   7.175  16.108  12.679  0.2062  0.3934 -0.1783
16913W        W32807  17.574   7.147   1.026 -0.0125 -0.0849 -0.0244
16914W        W32808  17.494   5.268  14.305 -0.0120 -0.0796  0.0048
16915W        W32809   5.208  13.988   0.152  0.0707  0.1371 -0.1378
16916W        W32810   4.539  14.582   0.826  0.0560  0.1160  0.3203
16917W        W32811  14.094   4.801  15.328 -0.0949 -0.1131  0.1477
16918W        W32812   8.457   9.252  16.527 -0.0313  0.0984 -0.0072
16919W        W32813  13.740   0.726  14.782 -0.0277  0.0003  0.1594
16920W        W32814  15.979  12.943   4.725 -0.2049 -0.1559 -0.2728
16921W        W32815  13.177  14.038  14.907  0.1848  0.1743  0.1635
16922W        W32816  16.573  10.680  15.168 -0.0525  0.1795 -0.0993
16923W        W32817  11.439   4.822   4.065  0.1243  0.0109 -0.2603
16924W        W32818  15.992   2.165  13.618  0.0153 -0.1796 -0.0212
16925W        W32819  11.348   5.401   5.241 -0.1741  0.0302 -0.1678
16926W        W32820  11.527   5.859   4.520  0.3017 -0.0923  0.0260
16927W        W32821  10.147  12.891   5.085  0.2088  0.1012  0.2796
16928W        W32822   1.927  15.122   5.769  0.0422  0.0704 -0.2759
16929W        W32823  14.569  10.684  16.906 -0.1163  0.0748  0.0926
16930W        W32824  12.617   4.937   2.684  0.0606 -0.1172  0.1587
16931W        W32825   7.785  15.525  14.952 -0.0073 -0.2316 -0.2897
16932W        W32826   6.772   9.767   3.037 -0.1115 -0.2817  0.0703
16933W        W32827   4.695  15.532  15.576  0.2218 -0.0665 -0.0102
16934W        W32828  10.243  13.366  16.396 -0.2111  0.0896  0.2936
16935W        W32829  12.507   6.443   4.210 -0.1510  0.0689  0.1970
16936W        W32830   0.791   5.526  14.739 -0.0949  0.1301  0.0898
16937W        W32831  13.483   0.438  15.568 -0.0237  0.3702  0.0301
16938W        W32832   7.572   0.589  16.803 -0.2734  0.0536 -0.0137
16939W        W32833   4.419  12.491   5.640 -0.0380  0.1014  0.0446
16940W        W32834   0.956   9.902  15.538 -0.0047 -0.0494  0.2841
16941W        W32835   1.308   2.517  12.989  0.0886 -0.0415 -0.1046
16942W        W32836   4.933  11.394   4.813 -0.2922 -0.1524  0.1906
16943W        W32837  16.155   4.076  15.628 -0.0583  0.0414 -0.1223
16944W        W32838   9.114  14.148  12.871 -0.0055 -0.0292  0.0572
16945W        W32839   7.580   8.267   1.242  0.0452  0.0198  0.3036
16946W        W32840  15.752   4.497  12.001 -0.3139 -0.0796 -0.0969
16947W        W32841   8.434  17.126   0.364  0.1203 -0.2437 -0.0513
16948W        W32842  12.638   8.495   4.525 -0.1394 -0.2057 -0.3034
16949W        W32843   0.724   8.935   2.979  0.1974  0.1990  0.2861
16950W        W32844   1.716   0.121   1.323 -0.1130 -0.4010 -0.0736
16951W        W32845  10.772  10.896   5.407  0.0473 -0.1154 -0.0686
16952W        W32846  16.379   6.288   5.199  0.1289  0.3471  0.0320
16953W        W32847   4.288  13.226  15.705 -0.1933  0.0463 -0.1212
16954W        W32848   3.713   5.158   5.611 -0.0063  0.2276  0.0729
16955W        W32849   5.710   4.791   1.729  0.1339  0.3000  0.1289
16956W        W32850   7.512   1.376   0.630  0.1189 -0.0121 -0.1017
16957W        W32851  14.230   4.925   3.760  0.0323  0.0805  0.0688
16958W        W32852  15.281   7.410   2.291 -0.2094 -0.1994  0.4134
16959W        W32853   5.362   7.026  15.353 -0.1232  0.1380 -0.0672
16960W        W32854  14.227   8.904   4.741 -0.0131 -0.0164 -0.0826
16961W        W32855  13.994   9.485   1.539 -0.1025 -0.0615  0.2130
16962W        W32856   7.847  17.615   5.844 -0.0017 -0.0496 -0.2201
16963W        W32857  15.408   2.137   0.536  0.0403 -0.1831 -0.2136
16964W        W32858   2.257  11.867  12.239 -0.2077  0.0636 -0.0718
16965W        W32859   0.555   1.872  16.498 -0.0160  0.3572 -0.0501
16966W        W32860   9.200   5.255   3.263 -0.0526  0.3081  0.0694
16967W        W32861   5.087  11.094  14.407 -0.0081 -0.0723 -0.1529
16968W        W32862   8.295   6.036   4.543  0.2760 -0.0121  0.0422
16969W        W32863   2.919   6.198   2.728  0.1327  0.1845 -0.0431
16970W        W32864  11.453  11.314   4.768 -0.0351  0.0197 -0.2448
16971W        W32865   3.568   5.387   5.179  0.1842 -0.0018 -0.1504
16972W        W32866  10.622   2.492  13.788 -0.2286 -0.1863  0.2086
16973W        W32867  14.975  11.178   4.181 -0.0377  0.1369 -0.1524
16974W        W32868  14.077   4.459   1.898  0.0877 -0.0602  0.3122
16975W        W32869   0.768   9.208   5.356 -0.0807  0.0098 -0.0097
16976W        W32870   9.951   8.967   5.623 -0.0022  0.0899  0.2487
16977W        W32871  13.917  14.712  15.759 -0.2268  0.1566 -0.0218
16978W        W32872   5.812   2.030  12.320  0.0866  0.0109  0.2191
16979W        W32873   3.680   1.119   5.034  0.2108 -0.0110 -0.0318
16980W        W32874  15.403   7.811   5.717  0.0770  0.2226  0.2325
16981W        W32875  11.422   8.630   2.967  0.1279 -0.2252 -0.1692
16982W        W32876   6.392   5.695   4.018  0.1191  0.0820 -0.0305
16983W        W32877   2.619   3.105  16.518  0.0516 -0.1591 -0.1934
16984W        W32878   4.760   6.118   1.230 -0.0673 -0.2163  0.0956
16985W        W32879  10.114  15.297  13.115 -0.4174  0.1086  0.1572
16986W        W32880  14.261  17.484   4.467 -0.0059 -0.0127 -0.1826
16987W        W32881   3.566  17.442   4.505  0.0206 -0.1195  0.1180
16988W        W32882  17.206   2.281  13.574  0.0243 -0.2780  0.2202
16989W        W32883   2.887   5.016   6.841  0.3350  0.3159  0.0921
16990W        W32884   6.530   2.806   6.228  0.2210  0.2263 -0.0186
16991W        W32885   6.879   6.062  16.984 -0.0133  0.2730  0.0980
16992W        W32886   3.015  13.470   1.492 -0.0348 -0.1929  0.2008
16993W        W32887   2.907   8.267   2.955  0.0605 -0.0697  0.0582
16994W        W32888  15.602   9.415   2.138  0.1043  0.0327 -0.0328
16995W        W32889   7.389  15.460   1.054  0.0833 -0.0432  0.0401
16996W        W32890   4.411  10.439   3.071  0.0895  0.4092  0.1073
16997W        W32891   0.290   6.174   3.048  0.1085 -0.2464  0.0841
16998W        W32892   7.464  13.768   4.380  0.1042 -0.3158  0.0052
16999W        W32893   4.408  16.241  13.944 -0.0591  0.2393 -0.2169
17000W        W32894   0.099  10.571  17.074  0.0122 -0.1071  0.0953
17001W        W32895   1.152  17.134  15.240  0.0208  0.2375  0.1478
17002W        W32896   9.557   5.152   3.693 -0.0500 -0.1415 -0.0752
17003W        W32897   9.240   9.958  15.010  0.3136  0.0133 -0.1069
17004W        W32898   2.730   0.526   1.837 -0.0178 -0.0852 -0.1111
17005W        W32899   8.531   3.696  12.717  0.3148  0.3386 -0.1027
17006W        W32900   8.893   5.271   3.644  0.1629 -0.1881  0.1472
17007W        W32901  11.299   1.306  14.503 -0.2999  0.0816 -0.0507
17008W        W32902  11.323   3.120   3.989 -0.3341  0.1561 -0.1827
17009W        W32903  12.250   8.424  16.047  0.0294 -0.1447 -0.2033
17010W        W32904   4.383   7.559  12.161  0.0329  0.1133  0.0773
17011W        W32905   2.108   5.792   1.358 -0.3447  0.2101  0.1433
17012W        W32906   8.115   8.847  14.175  0.2003  0.0337 -0.2174
17013W        W32907   1.579   6.821  15.501 -0.1605 -0.2389  0.0745
17014W        W32908   0.939   2.541   3.612 -0.2576 -0.0407  0.1368
17015W        W32909   2.534  15.138   6.351  0.0768 -0.0570  0.0632
17016W        W32910  12.044   7.271  14.865 -0.0485 -0.5516 -0.2437
17017W        W32911  14.656   2.743   3.279  0.0746  0.1952  0.1027
17018W        W32912  12.831   8.921   2.920  0.1827  0.0241 -0.2287
17019W        W32913   5.857   5.649  15.291  0.3373  0.1650  0.0345
17020W        W32914  15.983   3.342   4.714  0.0739 -0.1302 -0.0966
17021W        W32915  14.509  14.159  17.234  0.0274 -0.0387 -0.0043
17022W        W32916   5.402   3.610   5.775  0.1217 -0.0011 -0.0918
17023W        W32917   1.502   8.051   0.182 -0.3879  0.3676 -0.0851
17024W        W32918   4.394   8.652   2.608 -0.0824 -0.2281  0.0251
17025W        W32919  16.267   6.901  16.589  0.1456 -0.0513 -0.3803
17026W        W32920   1.441   6.700   2.110 -0.0920 -0.0425  0.2445
17027W        W32921  11.298  17.294   5.204  0.1874 -0.2106 -0.0882
17028W        W32922  10.169   8.462  13.016 -0.0566  0.5541  0.2812
17029W        W32923   2.952  14.661  13.280  0.3263 -0.0624 -0.0187
17030W        W32924  11.648   1.152  14.120 -0.0489  0.1055 -0.2335
17031W        W32925  15.918   6.445   4.083  0.1436 -0.1701 -0.1400
17032W        W32926   9.242   9.101   5.261  0.1264 -0.0654 -0.2007
17033W        W32927   9.921  10.310  13.948  0.2836 -0.3067  0.1664
17034W        W32928   3.959  15.005   3.951 -0.0349 -0.0963  0.1321
17035W        W32929  11.587  12.088   0.382  0.0447  0.1094  0.2865
17036W        W32930   0.299  16.588  14.361  0.0635  0.0980  0.3432
17037W        W32931   9.983  12.790  15.497 -0.2741  0.0840 -0.0423
17038W        W32932  10.943   5.113   5.372 -0.1432  0.0659 -0.4085
17039W        W32933   5.073  16.604   0.462 -0.0700 -0.0993  0.3374
17040W        W32934   8.803  10.640   3.361 -0.0489  0.0700  0.3042
17041W        W32935  11.960  12.867  16.014 -0.2280 -0.2885 -0.4341
17042W        W32936   8.623  16.530   0.252  0.0628 -0.1062 -0.4722
17043W        W32937  16.983   3.523  13.692  0.0303  0.0965  0.0912
17044W        W32938   4.227   5.445   2.238 -0.1227  0.0103 -0.0065
17045W        W32939  17.313   6.790   1.358 -0.0595 -0.0862 -0.1719
17046W        W32940   8.577  13.719   5.781  0.1353  0.2308  0.2079
17047W        W32941   9.310   6.388   3.011 -0.2313 -0.3482  0.1846
17048W        W32942   5.579   2.228  12.680  0.0481  0.1538 -0.2933
17049W        W32943  15.652  16.808  16.190  0.0623  0.0527  0.0362
17050W        W32944   2.049   4.728   3.041 -0.1807  0.1390  0.0194
17051W        W32945   9.411   2.093  16.105 -0.0069 -0.0039  0.0995
17052W        W32946  13.165  14.446   5.077  0.0723  0.2385 -0.1115
17053W        W32947  15.896   8.645   0.521  0.0369 -0.0423 -0.0064
17054W        W32948  10.985   7.232   0.826 -0.1139 -0.1205  0.1228
17055W        W32949  17.326   4.442  16.527  0.1969  0.2052 -0.1620
17056W        W32950  13.477   8.961   0.872 -0.2210 -0.4195 -0.2004
17057W        W32951   4.962   2.883  12.575  0.1703  0.1916 -0.0829
17058W        W32952  13.429   9.009  13.081  0.1273  0.0007 -0.1213
17059W        W32953   4.584   7.378   3.171 -0.0705 -0.0035 -0.1845
17060W        W32954   7.630   8.458   1.733  0.2459  0.1647 -0.0233
17061W        W32955  16.365   3.723   0.483  0.0298  0.3554 -0.3287
17062W        W32956  14.813  14.010   2.289  0.0779 -0.2210 -0.0155
17063W        W32957   0.917  16.911  14.845 -0.0445 -0.1296 -0.0056
17064W        W32958  11.681   1.559   0.697 -0.1705  0.2623  0.0839
17065W        W32959  15.309   4.749   0.979  0.2431 -0.2980 -0.1961
17066W        W32960   9.717   9.108  14.838 -0.0036 -0.0140  0.0274
17067W        W32961   2.289   8.453   1.095 -0.0012 -0.2368  0.0262
17068W        W32962   5.885   4.971   0.307 -0.0575 -0.0107  0.1216
17069W        W32963   1.681  11.279   2.711 -0.2119 -0.0315 -0.0920
17070W        W32964   7.469   9.419  16.246 -0.0562 -0.2303 -0.2084
17071W        W32965   8.996  17.448  12.112 -0.3688  0.0853  0.1228
17072W        W32966   4.308  14.008   1.379 -0.0145  0.0568 -0.2631
17073W        W32967  13.256  10.277  11.454  0.1882  0.3736 -0.1061
17074W        W32968  15.368   9.013  14.615 -0.2952  0.0305  0.2054
17075W        W32969  17.549   2.548  12.659  0.0904 -0.6474  0.0366
17076W        W32970  16.979   8.342  15.105  0.0385 -0.1962 -0.2841
17077W        W32971  10.800  14.542   4.549  0.0016 -0.1344 -0.2782
17078W        W32972   8.856   5.030  11.859 -0.0482  0.3077  0.0103
17079W        W32973   6.779  16.306  12.930 -0.0023  0.3400 -0.0307
17080W        W32974   1.747  15.537   6.035  0.1849  0.1069 -0.0805
17081W        W32975   2.535   9.011   2.408 -0.1492 -0.1459  0.1360
17082W        W32976   5.761   4.742  15.763  0.1997  0.0678 -0.0385
17083W        W32977  12.947  12.736  13.716 -0.5409 -0.0352 -0.0406
17084W        W32978  10.443   8.595  14.258 -0.0999  0.2514  0.0273
17085W        W32979   0.977  16.238  14.314 -0.1898 -0.0122 -0.0779
17086W        W32980   8.276  15.463  15.123  0.0697  0.1546  0.0672
17087W        W32981   3.829   8.626   2.800  0.0527 -0.1460  0.0285
17088W        W32982   3.074   5.131  13.814 -0.1043 -0.2730 -0.3825
17089W        W32983   1.712   5.274  17.229  0.0764  0.0200  0.1010
17090W        W32984   1.265   4.832   5.319 -0.1139  0.2755  0.1711
17091W        W32985   4.849  12.136  17.274  0.3706  0.0533  0.2045
17092W        W32986  10.991  16.719   0.408  0.2785  0.0521  0.4826
17093W        W32987   6.749  17.462   5.761 -0.2001 -0.0209  0.0780
17094W        W32988  17.157  10.121   3.572 -0.1522  0.1836  0.0901
17095W        W32989   7.459  11.971  15.085  0.1200 -0.1730  0.0839
17096W        W32990   5.718  16.639   0.862 -0.2005 -0.1524  0.1557
17097W        W32991  11.628   6.104   3.360 -0.2356  0.0617 -0.0335
17098W        W32992  12.013  17.342  13.512 -0.1998  0.2019  0.2348
17099W        W32993   4.337   3.751  16.805  0.2874  0.0990  0.0901
17100W        W32994   3.701   5.050  16.833  0.0518 -0.3265 -0.3101
17101W        W32995  13.426  15.121   2.258 -0.1556  0.0748  0.2242
17102W        W32996   1.436   6.742   0.784 -0.2327 -0.2938  0.0635
17103W        W32997   4.054  10.765   1.872 -0.0623  0.2199 -0.1711
17104W        W32998  11.947   4.633  15.279 -0.1891 -0.0051  0.2292
17105W        W32999   7.335  14.043  12.363 -0.0995  0.0105  0.2962
17106W        W33000  17.036  16.768  14.768 -0.1765 -0.0876 -0.1454
17107W        W33001   2.563  15.689  13.395  0.0013  0.1044 -0.3824
17108W        W33002   1.389   8.548   1.533 -0.3112  0.0090  0.1756
17109W        W33003  13.162   9.936  15.609 -0.0958  0.1414 -0.0301
17110W        W33004  11.688  13.046   2.679  0.0781 -0.0670  0.0368
17111W        W33005  10.152   4.688  12.239  0.0212  0.2608  0.0466
17112W        W33006  13.910   9.123  15.448 -0.0547  0.1537  0.2108
17113W        W33007   8.680   4.233  16.695  0.1402 -0.3696  0.1551
17114W        W33008   9.675   4.443  16.178 -0.1005 -0.1185  0.0293
17115W        W33009   9.943  11.979  12.750  0.0931  0.0047  0.0131
17116W        W33010  14.450  11.698   2.733  0.3211 -0.2325 -0.2416
17117W        W33011   0.625   7.514   1.454  0.3650 -0.1194 -0.3971
17118W        W33012  16.739  16.351  16.953 -0.0443 -0.1830  0.1957
17119W        W33013  16.820  15.633  12.629  0.1390 -0.0792  0.1028
17120W        W33014  16.446   1.588   5.956  0.2773  0.0189 -0.0713
17121W        W33015  16.179   7.209   0.280 -0.0214 -0.1531  0.5849
17122W        W33016  16.790   0.681   2.954  0.1255 -0.0105 -0.2206
17123W        W33017   2.853   4.967   0.499 -0.0413 -0.0003 -0.0889
17124W        W33018  16.759   6.933  16.629  0.3940 -0.1128 -0.1115
17125W        W33019  15.331   8.340  12.714 -0.1239 -0.0348 -0.2631
17126W        W33020   7.766   9.893  13.633  0.2912  0.0320 -0.0549
17127W        W33021  15.340   6.071  17.124  0.1591 -0.1650 -0.1746
17128W        W33022   5.387  13.661   2.661  0.0599 -0.2028 -0.2436
17129W        W33023   0.266  15.066   2.439  0.0146 -0.0040 -0.1613
17130W        W33024  11.873  16.895   4.014 -0.0032  0.1249 -0.1249
17131W        W33025   5.985   0.559  12.453 -0.1239 -0.0587  0.1476
17132W        W33026  16.280   0.162   2.345  0.0221 -0.0421  0.1364
17133W        W33027   0.434  12.303   0.102  0.2376  0.4727 -0.0586
17134W        W33028   5.355   4.379   0.390  0.3352 -0.2732  0.0883
17135W        W33029   2.609   6.225  15.942 -0.2818  0.1796  0.1244
17136W        W33030  16.391  11.741  12.544 -0.0345  0.0455  0.1442
17137W        W33031   4.918   6.521   3.253  0.2815 -0.0102  0.0432
17138W        W33032  15.971  11.936   2.062  0.0244 -0.1681 -0.0791
17139W        W33033   8.287   0.820  13.558 -0.0418 -0.1671  0.0293
17140W        W33034  16.118   7.061   2.875 -0.0520 -0.0944  0.0004
17141W        W33035  13.742  14.122  15.841 -0.2930  0.1624 -0.2242
17142W        W33036   7.491  12.752  12.492  0.0090  0.1343  0.0230
17143W        W33037   3.261   4.031   3.570  0.2532 -0.1219  0.1908
17144W        W33038   1.531  11.348  12.858  0.0565 -0.0411 -0.0630
17145W        W33039   1.916  16.023   3.603  0.0998 -0.2992  0.2020
17146W        W33040  13.982  15.549  14.373 -0.0604  0.0753  0.3196
17147W        W33041   2.625   4.328  16.747 -0.0938  0.0313  0.0725
17148W        W33042  13.057  16.943  13.917 -0.1111 -0.1790  0.0098
17149W        W33043   9.707   4.576   3.692 -0.0889  0.1708 -0.1626
17150W        W33044   8.884   9.072  12.122  0.2723 -0.0827  0.2757
17151W        W33045   0.535   4.488  13.508 -0.0789 -0.1521 -0.0071
17152W        W33046  17.177  11.255   5.042 -0.1454  0.3625  0.1889
17153W        W33047   8.065  13.828  15.690 -0.0030 -0.1313 -0.0101
17154W        W33048   0.051  12.012   3.218 -0.1143  0.2290  0.0186
17155W        W33049  12.008  15.610  15.671 -0.0938  0.2193 -0.1240
17156W        W33050   9.705  13.331  15.429  0.0638 -0.2327  0.2331
17157W        W33051   6.609  11.439  14.592 -0.2955  0.0722 -0.1951
17158W        W33052  13.348   0.385   5.122 -0.0027 -0.1473 -0.5179
17159W        W33053   7.005  15.960   0.873 -0.0270  0.3670  0.0685
17160W        W33054   4.114   0.645   5.969  0.1314 -0.0410 -0.2347
17161W        W33055   5.319  12.330   5.781  0.2817  0.1003 -0.0254
17162W        W33056  10.366  15.285   1.609 -0.0294 -0.1408  0.0318
17163W        W33057   4.851   7.350  12.388  0.1643 -0.0331 -0.0925
17164W        W33058   8.968  11.049   3.128  0.2562  0.3127  0.0899
17165W        W33059   6.740  15.526   3.709  0.1377 -0.0673 -0.2137
17166W        W33060  17.094   4.778   1.874  0.2468  0.2196 -0.0711
17167W        W33061   2.139   9.268   2.212  0.0037 -0.0670 -0.1528
17168W        W33062   1.454  16.824  13.135 -0.1656 -0.0432 -0.0459
17169W        W33063  16.945  10.659  11.290  0.0864 -0.1302  0.1239
17170W        W33064   5.592   5.964   5.488  0.1915 -0.5234 -0.2905
17171W        W33065  13.471   7.389   1.308 -0.0119 -0.0149 -0.2668
17172W        W33066   4.367   1.842   1.612 -0.1781  0.0557 -0.1477
17173W        W33067  16.187   4.779  15.001  0.0438 -0.2417 -0.1184
17174W        W33068  12.050  10.711   3.445 -0.0532 -0.0665  0.1503
17175W        W33069   9.020   3.921   5.193 -0.0685  0.1733  0.0258
17176W        W33070   4.003  11.280  16.901 -0.0119 -0.1650  0.0403
17177W        W33071   3.663  11.124  14.995  0.2504 -0.4339  0.3421
17178W        W33072   6.592  16.170   2.099  0.0960  0.0163 -0.0780
17179W        W33073  14.774  17.069  14.606 -0.0647 -0.1619  0.0172
17180W        W33074   4.869  15.024  11.830  0.1507 -0.1169  0.3841
17181W        W33075  11.304   3.255   3.355 -0.1712  0.0531  0.2476
17182W        W33076   0.652   6.914   2.840 -0.2644 -0.1963  0.1863
17183W        W33077   7.420   5.844   1.563  0.1633  0.0466  0.0022
17184W        W33078   2.348   9.612  11.828 -0.0721 -0.0430  0.1358
17185W        W33079   1.735  17.337  16.060 -0.0338 -0.0750 -0.2848
17186W        W33080  14.164  16.628  11.892 -0.3787  0.0696 -0.0550
17187W        W33081  10.747   0.308   5.236 -0.1716  0.3157 -0.0646
17188W        W33082   0.314   3.680  16.748 -0.0213  0.2120  0.4294
17189W        W33083   1.041   7.492  16.775  0.3406  0.0472  0.0901
17190W        W33084  17.220  16.712  13.768 -0.1257 -0.1283  0.2133
17191W        W33085   9.456   8.771  12.172  0.2008  0.2519  0.1052
17192W        W33086  14.596   2.640   6.750  0.0945  0.1173 -0.2082
17193W        W33087   1.248   9.215  14.150  0.0240  0.0235 -0.1116
17194W        W33088  11.300   1.338  17.201 -0.1785  0.2654  0.2687
17195W        W33089  17.353  12.273   4.404 -0.1292 -0.2592 -0.0493
17196W        W33090  17.185  15.760   2.903 -0.0566  0.0083 -0.0878
17197W        W33091  13.067   5.056   1.249  0.2240  0.2559  0.0438
17198W        W33092   7.303  15.769   3.137 -0.0463 -0.0546  0.1902
17199W        W33093   4.905   9.057  13.676 -0.0686 -0.1317  0.2501
17200W        W33094   1.394  16.957   1.160 -0.1041 -0.2599 -0.0214
17201W        W33095  12.336   0.989  14.705 -0.1049  0.1496  0.2673
17202W        W33096   5.142   0.221   3.836  0.0214  0.1998  0.3394
17203W        W33097  15.077   4.044   3.084 -0.2672 -0.3082  0.0660
17204W        W33098   2.426  10.163  16.249 -0.0721 -0.0938  0.0191
17205W        W33099   8.266   5.618  16.095 -0.0426  0.0309  0.1063
17206W        W33100  14.183   8.137  15.983  0.0507 -0.2039  0.0758
17207W        W33101   5.289   0.892   4.126 -0.1397  0.0446 -0.0959
17208W        W33102  13.911  13.283   2.137 -0.2215 -0.2850 -0.1418
17209W        W33103  14.813   9.430   0.621 -0.0836 -0.0395 -0.1515
17210W        W33104  17.281  17.143   3.462  0.1026 -0.0251  0.0286
17211W        W33105  10.588   2.658   2.201  0.2016  0.2480 -0.3308
17212W        W33106  14.705  15.142  15.315  0.2263 -0.1158 -0.1270
17213W        W33107  11.751   5.935  15.825 -0.1359 -0.1469  0.3119
17214W        W33108   2.848  11.370   2.127 -0.0154 -0.0799 -0.1888
17215W        W33109  13.992  12.354  15.219 -0.0112 -0.0210  0.2255
17216W        W33110  10.266  15.252   3.999 -0.0777 -0.4925  0.1676
17217W        W33111  15.716   3.427  16.200  0.1003 -0.1035  0.0216
17218W        W33112   0.920   2.570  12.692  0.3615  0.0712 -0.0946
17219W        W33113   1.003  12.027   5.783  0.0660  0.1908  0.0685
17220W        W33114   3.463   3.648  15.456 -0.0083 -0.1346  0.0657
17221W        W33115  13.082   8.307  14.281 -0.2945 -0.1301 -0.0331
17222W        W33116  11.265  15.246   0.311  0.0515 -0.0370 -0.0096
17223W        W33117  15.903  12.913   3.016 -0.1107  0.0774 -0.1528
17224W        W33118   4.355  17.051  17.093  0.0899  0.2904  0.1398
17225W        W33119   7.407   0.053   4.028 -0.0246 -0.0679 -0.2316
17226W        W33120   8.505  14.306  17.293  0.0347 -0.0116  0.0424
17227W        W33121   1.841   9.480   4.202 -0.0529  0.2439  0.0765
17228W        W33122   5.309  14.832  16.952  0.0337 -0.1463  0.3347
17229W        W33123  14.032   7.954  15.554  0.1750  0.0659  0.1683
17230W        W33124  10.748  10.551  16.605  0.2400 -0.1773 -0.3032
17231W        W33125   7.997   3.715  15.890 -0.4176  0.1422 -0.0578
17232W        W33126   0.743   4.438   3.424  0.3258  0.0158 -0.0669
17233W        W33127   3.077   1.204  14.564  0.0371  0.2417 -0.0142
17234W        W33128   4.692  17.037  15.043  0.1299 -0.0150  0.2263
17235W        W33129   8.875  13.542   4.609  0.1426  0.0294 -0.0697
17236W        W33130  12.742  15.901   0.382 -0.0706  0.1845 -0.0573
17237W        W33131   4.074   4.002  12.779 -0.0460  0.2250  0.0729
17238W        W33132  11.127   4.670  11.974  0.0908 -0.1179  0.3140
17239W        W33133   2.073  13.156  16.911  0.0394  0.1624  0.0922
17240W        W33134   8.542  11.790  14.784 -0.3217 -0.0786 -0.1212
17241W        W33135  15.606   1.898   0.923 -0.2364  0.2070 -0.1179
17242W        W33136   9.282  16.263  15.898 -0.0102 -0.0758 -0.2883
17243W        W33137  11.664  14.956   5.608  0.0109  0.1120 -0.1146
17244W        W33138   5.662  15.787   3.909 -0.3191 -0.0625  0.0706
17245W        W33139   8.416   7.002   2.923 -0.0470 -0.2077  0.1465
17246W        W33140   3.115   4.668  13.497 -0.0840 -0.3238 -0.2047
17247W        W33141  14.405   8.950  16.738  0.4092 -0.0467  0.0482
17248W        W33142   6.553   2.916   2.805 -0.2085  0.3232  0.2778
17249W        W33143  10.535  13.763   1.231 -0.1867 -0.0500 -0.1046
17250W        W33144   2.478  13.644  16.067 -0.2385 -0.4179  0.0340
17251W        W33145   1.401  15.002   4.456 -0.1339  0.1792  0.2202
17252W        W33146   8.301  14.990  12.187  0.2230  0.1112  0.1319
17253W        W33147  12.391   1.406  13.279  0.1187  0.1817 -0.0701
17254W        W33148   6.111  10.800   1.220  0.2624 -0.1591  0.0369
17255W        W33149   5.293   0.601  12.983 -0.0758 -0.0414  0.1757
17256W        W33150   0.211   3.994  12.899  0.0326  0.2676  0.0102
17257W        W33151  12.757   8.140   2.281 -0.3725  0.1486  0.0367
17258W        W33152   9.598   8.235  16.938  0.0993 -0.0958  0.1899
17259W        W33153  15.778  10.125  12.330 -0.0224  0.0731 -0.2218
17260W        W33154  14.668   4.898   6.339 -0.2096 -0.0344  0.0345
17261W        W33155  12.516  13.468   0.850  0.2048 -0.2778  0.3785
17262W        W33156  12.169   8.589   5.790  0.1007 -0.1177  0.0050
17263W        W33157  14.182  11.728  12.392 -0.0675  0.0695 -0.1445
17264W        W33158   2.387   3.801   0.534 -0.3733  0.0478  0.1026
17265W        W33159   5.446   9.998   0.761  0.0421  0.0748 -0.0640
17266W        W33160  11.284  17.383   6.714 -0.0986  0.0979 -0.2069
17267W        W33161   7.215   5.114  12.280 -0.0974 -0.4076 -0.0146
17268W        W33162  11.262   4.830   6.160 -0.0233 -0.0200  0.0806
17269W        W33163  12.069   4.345  15.683 -0.1192  0.0135 -0.2965
17270W        W33164   0.944   8.207  16.078 -0.1473  0.1142  0.2599
17271W        W33165   3.904   0.865   1.974  0.0237  0.3718  0.0942
17272W        W33166  11.090   3.336   2.880 -0.0812 -0.0874  0.1240
17273W        W33167   1.951  10.826  12.219  0.0910  0.2734 -0.0744
17274W        W33168   8.059   0.991   3.086 -0.0481 -0.1624  0.0097
17275W        W33169  15.254   2.677   0.895  0.2870  0.1539 -0.0197
17276W        W33170  14.558   5.819   0.575  0.0360 -0.1701 -0.1004
17277W        W33171  12.674   5.381  11.627 -0.0175 -0.0149 -0.0591
17278W        W33172   2.028  14.231  14.965 -0.5236 -0.0805 -0.2458
17279W        W33173   0.201  10.470   2.966  0.4458 -0.1423 -0.1337
17280W        W33174   5.987  15.599  14.458  0.1502 -0.2797 -0.0602
17281W        W33175   2.948   6.055  15.156  0.0516 -0.3321 -0.1528
17282W        W33176   9.799  13.163   4.926 -0.0369 -0.5312  0.0834
17283W        W33177   6.889  11.004   1.408 -0.0069 -0.4052  0.1265
17284W        W33178   7.598  17.281  17.119 -0.1130 -0.3236  0.0458
17285W        W33179  15.726   7.284   0.050  0.3249  0.0298 -0.1426
17286W        W33180  16.204   2.049   4.855 -0.2107  0.1415 -0.3779
17287W        W33181  15.390   8.229   5.102 -0.4647  0.1339 -0.0170
17288W        W33182   0.968   7.168   1.533  0.2075 -0.0201  0.1308
17289W        W33183   4.759  10.812  17.030 -0.0476 -0.0023  0.0794
17290W        W33184  17.539   5.131  17.046  0.1637 -0.0214  0.1421
17291W        W33185  17.010  10.207   6.522  0.1023  0.0741 -0.0982
17292W        W33186  11.780   7.779  11.431 -0.0493  0.1125  0.2188
17293W        W33187   6.730   0.896   1.553  0.1725 -0.2593  0.1445
17294W        W33188  16.563   8.570   3.060 -0.0114  0.1094 -0.2123
17295W        W33189   6.380   4.649   2.504 -0.0779 -0.2142  0.1466
17296W        W33190  16.079  12.034   2.935 -0.0248 -0.5384 -0.3407
17297W        W33191  15.304   8.593   2.839  0.1431 -0.0847  0.0367
17298W        W33192   1.172   9.407  12.845  0.0464  0.2512 -0.3652
17299W        W33193   1.539   8.607  12.914 -0.2675  0.0165  0.0007
17300W        W33194   6.019   8.763  15.942  0.2629 -0.1792  0.1938
17301W        W33195   4.867   5.378  17.163 -0.2383  0.0194  0.1948
17302W        W33196  15.169   8.079  16.137  0.1688 -0.1150 -0.0510
17303W        W33197  15.688   1.745   2.303  0.0029 -0.1655 -0.3643
17304W        W33198   6.696  15.186   2.819 -0.0353  0.4818  0.1721
17305W        W33199  13.412  13.914  12.606  0.0503  0.1046 -0.0994
17306W        W33200   4.006   5.404   0.145 -0.2420 -0.0426  0.0398
17307W        W33201   4.762  16.636  14.772 -0.0203  0.3028  0.1956
17308W        W33202   8.293   8.384  14.295  0.0531 -0.2140  0.0779
17309W        W33203  10.995  15.851   3.876  0.2174 -0.0318  0.2373
17310W        W33204   1.281  16.717   3.621 -0.1252  0.3607  0.1715
17311W        W33205  14.894  12.184   0.639 -0.0580 -0.3226 -0.0339
17312W        W33206   6.527   3.151  16.016  0.2328 -0.1948 -0.1646
17313W        W33207   7.122   8.240   4.993  0.0706 -0.0516 -0.1282
17314W        W33208   2.730  15.908  12.661 -0.5393  0.1656  0.0882
17315W        W33209   4.606   1.148  16.609  0.0035 -0.0939  0.0420
17316W        W33210   1.812   2.962   4.902 -0.2944  0.0987  0.1335
17317W        W33211  11.097   7.499  16.732  0.0525  0.2861 -0.1746
17318W        W33212   0.261   8.082   4.758  0.2014 -0.1718  0.0008
17319W        W33213   9.583   7.855  11.372 -0.3545 -0.3856 -0.2792
17320W        W33214   5.505  12.758   4.282 -0.2703  0.1510  0.0553
17321W        W33215   3.612  15.338   5.748  0.0145 -0.1459 -0.1348
17322W        W33216  12.923   4.984  12.103 -0.1553 -0.1299  0.2563
17323W        W33217   9.396  10.262  16.326  0.1742  0.2328  0.0877
17324W        W33218   4.089  12.307   4.264  0.0605 -0.1284 -0.0879
17325W        W33219   5.446   5.779   4.627  0.0710 -0.0705  0.1250
17326W        W33220   0.612   8.301   0.481  0.3714 -0.1603  0.3045
17327W        W33221   5.481   1.790  16.966  0.1800 -0.1651  0.0027
17328W        W33222  14.220   6.093   5.250  0.3553  0.1097 -0.3473
17329W        W33223   9.682   3.002  12.046  0.1578 -0.1949 -0.0497
17330W        W33224  13.549  15.522  15.157 -0.2258  0.1180 -0.1930
17331W        W33225  12.367   1.588  16.069  0.1569 -0.0776  0.0119
17332W        W33226  16.457  10.041  15.955  0.1728  0.1330  0.1130
17333W        W33227  11.324   0.077  11.791 -0.0936  0.1281 -0.2473
17334W        W33228   6.040  13.326   4.780  0.1888  0.0216  0.0562
17335W        W33229   4.175   4.826  16.643  0.0611  0.1756 -0.0732
17336W        W33230  12.136  13.729   0.916  0.2159 -0.2256  0.3088
17337W        W33231   5.112   8.701  16.959  0.2130  0.0699 -0.0040
17338W        W33232  14.666   8.589  14.283 -0.0861 -0.2445  0.1934
17339W        W33233  10.864  17.315  12.095 -0.0219 -0.0084 -0.1072
17340W        W33234   0.804   9.307   6.200  0.0104  0.0084 -0.0131
17341W        W33235   4.850   0.330  12.743  0.0856 -0.1605 -0.1599
17342W        W33236   2.166  13.914   1.446 -0.1486 -0.0275 -0.1918
17343W        W33237   4.299  15.114   0.756 -0.0810  0.0031 -0.1222
17344W        W33238  10.437  12.978  15.066 -0.3135 -0.1064 -0.2317
17345W        W33239  14.755  17.061  12.458 -0.1189 -0.1943 -0.2485
17346W        W33240   2.459   1.300  16.188  0.1050  0.3270 -0.1444
17347W        W33241  11.922   2.673   1.099 -0.1369 -0.1587 -0.1796
17348W        W33242   2.900  17.475  16.719 -0.0984 -0.0980  0.0250
17349W        W33243  14.059   4.731  14.085  0.0267  0.0545 -0.1344
17350W        W33244   4.749   5.756  12.636 -0.2132 -0.1123  0.0522
17351W        W33245  15.084  14.852  12.207  0.1848  0.0432 -0.0108
17352W        W33246   7.977  14.642  15.846 -0.2057  0.1738 -0.0081
17353W        W33247  11.487  17.551   0.211  0.0643 -0.0683 -0.0399
17354W        W33248   0.296   3.018   2.414  0.0145  0.3513  0.1157
17355W        W33249   8.963   6.792  15.520 -0.2349  0.0539 -0.0154
17356W        W33250   5.444   2.236   2.550  0.0740 -0.1095 -0.0607
17357W        W33251   1.908  10.898  15.867 -0.0214  0.2557  0.1719
17358W        W33252   5.552   8.046  13.924 -0.0154  0.2955  0.1251
17359W        W33253  16.284  17.113   3.615 -0.1661 -0.0602 -0.3461
17360W        W33254   8.908  11.522   2.912  0.0673  0.0207  0.2240
17361W        W33255   9.136  10.676   4.489 -0.1806 -0.1175  0.3219
17362W        W33256   6.338  11.925   4.030  0.1161  0.2140  0.0047
17363W        W33257   3.800   7.359  15.583 -0.0187 -0.3623  0.0176
17364W        W33258   2.265  14.978   2.913  0.1365 -0.0925 -0.1097
17365W        W33259   5.530   2.773   0.945  0.1703  0.3208  0.0985
17366W        W33260   1.994   7.647  12.235  0.2365  0.0259 -0.0246
17367W        W33261   7.906   5.769   0.171  0.1356 -0.2766  0.3831
17368W        W33262  15.861  11.854   0.503  0.2409 -0.0934 -0.0369
17369W        W33263   0.262  16.953   5.694 -0.1294 -0.3856 -0.0797
17370W        W33264  15.556   6.114   6.329  0.1451  0.3572 -0.0184
17371W        W33265   6.737  10.346  14.656 -0.1596  0.0304 -0.0947
17372W        W33266  14.217  17.327  17.244 -0.0417 -0.3214  0.1505
17373W        W33267   2.207  11.942  13.742  0.1023  0.0008 -0.2477
17374W        W33268   0.854   4.740   3.845 -0.0560  0.0085  0.0382
17375W        W33269  16.784   1.595  12.720 -0.0054  0.3425  0.2107
17376W        W33270  15.328  14.925  16.345  0.0289  0.3331  0.0970
17377W        W33271   6.718   8.417  16.959  0.1196  0.0263  0.1568
17378W        W33272  12.668   8.626  14.324 -0.0834  0.1337 -0.2982
17379W        W33273   8.815  14.797  13.050  0.1994  0.0331 -0.0559
17380W        W33274  13.296   9.144   1.357 -0.1006  0.0994 -0.0910
17381W        W33275   9.419  11.679   5.642  0.0913 -0.1013  0.0076
17382W        W33276   0.970   4.848  16.962  0.0479  0.0908  0.1465
17383W        W33277   3.095   0.853   0.514  0.2246  0.0856 -0.1198
17384W        W33278   1.461   9.122  15.954 -0.1363 -0.4470  0.4704
17385W        W33279  13.006   5.946  16.900 -0.1346 -0.0677  0.1111
17386W        W33280   2.529  13.535   1.515  0.2046 -0.1137 -0.0301
17387W        W33281   9.248   7.312  12.138  0.0956 -0.0509 -0.2489
17388W        W33282  12.211  10.494  12.106  0.0316 -0.0274  0.1994
17389W        W33283   0.661   4.401  14.954  0.0105  0.3691  0.0107
17390W        W33284   6.454  12.578  13.861  0.3699 -0.1791 -0.1125
17391W        W33285  10.998   1.695   1.455  0.1101 -0.2939  0.4051
17392W        W33286  10.405  17.221   2.532 -0.1913  0.2067  0.2116
17393W        W33287   1.215   4.755   3.443  0.0467  0.0852  0.0759
17394W        W33288   8.084   1.164   1.349  0.0837 -0.2417  0.3521
17395W        W33289   0.933  10.535   1.950  0.0560 -0.0707 -0.2228
17396W        W33290   3.038   5.349   3.728  0.0115 -0.0164 -0.2258
17397W        W33291   5.483  15.364   0.595  0.0907  0.0240 -0.0292
17398W        W33292  11.910  12.819  11.838  0.0342 -0.1645 -0.0666
17399W        W33293  17.135   2.210  12.712 -0.4181  0.5470 -0.2409
17400W        W33294   8.351  12.713  16.957 -0.6585  0.4125 -0.2083
17401W        W33295   4.004   6.711   2.043  0.1702  0.2890  0.0853
17402W        W33296   8.574   0.126  15.436  0.1130 -0.0828 -0.1676
17403W        W33297   5.272  15.034   5.085 -0.0373  0.0656 -0.1882
17404W        W33298   5.977   3.222  15.120 -0.3162  0.1235  0.2297
17405W        W33299   2.253   2.156   6.336 -0.1322  0.1758 -0.1671
17406W        W33300  13.269  13.826  14.041  0.1543 -0.1120 -0.0813
17407W        W33301   6.237   1.772   4.022 -0.2067 -0.1134 -0.1720
17408W        W33302   9.790  12.423  11.220  0.2426  0.0485  0.2894
17409W        W33303  15.164  12.460  14.696  0.0345  0.0183  0.1705
17410W        W33304  11.331  12.125   5.074  0.1774  0.2073 -0.1017
17411W        W33305   3.313   5.692   1.118 -0.1759 -0.3084 -0.2047
17412W        W33306  16.882   7.660   6.254  0.2567  0.3360 -0.0412
17413W        W33307   1.251  15.170   1.537 -0.2130 -0.2886  0.2486
17414W        W33308   7.996   2.621  13.175  0.0998  0.0561 -0.2946
17415W        W33309   2.767   8.369   3.438 -0.0428 -0.2300  0.0873
17416W        W33310   5.890  14.373   4.795 -0.0591  0.0644 -0.0093
17417W        W33311  16.294  14.882  14.089 -0.0365 -0.0143  0.0325
17418W        W33312  17.361   7.271   7.038  0.1025 -0.2094 -0.0091
17419W        W33313   2.139  11.977   6.054  0.0343  0.2037 -0.0480
17420W        W33314   3.024   3.148  12.859 -0.1119 -0.2674 -0.1015
17421W        W33315  10.458   4.549  11.856 -0.2561  0.0277  0.4499
17422W        W33316   1.877   2.258  14.136  0.8347  0.2233 -0.2445
17423W        W33317  11.899  15.433  12.535  0.1155  0.2278  0.1612
17424W        W33318   2.504   4.879   3.056 -0.0489  0.0378  0.0002
17425W        W33319   8.428   5.951   5.997  0.0699  0.1842  0.0751
17426W        W33320  10.570   1.684   2.689 -0.0052 -0.2648 -0.0065
17427W        W33321   0.153  11.509  12.218  0.4177 -0.2540  0.2233
17428W        W33322   1.298   3.401  15.598 -0.2926  0.1795  0.1749
17429W        W33323   8.330  14.273  15.858  0.1595  0.2893  0.2618
17430W        W33324   3.675   1.852  16.643 -0.1151  0.1344 -0.1041
17431W        W33325   3.168   3.169   3.078 -0.0462 -0.1885  0.1090
17432W        W33326  15.249   3.553  17.094  0.1347  0.1007 -0.2321
17433W        W33327   9.189   0.325  13.287 -0.0351  0.0525 -0.0889
17434W        W33328   3.268   8.891  13.169  0.0603  0.0960  0.1663
17435W        W33329   2.132   5.390  15.520  0.2838  0.1648 -0.1706
17436W        W33330  10.154  14.853  14.075  0.1524  0.0580 -0.0642
17437W        W33331   0.951  13.823   4.791  0.0640 -0.1015  0.0781
17438W        W33332   7.782   3.841  12.673  0.3779  0.1177 -0.1194
17439W        W33333  11.250   9.167   1.040 -0.0984 -0.0818  0.0745
17440W        W33334   1.240  12.225  15.481  0.0033  0.2210  0.0257
17441W        W33335   1.276   1.422   3.085 -0.1037 -0.3284  0.1488
17442W        W33336  16.759  12.410  14.769 -0.0742  0.2874  0.0038
17443W        W33337  12.097   8.795   4.273  0.1215  0.1696  0.0249
17444W        W33338  13.811   5.044  14.946 -0.2353  0.0187 -0.0813
17445W        W33339   0.710  11.383   1.728 -0.1242 -0.0880  0.3226
17446W        W33340   2.063  12.648  15.275  0.3226 -0.1289 -0.3191
17447W        W33341   7.038   0.099   5.276  0.1052  0.3040 -0.0524
17448W        W33342   0.808   9.596  12.312  0.4675 -0.1130 -0.0563
17449W        W33343   1.613  17.636   6.424  0.0808  0.1019 -0.0182
17450W        W33344   3.431  15.374  14.750 -0.0825 -0.1545  0.0070
17451W        W33345  10.051   6.895   3.320 -0.0846  0.0514  0.3001
17452W        W33346  16.448   8.986   1.309 -0.1144  0.0304  0.0183
17453W        W33347   6.733   2.307  15.725 -0.3067  0.0993  0.0616
17454W        W33348   0.138  10.103  16.827  0.0024 -0.0645 -0.1486
17455W        W33349   3.961   5.300  14.251 -0.1295  0.0237 -0.0402
17456W        W33350  14.434  17.107   1.475 -0.2795  0.0928 -0.1174
17457W        W33351   1.397   1.343  16.469  0.1393  0.0842  0.3118
17458W        W33352  16.366   5.188  15.299  0.0822 -0.3335 -0.3839
17459W        W33353  12.633   8.152  14.984 -0.2355 -0.0919  0.0517
17460W        W33354   0.068   0.126   0.440  0.0528  0.1537  0.0539
17461W        W33355   1.138  15.141   0.337  0.2874 -0.0966 -0.0314
17462W        W33356  17.437   7.573   5.569  0.2072  0.0676 -0.1650
17463W        W33357  15.381   1.355  15.684 -0.0565  0.1357  0.1360
17464W        W33358   1.199   3.908  14.157  0.1416 -0.1378  0.1269
17465W        W33359   8.927  12.133  11.644  0.1109  0.2174 -0.1490
17466W        W33360   7.488   7.538   1.770  0.0587 -0.0814 -0.3036
17467W        W33361  11.155   6.408   0.769  0.1417  0.2558  0.0239
17468W        W33362   7.776   1.260  13.481  0.3741 -0.0589 -0.2216
17469W        W33363  13.166  10.959  15.806 -0.0670  0.0301  0.1357
17470W        W33364  14.338  12.019   0.069 -0.1472  0.0741  0.1061
17471W        W33365   7.154   5.857   0.526  0.2199  0.1093  0.1728
17472W        W33366   2.453  12.607   2.119 -0.0500 -0.2148 -0.1405
17473W        W33367  10.651   7.917  10.517 -0.3362  0.0322 -0.0983
17474W        W33368  11.606   0.490  15.080 -0.1063  0.6270  0.1402
17475W        W33369   4.821  15.116  13.375 -0.0360 -0.1047  0.2507
17476W        W33370  10.097   0.303  16.699 -0.2888 -0.5214  0.1456
17477W        W33371  16.334   8.321   6.189  0.0631  0.2220  0.3644
17478W        W33372   2.464   3.451  16.138 -0.0892  0.0362 -0.3587
17479W        W33373   2.229  10.350  12.351 -0.1610  0.0296  0.1341
17480W        W33374  12.805  15.753  13.548 -0.1581  0.0654 -0.0394
17481W        W33375   8.815   3.936  16.316  0.5059  0.3112 -0.0023
17482W        W33376   5.558   5.862   0.820  0.2286 -0.0977  0.3551
17483W        W33377  16.308  16.996   3.154  0.0915  0.0710 -0.2335
17484W        W33378   9.007   5.249   5.538 -0.0067  0.0588 -0.3524
17485W        W33379  15.479  16.451   0.129  0.1980 -0.1320  0.3386
17486W        W33380  13.971  13.741   4.393  0.0640  0.1017 -0.1643
17487W        W33381   8.201   8.569   3.763  0.3602 -0.0697  0.1437
17488W        W33382  15.067   1.029  13.514 -0.2669 -0.0974  0.2023
17489W        W33383   8.366  15.063  13.071  0.2290  0.0307 -0.2882
17490W        W33384  16.992   9.269  15.678  0.0386  0.1168  0.1092
17491W        W33385  13.593   8.607  14.321 -0.2927 -0.2677  0.0620
17492W        W33386  13.807  14.753   3.393  0.2772 -0.3175  0.1406
17493W        W33387  10.148   2.545   1.192  0.3486 -0.0545 -0.1613
17494W        W33388  13.282  16.592  12.999 -0.0419  0.0773 -0.1592
17495W        W33389   5.026   7.134  17.280 -0.2502 -0.1451 -0.0269
17496W        W33390   0.853   9.130   6.641  0.0591  0.1471 -0.0172
17497W        W33391   4.171   6.989  13.726  0.1047 -0.1816  0.3025
17498W        W33392   3.481   2.990  12.488  0.0364  0.0247 -0.2812
17499W        W33393   7.217   6.183  14.115 -0.0069  0.2876  0.0010
17500W        W33394  15.839  15.247   4.255 -0.0028 -0.0201 -0.0842
17501W        W33395  12.203   9.555   5.489 -0.2817 -0.2490  0.0944
17502W        W33396   4.230  11.197  13.273 -0.1384  0.3615  0.2552
17503W        W33397  13.068   0.967  11.921  0.0358 -0.0769  0.0934
17504W        W33398  12.462  11.942   0.175  0.0285  0.1686  0.0767
17505W        W33399  16.920   9.180  12.961  0.0809 -0.0229 -0.0479
17506W        W33400   0.925   5.539   4.132 -0.0219 -0.0170 -0.0339
17507W        W33401  13.896  12.154  14.736 -0.1528 -0.1264  0.1194
17508W        W33402  14.777   5.405   0.140  0.0003  0.1293  0.0553
17509W        W33403   4.846   7.045   1.981  0.0043 -0.4018 -0.2399
17510W        W33404   7.207   2.141   5.370 -0.2090 -0.1535  0.0234
17511W        W33405  16.060   3.127   3.843 -0.3032  0.1740  0.0067
17512W        W33406   7.085  12.621  12.831  0.0037 -0.0822  0.0830
17513W        W33407   1.224  16.567   2.534 -0.1492 -0.2551  0.0038
17514W        W33408  16.600  12.281   2.869  0.3925 -0.1333  0.3277
17515W        W33409   4.270  15.246  14.223  0.0442  0.1291  0.2856
17516W        W33410  15.456   9.626  14.692 -0.4687  0.0289  0.2142
17517W        W33411  12.887   5.258   4.992  0.2595  0.1021  0.0858
17518W        W33412  15.142  12.818   4.424  0.2166 -0.0286  0.0697
17519W        W33413  10.704  15.203  14.020 -0.1675 -0.1589 -0.1411
17520W        W33414   1.310   3.687   2.778 -0.2091  0.1256 -0.0704
17521W        W33415   1.670   3.193   0.479 -0.0372 -0.2020  0.2259
17522W        W33416   8.126  11.729   1.525  0.0047  0.4793 -0.1347
17523W        W33417   5.384   9.708   5.797  0.0242  0.1967 -0.4177
17524W        W33418  13.176   6.192  13.675 -0.1752 -0.1044  0.2383
17525W        W33419  10.017  10.756  16.608 -0.0056 -0.1941 -0.2295
17526W        W33420   3.377  13.265  13.570  0.1093  0.2011  0.0934
17527W        W33421  15.505  14.174  12.866 -0.1481 -0.2073  0.1041
17528W        W33422   2.847   6.836  13.447  0.1081  0.0792  0.1731
17529W        W33423   5.065   8.645  13.292 -0.0228  0.4242 -0.1574
17530W        W33424   5.980   4.010   3.578  0.1102  0.2369  0.0507
17531W        W33425  12.415   8.747  11.242  0.2872  0.0177  0.0200
17532W        W33426  16.379  14.187   6.556 -0.1310 -0.0734  0.2399
17533W        W33427   5.689  13.206  13.637 -0.0698  0.0492 -0.0115
17534W        W33428   1.294   3.776  16.017  0.1048  0.0397 -0.0097
17535W        W33429  14.404   4.128  12.477  0.0338  0.0083  0.0313
17536W        W33430  17.487  11.966   1.491 -0.2620 -0.0071  0.0476
17537W        W33431  12.040   7.062  15.354 -0.1012  0.2618  0.0955
17538W        W33432   2.045   7.058  12.014  0.2246 -0.0043 -0.2583
17539W        W33433  14.941  16.504   4.327 -0.2686 -0.0576 -0.2980
17540W        W33434  16.078  13.417  16.325  0.0425 -0.0209 -0.0673
17541W        W33435  16.750   0.373  13.590 -0.1796  0.3936 -0.0003
17542W        W33436  14.466   1.132   2.013 -0.4844  0.0232 -0.2252
17543W        W33437   7.939  13.690  17.073  0.2547 -0.3356 -0.0908
17544W        W33438   2.255  15.716   0.199 -0.2936 -0.0272  0.2842
17545W        W33439  14.660  12.757  17.039 -0.1626 -0.0439  0.1243
17546W        W33440  14.757  12.114  14.790 -0.0995  0.0111  0.0377
17547W        W33441  13.542   6.191  12.720 -0.0628  0.0680  0.2138
17548W        W33442  15.929   4.452  10.975 -0.1220  0.1953 -0.2010
17549W        W33443   7.504   8.202  16.683 -0.0793 -0.1194 -0.1219
17550W        W33444   3.314   2.959  11.986 -0.0044 -0.1225 -0.3161
17551W        W33445  12.259  16.502  17.240 -0.2200  0.0037  0.1053
17552W        W33446   8.198  16.521  13.201 -0.4206  0.1427 -0.1347
17553W        W33447   7.379   3.951   5.327  0.2071  0.2517 -0.0503
17554W        W33448  14.964  13.749  12.692  0.1640 -0.0434  0.0309
17555W        W33449   5.611  15.374  12.996  0.1975 -0.0707  0.2000
17556W        W33450  10.965   9.270  15.173 -0.1431 -0.1046 -0.1341
17557W        W33451  16.393   3.277  15.023 -0.2024  0.3058  0.2209
17558W        W33452  13.305   0.437  10.687 -0.0554 -0.0699  0.2070
17559W        W33453   7.105   0.148   3.514  0.0822  0.0793 -0.0942
17560W        W33454   3.406  15.013  15.151  0.0324 -0.2025 -0.0812
17561W        W33455   9.331   0.242   5.705 -0.0699  0.1284 -0.1013
17562W        W33456  13.304   1.740   4.629 -0.2150  0.0070  0.0404
17563W        W33457   5.944   2.369   0.116 -0.0727  0.1354 -0.0757
17564W        W33458   5.062   6.969   1.516 -0.0015 -0.0149 -0.0644
17565W        W33459  14.946  11.260   3.548 -0.0399 -0.0985  0.0768
17566W        W33460  15.800   0.005   2.428  0.0177  0.2834 -0.3750
17567W        W33461  13.884   9.670   5.378  0.0631  0.1917 -0.1192
17568W        W33462  14.533  16.246  15.924 -0.0660  0.0476  0.0433
17569W        W33463   3.873  15.753   5.707  0.0150  0.0138  0.0237
17570W        W33464   7.969   9.363   5.660 -0.0624 -0.0361 -0.1114
17571W        W33465   1.422  12.041  16.000 -0.2557  0.0045  0.0408
17572W        W33466  13.076   9.449  13.166 -0.1435 -0.0620 -0.0508
17573W        W33467  10.235   0.781   2.248 -0.1900 -0.0721  0.0473
17574W        W33468   7.709  13.333   4.330  0.2497 -0.0014  0.2435
17575W        W33469  13.439   2.644  15.257 -0.2628  0.0469  0.0855
17576W        W33470   3.987   1.023   3.878 -0.2202  0.2467  0.1513
17577W        W33471   8.441   4.747  11.800  0.1953  0.3424 -0.2439
17578W        W33472   4.038   1.181   0.405  0.1842 -0.0119 -0.1899
17579W        W33473  10.571   2.211   5.714  0.0914 -0.2975  0.1061
17580W        W33474   0.609  13.344  14.092  0.0463  0.6473 -0.1057
17581W        W33475  13.802   8.301  12.450 -0.0809 -0.2093 -0.0169
17582W        W33476  14.169  12.791   0.237  0.1962 -0.3334 -0.0019
17583W        W33477  16.435   2.887  13.678 -0.2186 -0.0082 -0.3640
17584W        W33478  10.291  16.384   2.034 -0.0534 -0.0131 -0.2729
17585W        W33479   6.719   3.089  13.549  0.2756  0.1628  0.2060
17586W        W33480  13.727   6.231  13.506  0.1408  0.0214  0.0759
17587W        W33481   8.548   1.057   2.457  0.0869  0.0237  0.2418
17588W        W33482  15.033  12.062   2.177 -0.0944  0.2397  0.0792
17589W        W33483   1.982  13.472   4.000 -0.0255  0.2502  0.2472
17590W        W33484   1.596   6.917   6.268 -0.0151 -0.2163  0.1463
17591W        W33485   0.891   6.498   5.388  0.1992  0.1390  0.3238
17592W        W33486  10.210   5.270  12.394  0.1091 -0.2997 -0.0860
17593W        W33487  13.753   4.847   3.912  0.3534  0.0422 -0.0399
17594W        W33488  12.902   1.562  14.850 -0.0259  0.1724 -0.1199
17595W        W33489   7.146   7.051   1.942 -0.0908 -0.0563 -0.2939
17596W        W33490  15.621  12.436  17.030 -0.0796 -0.2624 -0.1077
17597W        W33491   8.382   8.207  12.734  0.4311 -0.0424  0.0084
17598W        W33492   3.758   2.528  14.825 -0.1780 -0.0917  0.0628
17599W        W33493   0.867   3.682  15.577 -0.0296 -0.2483  0.1783
17600W        W33494  16.153   8.660   4.858  0.1221  0.0931  0.1022
17601W        W33495  14.894  14.986  17.252  0.2018 -0.0844  0.0630
17602W        W33496  11.830  13.075  12.797  0.3390 -0.2882 -0.1641
17603W        W33497   7.904  11.551   0.069 -0.0705  0.0802  0.3146
17604W        W33498   4.732   5.316   4.869 -0.3135 -0.3347 -0.0349
17605W        W33499  15.621  11.404   6.725 -0.3772  0.1076  0.3758
17606W        W33500  17.537  14.239   2.180  0.3912 -0.1042 -0.0289
17607W        W33501   6.075   9.633  15.712 -0.2885  0.1247 -0.1095
17608W        W33502   9.984   4.712  11.698  0.0788  0.0557 -0.3706
17609W        W33503  11.047   6.326  15.569  0.0243 -0.0827 -0.1137
17610W        W33504   2.439  17.074   1.337  0.0422  0.2479 -0.2048
17611W        W33505   1.722  17.106  14.616  0.0974  0.2723 -0.1061
17612W        W33506   7.544   2.738   3.716  0.0562 -0.0734 -0.1288
17613W        W33507   0.776   2.846   2.588 -0.1418  0.1265  0.1326
17614W        W33508  16.073   4.509   2.649 -0.1422  0.0952  0.2328
17615W        W33509   3.113  14.084   3.912 -0.1956 -0.1083  0.1773
17616W        W33510   2.629  17.393   6.729  0.0723 -0.0364  0.0424
17617W        W33511   8.023  15.087   3.642 -0.0814  0.2260  0.0179
17618W        W33512   7.002  13.516  13.099  0.0826  0.0691 -0.1411
17619W        W33513   2.955   0.434   5.898  0.0282  0.1183 -0.0347
17620W        W33514  12.283   9.325   4.525  0.3384 -0.0123 -0.0155
17621W        W33515   9.882   4.977   4.043  0.1054 -0.3282  0.0180
17622W        W33516   3.532   3.348  17.194  0.0379  0.0525 -0.0834
17623W        W33517  14.207   9.511  16.814 -0.1766 -0.0528 -0.2423
17624W        W33518   2.219  12.492   4.567  0.0464 -0.2082 -0.1200
17625W        W33519  10.134  11.107   1.546 -0.1647  0.0166 -0.0251
17626W        W33520   6.380  15.683  13.591 -0.1255 -0.0330 -0.0749
17627W        W33521   0.766   1.964  14.423  0.0730  0.0572  0.0517
17628W        W33522   6.174   2.049   1.996 -0.1994  0.1979  0.2562
17629W        W33523  17.187   9.225   3.937 -0.0697  0.1188  0.0626
17630W        W33524  12.631  16.706   3.343  0.3095 -0.0901 -0.0074
17631W        W33525   7.131   2.217  11.998  0.0557 -0.1409 -0.1408
17632W        W33526   2.513   3.537   6.541  0.0336  0.3024 -0.3764
17633W        W33527  10.618  11.113   0.075 -0.0879  0.1252 -0.3300
17634W        W33528   5.626   3.362  14.015 -0.1409 -0.1888  0.0605
17635W        W33529  11.946  13.455   4.881  0.0026  0.1664  0.0186
17636W        W33530  14.194   0.158  14.323 -0.0953  0.3102  0.0153
17637W        W33531  14.402   0.916  11.813 -0.1912  0.1508 -0.1720
17638W        W33532   7.708  16.500   5.051 -0.0644  0.3856 -0.0980
17639W        W33533   4.714   6.496  12.089  0.2155 -0.0484 -0.1814
17640W        W33534   2.904   0.930  11.826 -0.0112 -0.1338  0.0632
17641W        W33535  15.369   5.772   4.384 -0.2883  0.2528  0.0000
17642W        W33536  15.948   4.917  15.393 -0.0659 -0.0594  0.1630
17643W        W33537  14.787  10.774  16.066  0.1118  0.4349 -0.0334
17644W        W33538  11.661  13.314  16.057  0.0916  0.4391 -0.1260
17645W        W33539   0.682   6.787  14.228  0.0324 -0.1592 -0.1258
17646W        W33540   8.510  17.380  14.150 -0.3535 -0.2817 -0.2632
17647W        W33541  17.413  10.190   2.588 -0.2290 -0.0663 -0.2959
17648W        W33542   1.440   6.339  16.221 -0.1669 -0.1231 -0.0883
17649W        W33543   8.697   6.455  11.726  0.0601  0.3110 -0.0974
17650W        W33544   0.487   8.421   3.725  0.0385 -0.0830  0.2787
17651W        W33545  15.068  17.178  14.188  0.2631  0.2019 -0.0348
17652W        W33546   8.790  16.959   0.006  0.1572 -0.1791  0.2355
17653W        W33547  16.242   9.439   1.126  0.0088  0.0940 -0.0726
17654W        W33548   8.581   2.082  15.213  0.2066  0.0212  0.0186
17655W        W33549  13.550   6.774  15.679  0.4031 -0.0539  0.3412
17656W        W33550  12.048  13.137  13.844 -0.0528 -0.0684 -0.1895
17657W        W33551  13.957   0.410  12.532 -0.1881  0.1296 -0.1844
17658W        W33552   8.282  12.419   0.774 -0.0651  0.0110 -0.1169
17659W        W33553  13.024  11.106   1.978  0.2061 -0.0095  0.0424
17660W        W33554   7.591   3.085   3.016 -0.0050 -0.0513  0.1302
17661W        W33555   0.409  15.346   2.856 -0.0239 -0.0010  0.1669
17662W        W33556   3.340  11.404   2.949 -0.1584 -0.0419  0.3147
17663W        W33557  10.355  14.158  12.283 -0.1295  0.2152 -0.0935
17664W        W33558   5.399   5.348  13.940  0.1869 -0.1349  0.2992
17665W        W33559   8.277  11.370  15.013  0.2225 -0.1567  0.0261
17666W        W33560  12.588  10.895   2.012 -0.0099  0.0959  0.0781
17667W        W33561   6.502   0.436  13.967  0.0106 -0.4060 -0.0704
17668W        W33562  11.788   8.755   1.619  0.0823  0.1282 -0.1638
17669W        W33563   6.469   1.761   2.600 -0.1581  0.3340 -0.1715
17670W        W33564   1.094   6.975   5.410  0.0901 -0.0751 -0.2663
17671W        W33565   8.107   8.488  17.069 -0.0198 -0.3783 -0.0244
17672W        W33566  17.628  14.560  13.447  0.2068 -0.2169 -0.1951
17673W        W33567  17.386   6.794  15.205  0.0679  0.0212  0.1549
17674W        W33568  11.712   9.840  17.261  0.0391  0.0585  0.4516
17675W        W33569   2.597   8.102   4.011 -0.0288 -0.0431  0.0814
17676W        W33570   9.382  14.138  15.214 -0.0064  0.1009  0.2028
17677W        W33571   8.884   1.387  16.946  0.1893 -0.1227 -0.0461
17678W        W33572  16.641  15.771   4.623  0.1774  0.1416  0.3910
17679W        W33573   6.605  17.160  12.106  0.0168 -0.1268 -0.0712
17680W        W33574  13.213   5.643  11.628 -0.0167 -0.0984  0.1549
17681W        W33575   6.025  11.843   0.853 -0.1047  0.2279 -0.1403
17682W        W33576   4.332  10.149  14.123 -0.1852 -0.0683 -0.2472
17683W        W33577  10.422  17.552  15.168  0.1070  0.0633  0.0167
17684W        W33578  15.113   2.803  13.533  0.1836  0.1496  0.0738
17685W        W33579  13.837   5.076   4.975  0.0816  0.1492  0.0542
17686W        W33580  12.078   8.372   3.822 -0.2310  0.1004  0.1314
17687W        W33581   6.452   1.303   4.501  0.2494 -0.4276 -0.1374
17688W        W33582   1.777   3.630   2.898 -0.0451 -0.1180 -0.2749
17689W        W33583   5.356  16.844   5.320 -0.1054 -0.0418 -0.1570
17690W        W33584   9.298   4.572  13.912  0.1675  0.1390 -0.1449
17691W        W33585  12.093  11.499   5.358 -0.3104 -0.0286 -0.3332
17692W        W33586  13.466  14.655  13.198 -0.2430  0.2503  0.0063
17693W        W33587  10.696   1.231  12.120  0.0656 -0.0471 -0.2005
17694W        W33588   5.889  12.340   0.811  0.0188 -0.1314  0.2471
17695W        W33589   3.490  14.157   4.730  0.2313  0.2338  0.0023
17696W        W33590  15.470   0.432   0.522 -0.2068  0.0042 -0.2215
17697W        W33591   2.700   8.092  12.101  0.1761  0.0141  0.1359
17698W        W33592   1.206   3.335  14.227 -0.1155 -0.0634 -0.1421
17699W        W33593  14.980   6.301  14.610  0.2220  0.1367 -0.2574
17700W        W33594  13.228  15.345  12.653  0.0343  0.1680  0.1896
17701W        W33595  16.558   5.335  16.585  0.1957  0.0190 -0.2371
17702W        W33596  16.761  17.204   3.931  0.2204  0.0940 -0.2857
17703W        W33597   5.431   3.793   4.685 -0.3253 -0.1901  0.0266
17704W        W33598  16.415  14.526   6.156  0.2097 -0.3554 -0.0784
17705W        W33599   5.109   9.732   3.121 -0.0258  0.2154 -0.0780
17706W        W33600  15.578  13.709   0.383 -0.0579 -0.1070 -0.1102
17707W        W33601  16.501  17.250   2.755  0.0695 -0.0581  0.2373
17708W        W33602   3.005  15.518   1.806 -0.1694  0.0775 -0.3354
17709W        W33603  12.044  16.836   2.539 -0.1042 -0.2442  0.0620
17710W        W33604  11.089  10.673   2.604 -0.0110 -0.1168 -0.2447
17711W        W33605   9.656  16.151   2.254 -0.1495 -0.3308  0.1967
17712W        W33606   8.875   7.476   0.169  0.2990  0.2197  0.1631
17713W        W33607  10.322   2.673  16.622 -0.1858 -0.1189 -0.2537
17714W        W33608  16.527   3.513   5.575 -0.0728 -0.3734  0.2512
17715W        W33609   8.852   3.643   4.677 -0.1191  0.0983 -0.2388
17716W        W33610   5.896   5.414  16.478  0.5575  0.1346  0.0977
17717W        W33611  12.377   2.574   0.599  0.0794  0.4030 -0.0541
17718W        W33612   0.327   7.575   5.955 -0.1035  0.2179 -0.1030
17719W        W33613   7.733  11.977   1.306 -0.2342 -0.0823 -0.0635
17720W        W33614  15.506  10.738   1.071  0.0578 -0.2237  0.1095
17721W        W33615  16.186   8.998   0.192 -0.0760 -0.0924 -0.1793
17722W        W33616   5.354  17.472  12.287  0.0561  0.0593 -0.1541
17723W        W33617   7.326   9.245   3.817  0.0466 -0.1703 -0.3696
17724W        W33618   5.987   6.083  14.989 -0.1500 -0.1349  0.2335
17725W        W33619   3.783  13.252   3.609 -0.1524  0.0908 -0.3677
17726W        W33620   7.937   7.153  15.621 -0.3624  0.2297  0.0128
17727W        W33621   3.185   8.811   0.054  0.1539  0.0187 -0.0576
17728W        W33622  15.380  16.758  14.304  0.1167 -0.3841 -0.0946
17729W        W33623  13.091   5.936  12.020 -0.1398  0.2171  0.2252
17730W        W33624  16.778   8.279   0.601  0.2070 -0.0660 -0.0419
17731W        W33625  15.162  16.327  16.980 -0.1250 -0.4400 -0.0577
17732W        W33626   7.442  12.598  13.207 -0.0675  0.2931  0.2094
17733W        W33627   5.107   6.524   1.771  0.3897 -0.0887 -0.0471
17734W        W33628   1.606   8.228   2.753 -0.1005 -0.0277 -0.1929
17735W        W33629  13.630  15.462   0.344  0.3846  0.2701 -0.0903
17736W        W33630  12.456   0.852   0.095 -0.1598 -0.1010 -0.1035
17737W        W33631   1.935   4.422   5.355 -0.0805  0.4535  0.1335
17738W        W33632  15.582   0.232   3.523  0.1073  0.0822  0.3063
17739W        W33633  17.003  14.973   0.557  0.2183 -0.1133  0.1554
17740W        W33634   1.173   8.060  14.220 -0.3366  0.3376  0.0554
17741W        W33635  13.934   9.457   3.859  0.0811  0.0027  0.0211
17742W        W33636   3.106   3.115  15.307 -0.0575  0.1061  0.0644
17743W        W33637  11.488  15.682  17.023 -0.3071  0.0872  0.1800
17744W        W33638   0.023   3.929   0.105  0.1866  0.1007  0.0316
17745W        W33639   3.334   6.177   0.973 -0.1100  0.1686  0.2067
17746W        W33640   9.112  11.719  12.896  0.2835  0.0271 -0.0953
17747W        W33641   8.232   3.222   1.606 -0.2721  0.1606  0.0545
17748W        W33642  11.681  13.795   2.079  0.0592 -0.2136 -0.0973
17749W        W33643   0.143  17.094  12.830 -0.0324 -0.1822 -0.1139
17750W        W33644   3.717  11.678   2.503 -0.0290  0.2915  0.2991
17751W        W33645  14.709   6.815   3.367  0.0911  0.3026 -0.2207
17752W        W33646   1.312   9.860   4.262 -0.0300 -0.0560  0.1545
17753W        W33647   4.203  16.075   5.441  0.4148  0.0807  0.0380
17754W        W33648  17.402   1.833  13.325 -0.2026 -0.1753 -0.1850
17755W        W33649  16.722  11.290  14.714  0.3182 -0.3744  0.2828
17756W        W33650  14.845   7.765   0.765  0.1106 -0.2192  0.1490
17757W        W33651   3.408  14.181  14.007  0.0853 -0.0079 -0.1602
17758W        W33652   7.710   3.886  13.142 -0.2515  0.1274 -0.3278
17759W        W33653   0.536  10.049  12.422  0.3844 -0.1691  0.0052
17760W        W33654  11.917   1.917  16.848 -0.2889  0.1460  0.0905
17761W        W33655  12.525  17.635  14.293 -0.0938 -0.1624 -0.2647
17762W        W33656  17.136   4.473   3.323 -0.4281 -0.3850 -0.0205
17763W        W33657  16.670   5.879   0.943  0.0971 -0.0794  0.1815
17764W        W33658   2.083   5.342   4.341  0.3904 -0.1581 -0.1015
17765W        W33659   4.728  13.524  12.736 -0.2450 -0.0572  0.1169
17766W        W33660   8.580  16.661   2.883  0.1339  0.1248 -0.1611
17767W        W33661   5.348  10.818  13.725 -0.0658  0.1816 -0.0455
17768W        W33662   7.135   4.206  12.705 -0.0205  0.0999 -0.1810
17769W        W33663  17.311   6.272  14.973 -0.1731 -0.0001  0.1676
17770W        W33664  13.786   1.984  13.276  0.3630  0.0794 -0.2179
17771W        W33665   5.577   6.246   4.396 -0.1595 -0.3712  0.1614
17772W        W33666  13.842  14.066   0.324 -0.2760 -0.0169 -0.1224
17773W        W33667  11.274  16.628   2.242  0.2862  0.1777  0.1463
17774W        W33668   2.431   3.537   2.040 -0.1349 -0.1133  0.2280
17775W        W33669  12.765   1.103  14.884 -0.0677 -0.1350  0.0989
17776W        W33670   6.936  12.425   5.728  0.1191  0.0227 -0.0723
17777W        W33671  12.978   6.888   0.178  0.1744 -0.1759 -0.0447
17778W        W33672   4.376   5.084  16.302  0.0599 -0.2599 -0.0589
17779W        W33673   3.807   0.603   3.517  0.2878  0.0685 -0.1778
17780W        W33674  17.542   0.255  17.191 -0.1445  0.2140  0.3753
17781W        W33675  12.255   2.584   3.994  0.1953 -0.2188 -0.0421
17782W        W33676   5.342  11.113   1.743  0.1314  0.2494  0.1641
17783W        W33677  13.482  11.023   0.385 -0.1748  0.1983  0.1181
17784W        W33678  10.071  14.778  14.621  0.0262 -0.0244 -0.1852
17785W        W33679  15.619   9.752  14.188  0.0678  0.0630  0.0142
17786W        W33680  10.971  14.763  16.668 -0.0150 -0.0221  0.0707
17787W        W33681   1.744   9.819  15.270  0.1436 -0.3072 -0.2589
17788W        W33682   0.038   1.027  14.900  0.2804  0.3824  0.1266
17789W        W33683  12.254   4.572  13.251 -0.4340  0.1309  0.1081
17790W        W33684   0.252   2.689  15.236  0.0567 -0.1285 -0.2125
17791W        W33685   8.037   7.021   2.580 -0.4527  0.4467  0.4085
17792W        W33686  14.725   9.731  11.894 -0.4575  0.0960 -0.0686
17793W        W33687   4.710  15.085   1.061  0.0314 -0.0483  0.0816
17794W        W33688  12.055  12.285   0.563  0.0855 -0.0593  0.1945
17795W        W33689  17.036   7.103   0.970  0.0147  0.3046 -0.2922
17796W        W33690   9.088   9.329   5.656 -0.0169  0.0351  0.2807
17797W        W33691  11.031   4.652  15.132  0.2591  0.0713 -0.0869
17798W        W33692   9.013  12.624   3.713 -0.2633 -0.0705 -0.2258
17799W        W33693   4.223   1.427  15.665  0.3076 -0.0326  0.0249
17800W        W33694   8.422  11.456   0.520 -0.1812  0.2850  0.0744
17801W        W33695  10.093  17.315  13.168  0.4116  0.1364 -0.0971
17802W        W33696   8.282   9.019  13.129  0.2170 -0.2850 -0.1660
17803W        W33697   7.405  10.104   4.277  0.3196  0.0283  0.1295
17804W        W33698  13.716  10.396   4.062 -0.2693  0.2883 -0.0751
17805W        W33699  16.677   0.365  14.628 -0.0447  0.1028  0.0421
17806W        W33700   4.046  11.118   5.957  0.1281  0.0566  0.3118
17807W        W33701   8.308   7.312   5.276  0.0865  0.0052 -0.2217
17808W        W33702  16.647   1.485  12.212 -0.1314  0.0517  0.1139
17809W        W33703  13.861   5.410  13.274  0.2445  0.0957  0.2191
17810W        W33704   1.066   1.075  13.073 -0.2131 -0.1213 -0.1643
17811W        W33705  11.121   8.289   2.793  0.1518 -0.4554 -0.0693
17812W        W33706  14.291  10.241   0.343 -0.1211  0.0894 -0.0487
17813W        W33707  14.776  14.140  12.338  0.1203  0.2033 -0.0264
17814W        W33708   6.186   3.154   1.572  0.3026 -0.2582  0.2121
17815W        W33709  11.162  10.077  17.281  0.0515 -0.1927 -0.1969
17816W        W33710   7.896   4.461   0.434 -0.1243  0.3425  0.2621
17817W        W33711   1.101   8.416  12.878 -0.3460  0.0055 -0.2122
17818W        W33712   7.067   8.177   1.163  0.0343  0.2588 -0.2563
17819W        W33713  16.428   1.282   3.787 -0.3913  0.1194  0.0222
17820W        W33714   2.218   7.852  16.182  0.0325  0.2413  0.1371
17821W        W33715   0.027  10.378   0.866  0.2189  0.3296 -0.0171
17822W        W33716  15.150   3.390   0.292  0.1144 -0.0699 -0.5278
17823W        W33717  15.978  14.905  13.150  0.1324 -0.2461 -0.2412
17824W        W33718  16.749  14.038  12.131 -0.0890 -0.1318 -0.0211
17825W        W33719   0.175   5.728  13.434 -0.0355 -0.4404  0.0112
17826W        W33720   0.739   5.459   2.543  0.1267 -0.1512 -0.0030
17827W        W33721   0.380   0.212   4.652  0.2571  0.1712 -0.3306
17828W        W33722   1.271  10.902  14.639 -0.1863  0.2562  0.0041
17829W        W33723  16.886  14.288   4.124 -0.0075 -0.2106  0.2564
17830W        W33724   0.351  14.536  12.708  0.0229 -0.0563 -0.2279
17831W        W33725   2.521  16.797   5.119 -0.1755 -0.0008 -0.1258
17832W        W33726   7.622  15.621   3.639  0.1254 -0.3034 -0.3163
17833W        W33727   1.087  14.112   1.816 -0.0457 -0.0246 -0.0148
17834W        W33728   5.063  16.559   6.219 -0.0496  0.0797 -0.2268
17835W        W33729  14.739   8.574   5.518  0.1704  0.0992 -0.1891
17836W        W33730  13.867   8.327  15.191  0.0451 -0.0545 -0.1177
17837W        W33731   7.969  17.609   0.547  0.0518  0.3274 -0.1244
17838W        W33732   3.277   8.345   5.723  0.0405 -0.2112  0.0922
17839W        W33733   2.068  16.540   0.684  0.0030 -0.0392 -0.0978
17840W        W33734  14.741  14.272   3.226 -0.1324 -0.0209  0.2674
17841W        W33735  11.631  14.615   4.077 -0.0125  0.2551  0.0412
17842W        W33736   9.160   9.970  16.018 -0.5264  0.1483  0.0623
17843W        W33737  11.623   8.413  12.593  0.2255  0.0298 -0.2752
17844W        W33738   7.603   7.825  15.318  0.1134  0.0732  0.1457
17845W        W33739   6.886   9.513  12.878  0.0901 -0.2194  0.0324
17846W        W33740   1.191   3.568   0.720 -0.3110  0.1314 -0.0509
17847W        W33741   7.294  17.408   4.860 -0.0538  0.0336 -0.2492
17848W        W33742  17.441   7.989   2.736 -0.2746 -0.1676 -0.3755
17849W        W33743   8.496  16.301  12.855  0.1209  0.2213 -0.2762
17850W        W33744   8.364  15.146   4.058 -0.1904  0.4132  0.1729
17851W        W33745  11.014   9.388   3.516 -0.0433  0.2189  0.4036
17852W        W33746  10.534  15.697  12.817 -0.1891 -0.1041 -0.2899
17853W        W33747   4.132   4.836   3.103 -0.0641  0.1708 -0.2057
17854W        W33748  15.389  14.402  16.232  0.0545 -0.0803  0.0168
17855W        W33749  10.698   3.338   0.846 -0.1081  0.0157 -0.0659
17856W        W33750   6.164   5.095   2.587  0.2647 -0.3879 -0.0481
17857W        W33751   9.057   8.726  11.343  0.1781 -0.0302  0.2266
17858W        W33752   6.761  16.389   0.860 -0.0926 -0.0044  0.1003
17859W        W33753  13.003   7.443   0.004 -0.1467  0.1187  0.0186
17860W        W33754  16.801  16.266   4.566  0.1607  0.1206 -0.2745
17861W        W33755  11.350   0.018  15.194 -0.0739  0.0011  0.1422
17862W        W33756   6.473  15.458   1.323  0.0131 -0.2822  0.2534
17863W        W33757   3.795  13.394  12.608 -0.0019  0.1555 -0.3995
17864W        W33758  11.844  17.018  11.639 -0.3117 -0.1192  0.2096
17865W        W33759  14.077   8.625  12.204 -0.1325  0.0954  0.1018
17866W        W33760  14.449  14.653   3.225 -0.3365  0.2898  0.0563
17867W        W33761  15.712  11.421  13.643 -0.0133  0.3147  0.2830
17868W        W33762  14.854  14.039   0.351  0.0650 -0.3034 -0.2108
17869W        W33763   0.371   4.659   3.131 -0.0564  0.2545 -0.0511
17870W        W33764   1.988   5.139   5.839  0.0641 -0.0037 -0.0460
17871W        W33765  17.137   1.478  16.748 -0.2075 -0.3827 -0.1676
17872W        W33766  15.133  14.504   0.665 -0.0888 -0.2363 -0.2766
17873W        W33767  11.057  15.355  12.888 -0.1256 -0.3989 -0.0574
17874W        W33768   2.588   2.903  12.836 -0.2747  0.0864  0.3859
17875W        W33769  13.835   2.960  15.598  0.2513  0.0451  0.0121
17876W        W33770  17.374   3.617   1.764  0.1179 -0.1252  0.0122
17877W        W33771  15.120   5.254  15.400 -0.1711 -0.0052  0.0959
17878W        W33772   5.982  13.920   0.604 -0.1311  0.1714  0.2704
17879W        W33773   5.601   0.604   5.727  0.1393 -0.2134 -0.4460
17880W        W33774  15.497  17.599   0.076 -0.2036 -0.1432  0.0948
17881W        W33775   9.396   7.256   3.002 -0.0162 -0.0278 -0.0381
17882W        W33776   1.912  13.684   2.009  0.3542  0.1960  0.1120
17883W        W33777   4.596   9.154   5.196  0.0006 -0.0986 -0.2021
17884W        W33778   4.731   9.855  16.830  0.0234  0.2534 -0.2551
17885W        W33779   3.718   2.188   4.814 -0.3051 -0.2900 -0.2348
17886W        W33780  16.689   1.077  12.549 -0.0774 -0.1211  0.0044
17887W        W33781   0.380   4.768   2.272  0.4648  0.5586 -0.0374
17888W        W33782  13.266  11.799  15.414 -0.5478 -0.0762 -0.4712
17889W        W33783  14.300   3.301   0.006  0.1260 -0.4161  0.0973
17890W        W33784   8.004   1.067   6.524 -0.0014  0.0721  0.0856
17891W        W33785   7.400  10.558  13.490  0.0001  0.5448 -0.1285
17892W        W33786   8.586  11.554   3.524 -0.0975 -0.1374 -0.2275
17893W        W33787  12.981  12.890   4.208 -0.0945  0.0821  0.3866
17894W        W33788  14.633  15.426   5.262  0.0318 -0.1416 -0.0666
17895W        W33789   0.376  16.828   2.938  0.0597 -0.1139 -0.0885
17896W        W33790  14.086   1.440   0.230 -0.4093 -0.0962  0.2218
17897W        W33791   9.001  13.341   5.162 -0.0581  0.0635 -0.1402
17898W        W33792  10.688   4.066  10.818  0.2040  0.1441  0.0339
17899W        W33793   5.316   6.231  16.863 -0.0005 -0.2009  0.1199
17900W        W33794   4.091   9.899   2.275 -0.2462  0.1022  0.1414
17901W        W33795   8.722   8.462  16.149 -0.2666 -0.1105  0.0481
17902W        W33796   5.091   8.986  11.032 -0.0549  0.1614 -0.0345
17903W        W33797   4.813   9.078  11.958 -0.0207  0.0971 -0.2617
17904W        W33798   3.504  14.263  15.836  0.0077 -0.1204 -0.1129
17905W        W33799   3.339  14.274   0.296  0.2420 -0.1677 -0.4541
17906W        W33800   7.830   8.819   6.348  0.0632 -0.1325  0.0903
17907W        W33801   9.493   0.212   4.661 -0.2549  0.4354 -0.3057
17908W        W33802  13.341   0.984  13.609 -0.1404 -0.0586 -0.0752
17909W        W33803  16.858   5.287  16.179  0.4007 -0.1345  0.1984
17910W        W33804   9.914  12.296   5.305  0.2182  0.3237 -0.1453
17911W        W33805   9.834   0.173   1.442 -0.0138  0.1559 -0.2297
17912W        W33806   8.724  14.511  14.365  0.0894 -0.1166 -0.1684
17913W        W33807   8.527  13.673  15.743 -0.0369  0.1754 -0.1863
17914W        W33808   9.622  17.587  13.137 -0.0492  0.1249 -0.1438
17915W        W33809   8.262   5.126  15.215  0.0452  0.0879 -0.1338
17916W        W33810   4.284   9.960  16.655  0.1915  0.1199  0.0026
17917W        W33811  11.058   3.949  13.389 -0.2106 -0.2447 -0.2303
17918W        W33812   5.544   5.109   2.583 -0.2779 -0.0866 -0.5223
17919W        W33813  14.339   6.335   2.000 -0.0064  0.0397 -0.0013
17920W        W33814   5.480  10.353   3.930 -0.2510  0.0775 -0.1170
17921W        W33815  10.889   7.374  17.226 -0.0893  0.2700  0.2204
17922W        W33816   5.973  11.645  11.522 -0.2668 -0.1779  0.1646
17923W        W33817   1.156   8.887   5.466  0.1847  0.0651  0.0152
17924W        W33818  16.103  15.695  13.766  0.1813  0.2389  0.0092
17925W        W33819   9.083  15.418   5.276 -0.0921  0.2031  0.3072
17926W        W33820   5.363   2.575   5.549 -0.0484 -0.1529 -0.0855
17927W        W33821   7.128  11.952  13.927 -0.2312  0.1619 -0.2277
17928W        W33822   3.346  14.845   2.611  0.1907  0.0729 -0.1695
17929W        W33823  13.350   4.262  13.072 -0.0071  0.1162  0.1884
17930W        W33824   6.456   8.186   0.041 -0.0631  0.0098  0.2300
17931W        W33825   9.100   8.335   0.503  0.1532 -0.0077  0.0315
17932W        W33826   3.146  15.708   0.270  0.0356 -0.0990 -0.0578
17933W        W33827   4.467   9.225  13.363  0.0794 -0.3991  0.0391
17934W        W33828   5.331   1.069  14.646  0.2294  0.2033  0.3163
17935W        W33829  17.384   8.965  15.831  0.2099 -0.3403  0.0263
17936W        W33830  10.357   7.969   3.527  0.1294 -0.0120 -0.2796
17937W        W33831  17.208   8.187   0.860 -0.1278  0.0786 -0.0353
17938W        W33832  17.507   2.345  16.144 -0.0000 -0.4009  0.2915
17939W        W33833  17.082  17.033  16.524 -0.1078 -0.1264  0.2618
17940W        W33834   4.442   8.696   0.641 -0.0763  0.0994  0.1428
17941W        W33835   2.342   4.959  15.753 -0.2807  0.1536  0.0596
17942W        W33836   3.550   1.594   0.687 -0.0729 -0.0197  0.0138
17943W        W33837   4.968   0.232  12.265  0.0602 -0.0669 -0.2461
17944W        W33838   9.574   3.967  17.184  0.2645  0.2718  0.0072
17945W        W33839   5.426   6.151  12.678 -0.0299  0.0598 -0.2365
17946W        W33840   3.448  11.262   5.413  0.0750 -0.2785 -0.1115
17947W        W33841  16.615   4.408   0.989 -0.5061  0.1936  0.0835
17948W        W33842  13.899   4.435  16.227 -0.1172 -0.0431 -0.1586
17949W        W33843  15.992   5.678  11.630  0.1742 -0.1914 -0.0523
17950W        W33844   4.873   5.952   5.507  0.1210 -0.2870  0.0430
17951W        W33845   3.252   0.479   3.644 -0.3629 -0.3473  0.0163
17952W        W33846  17.110   5.307  14.753  0.1732 -0.0650 -0.0719
17953W        W33847   9.653   7.220  13.130  0.0223 -0.1347  0.0855
17954W        W33848   6.781  12.424   4.456 -0.1876  0.0180 -0.0730
17955W        W33849  15.303   6.998  14.788 -0.1240  0.0972  0.2269
17956W        W33850  14.380  10.522   5.541  0.2517  0.2184 -0.0896
17957W        W33851  17.146  14.961  16.968 -0.0106 -0.2213 -0.3578
17958W        W33852   4.212  17.604  16.135  0.3320  0.0930 -0.2553
17959W        W33853  16.424   7.685  13.095  0.0280  0.0195 -0.0829
17960W        W33854   2.819   6.734  16.084 -0.2186 -0.2690  0.1869
17961W        W33855   2.325   1.371   5.286 -0.0726  0.3390 -0.0320
17962W        W33856  15.580  14.195   2.852  0.2057 -0.2521  0.2338
17963W        W33857   2.940  13.688   0.807  0.2157 -0.1130  0.1118
17964W        W33858  15.589  11.504   0.181  0.0322  0.1906 -0.1071
17965W        W33859  15.865  15.083   0.755  0.2627  0.1451 -0.0553
17966W        W33860   5.700   6.199   4.887  0.1837 -0.1454  0.2315
17967W        W33861   8.228  16.362   3.194 -0.2242  0.1027 -0.0567
17968W        W33862   1.030  13.300  15.431 -0.2781 -0.1910 -0.1354
17969W        W33863   6.393   0.710   3.238  0.2323  0.2020 -0.0140
17970W        W33864  12.419  15.110   2.539  0.0325  0.1668 -0.0241
17971W        W33865   9.143  16.053   2.236 -0.2186  0.0983  0.0347
17972W        W33866  12.080   6.562  17.002 -0.2644 -0.2207  0.0546
17973W        W33867   3.911   5.929  16.646  0.0323 -0.2019 -0.0594
17974W        W33868   3.795   5.461  12.656 -0.0343 -0.0563  0.2169
17975W        W33869  12.526  10.596  11.682 -0.0738  0.0513  0.0885
17976W        W33870   5.900  14.223   2.596  0.0644  0.0315 -0.2108
17977W        W33871   6.015   7.391  16.015  0.0681 -0.0014  0.1433
17978W        W33872   8.356  15.051  13.593  0.1825  0.0412 -0.0809
17979W        W33873  15.616  11.341  12.577  0.4163  0.0500 -0.2285
17980W        W33874  10.539  13.879  14.301 -0.1501  0.3258  0.0136
17981W        W33875   0.281   6.485   5.501  0.0049 -0.0926  0.2477
17982W        W33876   0.220  11.738  14.137  0.0357 -0.1479  0.0295
17983W        W33877   5.893  12.758   2.752 -0.0094  0.0231 -0.2685
17984W        W33878  15.214   5.616  14.100  0.0156  0.1877  0.2624
17985W        W33879   5.542   9.545   5.299  0.0056 -0.0667 -0.1054
17986W        W33880   2.735   5.330   2.198  0.0009  0.0035 -0.0132
17987W        W33881   2.891   2.973   6.322  0.0577 -0.1643  0.2815
17988W        W33882   2.708  15.637   0.499 -0.1055  0.0325 -0.2366
17989W        W33883  14.457   3.399   2.049  0.1151  0.2201 -0.1054
17990W        W33884   2.910   8.383   4.792 -0.1948 -0.2006  0.1703
17991W        W33885   3.230   9.540   4.117  0.1172  0.1204 -0.1006
17992W        W33886   0.124  16.103  12.776 -0.1346 -0.2466  0.1533
17993W        W33887   9.497   0.315  13.781  0.3773 -0.2485 -0.0775
17994W        W33888   5.547   1.765   3.454  0.1823  0.0076 -0.1291
17995W        W33889  16.782  13.017  13.137  0.2271  0.1804 -0.4027
17996W        W33890   9.455   8.433  11.701 -0.0244 -0.3401  0.2343
17997W        W33891   2.699   1.165   3.934 -0.2088 -0.0793 -0.1412
17998W        W33892   4.458   6.837  13.343 -0.0397  0.2524 -0.0895
17999W        W33893  11.427   7.579  11.008  0.0068  0.0400  0.1300
18000W        W33894  15.450   2.028  13.551 -0.0313  0.2039  0.1540
18001W        W33895   4.377   7.120  12.412 -0.5851  0.1752  0.0916
18002W        W33896   1.434  13.965   5.179  0.0223 -0.0415 -0.2414
18003W        W33897   6.220   2.418  16.561 -0.2395 -0.2786 -0.0886
18004W        W33898  10.393  16.329   2.563  0.1905 -0.2530  0.0947
18005W        W33899   4.124  15.072   2.403 -0.1037 -0.0745 -0.1688
18006W        W33900  15.327   4.333  16.497 -0.1150 -0.2236  0.1315
18007W        W33901  15.455   8.802  16.362 -0.0720 -0.1784 -0.0711
18008W        W33902  15.097   7.168   0.639 -0.0572  0.0852 -0.1953
18009W        W33903   6.028  13.580  15.293 -0.2126  0.1994 -0.0386
18010W        W33904  14.423  11.646  15.524 -0.1000  0.2527  0.0294
18011W        W33905   1.894   9.986  16.453 -0.2190  0.1389 -0.1926
18012W        W33906   8.415   5.644  14.545  0.2232 -0.0217 -0.3979
18013W        W33907  11.001   9.133  13.606  0.0283 -0.1838  0.0334
18014W        W33908  14.083  10.470  17.134 -0.2414 -0.1494 -0.2141
18015W        W33909  14.824  12.963   3.800 -0.2490  0.0147 -0.0532
18016W        W33910   9.274   8.581   2.639 -0.1372 -0.0621 -0.5148
18017W        W33911  13.744   6.179   3.725  0.2053 -0.0947  0.2434
18018W        W33912  14.148   8.160  13.265  0.1714  0.1158  0.0952
18019W        W33913  12.431  12.827   2.967 -0.1836 -0.0854 -0.1184
18020W        W33914   4.916  13.296   4.182  0.0449  0.1173 -0.0692
18021W        W33915  12.430   9.130   5.609  0.0886  0.1607  0.2909
18022W        W33916   9.354   4.443   2.354  0.1929 -0.0402 -0.0010
18023W        W33917   3.070   2.071  15.456 -0.0090 -0.0405  0.1049
18024W        W33918  10.491   6.247   4.637 -0.2816  0.0556  0.0744
18025W        W33919  13.239   7.464  12.382  0.2077  0.1065  0.1042
18026W        W33920   5.916   7.328  14.317  0.1465 -0.0361 -0.2455
18027W        W33921   4.670   3.442   6.760 -0.0266 -0.0637 -0.0737
18028W        W33922   5.517  13.612   0.472  0.1105  0.2063  0.6481
18029W        W33923   0.668  13.974   5.361  0.0674  0.0135 -0.5180
18030W        W33924   2.027  14.937   0.327 -0.0656 -0.0668 -0.1475
18031W        W33925   1.949   6.520   1.881  0.1389  0.4962  0.0181
18032W        W33926  13.826   0.205   4.296  0.0229 -0.0924 -0.0058
18033W        W33927   2.926  13.012   1.433 -0.3755 -0.2341  0.1222
18034W        W33928   8.044  17.217  12.026  0.0148  0.2264  0.2545
18035W        W33929   1.882  15.382   0.021  0.1184  0.1062  0.0768
18036W        W33930  14.604   2.657   1.613  0.1884 -0.0683  0.0540
18037W        W33931   1.312   4.491   4.560 -0.0007  0.0553  0.0542
18038W        W33932   6.049   9.574   3.610  0.1295 -0.0497  0.1273
18039W        W33933   0.020  11.488  16.608  0.0861  0.1727 -0.0292
18040W        W33934  16.072   1.145   3.481  0.0085  0.0090 -0.2358
18041W        W33935  11.161   8.732  16.731  0.0360  0.0851  0.2110
18042W        W33936   3.918  17.621  14.057 -0.0954 -0.1305 -0.0011
18043W        W33937   3.459   7.779   3.841  0.1689 -0.0455 -0.0420
18044W        W33938  13.591   7.440   0.816  0.3692  0.1325  0.4069
18045W        W33939   3.991   0.061  12.580 -0.0944 -0.1465  0.0989
18046W        W33940   0.324  15.859  14.394  0.1670  0.1897 -0.2837
18047W        W33941   1.410   7.776  12.951  0.1307 -0.0603 -0.1926
18048W        W33942   5.451  13.097   0.962 -0.0597 -0.1636 -0.4279
18049W        W33943  15.683  11.967   3.687  0.0525 -0.0723  0.0186
18050W        W33944   2.309   9.855  16.720 -0.0354  0.1784  0.0114
18051W        W33945   4.628  16.207   1.695  0.0406  0.1474 -0.2137
18052W        W33946   4.128  15.716  13.486  0.0557  0.1259 -0.0833
18053W        W33947   0.598  11.795   1.962 -0.1291  0.2495 -0.0311
18054W        W33948   9.620   3.693  14.054  0.2826 -0.2070  0.1260
18055W        W33949   5.170  15.981  16.407  0.0124 -0.1515  0.0774
18056W        W33950   9.325   3.774  14.516  0.0364 -0.0120 -0.1623
18057W        W33951   4.727   1.224  15.709  0.0744  0.0375 -0.0182
18058W        W33952  10.989   7.761   0.790 -0.0849 -0.1310  0.1884
18059W        W33953  15.743   3.956  13.755 -0.0774  0.2220  0.5180
18060W        W33954  15.872   9.927   2.150 -0.1203 -0.3895 -0.2579
18061W        W33955   6.860   6.306  12.037  0.2537 -0.1168 -0.2085
18062W        W33956   7.321   6.954  12.327  0.0219  0.1402  0.2114
18063W        W33957   4.618  16.771   3.407 -0.3188  0.0271 -0.0865
18064W        W33958  13.908  15.620   4.689 -0.4255  0.2298  0.2264
18065W        W33959   1.726   9.537  12.502  0.0032  0.0328  0.1857
18066W        W33960  16.678  16.776   2.878  0.1391  0.1199  0.0847
18067W        W33961  13.735   8.799  12.627  0.0607  0.0493  0.1536
18068W        W33962   8.938  10.080  12.260  0.3174 -0.1957 -0.2190
18069W        W33963   9.411   1.754   0.294  0.1059 -0.1437  0.1628
18070W        W33964   9.300  14.401   3.526  0.2180 -0.1515 -0.0319
18071W        W33965  13.221  10.235  14.266 -0.4214 -0.1827 -0.0726
18072W        W33966   6.560   8.597  11.888 -0.0415 -0.1795 -0.0409
18073W        W33967   6.901   8.273   4.525 -0.1444  0.2326 -0.1661
18074W        W33968  10.746  11.177  11.569 -0.0024  0.0470  0.1730
18075W        W33969  17.024  15.973   5.806 -0.2110 -0.1383  0.1019
18076W        W33970   1.758  10.037  14.424  0.2899  0.0840  0.3704
18077W        W33971   2.655  13.082  14.789  0.1485 -0.0143 -0.3679
18078W        W33972   8.218   8.242   2.752  0.1274 -0.0090 -0.1142
18079W        W33973   2.897   1.410   6.126 -0.1215 -0.1318 -0.1122
18080W        W33974  15.759   7.947   5.367  0.0192  0.1591 -0.0709
18081W        W33975  13.940   3.311   2.135 -0.0955 -0.2868  0.1132
18082W        W33976   2.470  14.714  14.584 -0.0655 -0.1462 -0.1988
18083W        W33977   1.770   5.578  13.505  0.1456  0.1297  0.3440
18084W        W33978   2.102   3.970   5.055 -0.1139 -0.2786  0.2619
18085W        W33979  13.800   0.752  13.705 -0.2083 -0.0170  0.3174
18086W        W33980   6.097  10.264  13.971  0.2799 -0.2653 -0.0005
18087W        W33981  10.689   8.277   5.343 -0.3675 -0.2108 -0.1445
18088W        W33982  17.160  12.801  14.958 -0.0475 -0.1347  0.2600
18089W        W33983   7.541   8.174   5.764  0.1257  0.1489  0.0217
18090W        W33984   7.274   3.481   0.876 -0.0028  0.2769  0.2922
18091W        W33985  13.346   1.549   5.997 -0.0110  0.0303  0.2637
18092W        W33986   7.812   8.335  15.268  0.0143  0.0458  0.0739
18093W        W33987   6.296   9.945   3.015 -0.0212  0.1397 -0.3328
18094W        W33988   8.304   6.879   5.038 -0.0235 -0.2068  0.1915
18095W        W33989   6.669  12.392  14.861  0.1764  0.0631  0.1033
18096W        W33990  13.535   5.322   0.720 -0.2112 -0.1450 -0.1362
18097W        W33991  12.655   9.894   3.977 -0.0258  0.1056 -0.1793
18098W        W33992  10.854   4.034   3.977  0.0453 -0.0887 -0.2080
18099W        W33993   8.465   5.569  15.049 -0.0085 -0.1221  0.0425
18100W        W33994  12.545   3.006   0.677 -0.4939  0.0508  0.3540
18101W        W33995  14.424  13.993  16.384  0.0276  0.0556  0.2114
18102W        W33996   2.534  17.492   2.216  0.1229  0.0565  0.0790
18103W        W33997  13.969   1.221  16.212 -0.1251  0.0782  0.1251
18104W        W33998   1.445   4.315   2.206 -0.0697  0.1287  0.2389
18105W        W33999  13.818  12.267   2.757 -0.0868  0.1670 -0.0042
18106W        W34000  17.257   8.281  16.416  0.0952  0.0305 -0.0920
18107W        W34001  15.449  14.555   1.613  0.0895  0.0356  0.0300
18108W        W34002   3.454  15.126   4.253  0.2760 -0.3041  0.0349
18109W        W34003   8.853   1.959   2.117  0.0374 -0.0493  0.0336
18110W        W34004  16.474  10.900   5.498 -0.2629  0.1827 -0.0438
18111W        W34005   0.246   6.839   2.129 -0.0582  0.0502  0.1387
18112W        W34006  13.117  12.488   5.198  0.5170  0.1957 -0.2463
18113W        W34007   9.839   5.993  16.416  0.0175 -0.0760 -0.0921
18114W        W34008   3.620  13.262   3.113 -0.0021  0.3098  0.0263
18115W        W34009   2.257   6.765   4.040 -0.2477  0.0306 -0.1937
18116W        W34010   8.660   2.450  12.738  0.0924  0.1740  0.0234
18117W        W34011  11.068   4.068   5.192 -0.1220 -0.5302 -0.1611
18118W        W34012   0.787  16.550   4.835 -0.2544 -0.0184  0.0421
18119W        W34013   3.428   9.033   4.662 -0.2305 -0.2249 -0.1218
18120W        W34014   3.017  15.755   5.191 -0.4830  0.2936 -0.1738
18121W        W34015  13.379   4.345   2.626 -0.0568 -0.3350 -0.0481
18122W        W34016   3.661  17.511   1.088  0.1366  0.0372  0.1548
18123W        W34017   5.774  13.660  11.750 -0.4050 -0.0865 -0.3144
18124W        W34018  13.795   8.181  14.284 -0.2561 -0.3519 -0.1849
18125W        W34019  16.074   2.791  16.292 -0.0247  0.1052  0.0154
18126W        W34020  13.861  14.143  11.794  0.3481 -0.0818  0.0077
18127W        W34021   2.586  11.321  15.076 -0.1490 -0.1705  0.0345
18128W        W34022   5.928   5.819   4.095 -0.1555 -0.1499  0.3019
18129W        W34023   0.802   9.728   0.555 -0.0065 -0.1627  0.0436
18130W        W34024  11.815   1.131   2.921  0.1382 -0.1476 -0.0242
18131W        W34025   7.827  13.798  14.854 -0.1549 -0.4314  0.1228
18132W        W34026   4.176   2.513  15.085 -0.1366 -0.0019  0.2180
18133W        W34027   2.279   1.613   3.216 -0.0878  0.2037  0.0331
18134W        W34028  15.694   2.766   3.778  0.2233 -0.1107  0.1191
18135W        W34029  11.850   1.291   4.353  0.4264 -0.2174 -0.0302
18136W        W34030  10.272  12.451  11.913  0.0969  0.1079 -0.1666
18137W        W34031  15.265   5.353  14.564 -0.0852  0.0183  0.0647
18138W        W34032   6.827   9.689   6.288  0.1249  0.0094 -0.3724
18139W        W34033   5.128   6.453  13.945 -0.1839  0.1372 -0.0656
18140W        W34034   2.466   6.315   0.627 -0.3132  0.0555  0.2151
18141W        W34035  16.036   5.215   3.211 -0.0024 -0.2484  0.1132
18142W        W34036  14.961   8.333  15.695  0.1152  0.3006  0.2443
18143W        W34037  17.431  14.910   4.927  0.2006 -0.0604  0.4054
18144W        W34038  16.121  16.018   0.825 -0.0432 -0.1720 -0.0516
18145W        W34039   8.029  11.813  14.865  0.0015  0.2281  0.1934
18146W        W34040   1.203   6.981   3.178  0.0285 -0.2075  0.0378
18147W        W34041   0.571   1.874   0.357 -0.0058 -0.1900 -0.1346
18148W        W34042   7.378  15.946  14.904 -0.0794 -0.1629  0.1200
18149W        W34043  17.557   9.822   3.491  0.0128  0.3700  0.1350
18150W        W34044   5.410  11.267  12.856 -0.0004 -0.0449 -0.0157
18151W        W34045   1.507   1.569   1.077  0.1116  0.2073  0.3018
18152W        W34046  15.902   5.721   4.178 -0.0159 -0.0934 -0.0525
18153W        W34047   4.738  10.014  13.851  0.0525  0.2803 -0.0489
18154W        W34048  17.342  16.035  16.338  0.1512 -0.0076 -0.1901
18155W        W34049   3.149   3.931   2.572  0.0779 -0.3111  0.1877
18156W        W34050  10.084  17.323  17.094 -0.0239  0.0046  0.3412
18157W        W34051   6.255  13.942  15.637  0.2774  0.0847  0.0649
18158W        W34052  14.773  11.436   5.843 -0.1982 -0.1843 -0.1711
18159W        W34053   9.564   5.221   2.903 -0.0198 -0.0626  0.0491
18160W        W34054   2.755   3.020   2.879  0.1483 -0.1684  0.2633
18161W        W34055   6.962  15.464  16.460 -0.0034  0.5141 -0.1969
18162W        W34056   1.540   7.168   4.152 -0.4201 -0.2159 -0.1341
18163W        W34057  14.281  15.871  13.567 -0.0951 -0.0019  0.0883
18164W        W34058  10.482  13.777   5.067  0.5154 -0.0937 -0.0462
18165W        W34059  10.304  11.656  13.663  0.3528  0.3009 -0.0711
18166W        W34060  17.211  13.436   2.681 -0.2591  0.1651  0.1584
18167W        W34061   9.265  15.607   3.051  0.1614 -0.0615 -0.2759
18168W        W34062  17.018  13.913  14.944 -0.1799  0.1436  0.2735
18169W        W34063   5.200  13.143   1.935 -0.2071  0.3256 -0.1141
18170W        W34064  14.504   9.920   4.574 -0.1730 -0.1163  0.1627
18171W        W34065  15.467  12.646   1.601 -0.0470 -0.2422 -0.0733
18172W        W34066   7.348  10.114   4.773 -0.1624 -0.3004 -0.3047
18173W        W34067  17.622   5.290  13.075  0.0257 -0.1387  0.0363
18174W        W34068   3.811  17.506   5.594  0.0273  0.0765  0.0257
18175W        W34069   0.727  12.005  14.922 -0.2349  0.2026 -0.1120
18176W        W34070  11.493   8.207  10.820  0.3892  0.2782 -0.4038
18177W        W34071   4.856   1.695  13.399  0.2455 -0.1326 -0.1124
18178W        W34072  16.211   7.156   4.746 -0.2971  0.0450  0.1601
18179W        W34073   0.449  13.236  13.178 -0.0024  0.0255  0.1903
18180W        W34074   2.760  10.296   2.651 -0.0863 -0.0525  0.2618
18181W        W34075  11.614   5.729  13.309 -0.0392 -0.0118  0.1108
18182W        W34076   4.149   7.551  15.262 -0.0590  0.3035 -0.2371
18183W        W34077   9.945   9.966   4.853  0.0242  0.1225 -0.0233
18184W        W34078   2.532  16.504  16.645  0.0456 -0.0625  0.0943
18185W        W34079   0.984  14.452  13.198  0.1993 -0.2182 -0.4063
18186W        W34080   1.303   9.098   1.761  0.1043  0.1547 -0.1352
18187W        W34081   3.247  11.471   2.388 -0.1380 -0.0472 -0.0400
18188W        W34082   1.621  17.522   1.748 -0.0414 -0.1562  0.0318
18189W        W34083  16.888  15.927  15.797  0.2016 -0.0575  0.3435
18190W        W34084   5.120   0.455  16.446 -0.2410  0.4554 -0.2020
18191W        W34085   2.080   4.846  14.057 -0.1747  0.1153 -0.3392
18192W        W34086   0.526  15.208  15.396  0.0982  0.2207 -0.0318
18193W        W34087   4.010   6.736   0.810  0.1156 -0.1977 -0.0918
18194W        W34088  12.077   4.739   4.834  0.1757 -0.0194  0.1357
18195W        W34089   5.533  16.843   1.339  0.3969 -0.0075 -0.0349
18196W        W34090   3.484  12.145  14.963  0.2127 -0.0618  0.2473
18197W        W34091   9.452  13.981   5.080 -0.0008 -0.3376  0.4136
18198W        W34092   8.300  14.682   0.722  0.2139 -0.0176  0.1480
18199W        W34093  16.318   3.236  13.338 -0.0699 -0.1740 -0.2465
18200W        W34094  12.780  15.735   6.362 -0.3004 -0.1321  0.1192
18201W        W34095  17.445  15.877   4.732  0.3873 -0.2205 -0.1562
18202W        W34096   4.498   9.506   1.359  0.0795 -0.1808 -0.1786
18203W        W34097  12.238  15.483  15.198  0.0449  0.1465 -0.1031
18204W        W34098   3.356  10.579   4.781 -0.1697 -0.0333 -0.0454
18205W        W34099   9.300  16.076  17.161 -0.2645  0.1336 -0.0717
18206W        W34100  11.821  10.478  13.907 -0.0739  0.1051  0.4783
18207W        W34101   7.101  10.201  12.140  0.1006 -0.0610  0.1827
18208W        W34102   1.270  14.505   4.340 -0.0469  0.0461 -0.0141
18209W        W34103   2.085  16.626  15.342  0.2010 -0.2531 -0.2264
18210W        W34104   2.360   9.852   5.131  0.0411 -0.2527 -0.3054
18211W        W34105   0.983  10.467  11.851  0.0932 -0.1059  0.0034
18212W        W34106   4.341   2.619   4.154  0.5567 -0.1078  0.0972
18213W        W34107   6.566  15.021  12.910  0.0248  0.2113 -0.3065
18214W        W34108  12.761   3.028   3.356 -0.1170  0.0960 -0.0652
18215W        W34109  11.971   6.766   1.520  0.1199 -0.0941  0.2135
18216W        W34110  14.552   3.753   4.770  0.1185  0.0139  0.1349
18217W        W34111   9.358  17.123  13.101  0.0565 -0.0735  0.3531
18218W        W34112   1.213   5.403  17.194  0.1035 -0.0311  0.0067
18219W        W34113   6.299   7.422  15.071  0.1047 -0.0778  0.1287
18220W        W34114  16.331   6.042   2.787 -0.0060  0.0060 -0.3706
18221W        W34115   2.775  11.456   5.488 -0.0157 -0.1129 -0.4091
18222W        W34116   2.094  11.172   3.822 -0.0103  0.0447 -0.0251
18223W        W34117   5.377   5.365  11.964  0.2593  0.0145  0.1105
18224W        W34118   2.249   4.572   4.342  0.0036  0.0013 -0.2135
18225W        W34119  16.265  15.619   1.522 -0.0529  0.0202  0.3415
18226W        W34120   9.916   7.362  14.603  0.1533 -0.0043 -0.2276
18227W        W34121  13.481  11.043  11.808 -0.2485  0.1809 -0.5137
18228W        W34122  16.961  16.442  15.786 -0.0260 -0.0998 -0.0119
18229W        W34123  14.967   2.718  13.006 -0.3882 -0.0560 -0.3585
18230W        W34124  12.523   6.137  16.830 -0.3006 -0.1438  0.0727
18231W        W34125  11.138  12.043   1.263 -0.2533  0.1524 -0.2862
18232W        W34126   5.240  13.414   1.349  0.0137  0.0858 -0.0842
18233W        W34127   1.826  12.532   5.470 -0.3197 -0.1477  0.1388
18234W        W34128   0.812   3.191   5.129 -0.1643  0.1072 -0.2936
18235W        W34129   9.067  13.604   2.436  0.2134  0.3172 -0.1368
18236W        W34130  15.692  13.502  14.111  0.1355 -0.0019 -0.1175
18237W        W34131   7.005   8.112  17.295  0.1234  0.0700 -0.0966
18238W        W34132  10.997   6.314  17.242 -0.1389 -0.0936 -0.2303
18239W        W34133   4.816   6.240  16.634 -0.0636 -0.0598  0.1256
18240W        W34134  16.238   5.535   0.350 -0.1341 -0.0124 -0.0752
18241W        W34135   0.306   0.160   6.336  0.0810 -0.0617 -0.0361
18242W        W34136   6.723   7.706  17.139 -0.2663 -0.2921 -0.1277
18243W        W34137   6.025   1.268   4.718  0.2203  0.1125 -0.0495
18244W        W34138   8.646  13.917   4.172  0.1862  0.2065  0.0570
18245W        W34139  13.133   3.286   3.039 -0.1628  0.2461  0.1053
18246W        W34140   9.742  16.487   5.388  0.1481  0.0572  0.2501
18247W        W34141   3.566  10.910   5.763 -0.3213  0.0465 -0.0455
18248W        W34142   5.693   5.132  16.111  0.1119  0.0589  0.2353
18249W        W34143  16.232  10.213  15.352  0.1167  0.1244  0.2528
18250W        W34144   4.233   7.759   1.791 -0.1548  0.0522 -0.0563
18251W        W34145  16.564   6.478   6.616  0.1770  0.0487 -0.1441
18252W        W34146   9.830  12.778  16.973 -0.0951  0.3303  0.2236
18253W        W34147   0.727   1.614  15.336  0.0136 -0.2300 -0.0203
18254W        W34148  14.745  12.396  12.686  0.0669 -0.0026  0.2480
18255W        W34149   1.896  15.104   4.671  0.2378 -0.0312 -0.0308
18256W        W34150   9.061   3.892   0.032 -0.2009 -0.1053  0.2246
18257W        W34151  11.444   0.428   4.647  0.5723  0.2779 -0.0182
18258W        W34152   0.314   1.204   5.783  0.2894 -0.0790  0.1203
18259W        W34153   0.972   8.497  13.365 -0.0451  0.0298 -0.0239
18260W        W34154   1.698  13.643  13.730 -0.2346  0.0766 -0.0328
18261W        W34155   7.436   7.673   3.481  0.0714  0.0362  0.1295
18262W        W34156   5.779   3.394   5.550 -0.1000 -0.1706  0.4370
18263W        W34157   9.157   6.625   4.551 -0.2191 -0.0415  0.3165
18264W        W34158  12.257  16.178  14.642 -0.2303 -0.0826  0.1806
18265W        W34159   3.545   4.137  12.400 -0.3456 -0.1938 -0.0448
18266W        W34160  17.045  12.526   3.648 -0.2482  0.0392  0.1926
18267W        W34161   2.101  16.755   3.173  0.0337  0.0033  0.3172
18268W        W34162   7.311   9.439  11.095 -0.1021  0.5650 -0.0546
18269W        W34163   4.696   2.367   2.818 -0.0635  0.1225  0.0611
18270W        W34164   5.586  10.328   1.196 -0.1092 -0.0644  0.0553
18271W        W34165   6.396   0.332  16.219 -0.2833 -0.0491 -0.0276
18272W        W34166  16.213   0.351  13.702 -0.0165 -0.0887 -0.1007
18273W        W34167   7.371   0.710   4.745 -0.0004 -0.2831 -0.2121
18274W        W34168   9.039   3.718   1.862 -0.1385  0.2330 -0.1074
18275W        W34169  14.518   3.857   1.879  0.1707  0.2661  0.0062
18276W        W34170  12.726   0.952  11.546  0.1567 -0.0833 -0.2098
18277W        W34171   7.192   3.590   5.619 -0.2595 -0.2374  0.0394
18278W        W34172   1.835   9.606   2.442  0.0819  0.0363  0.1947
18279W        W34173   9.366   8.105   2.473 -0.2694  0.1958  0.1944
18280W        W34174   4.421  10.348  13.114  0.3470 -0.1481  0.0621
18281W        W34175   7.414   1.046  16.829  0.3091 -0.0353  0.2520
18282W        W34176   7.008  17.077   5.820 -0.1170  0.1304 -0.0730
18283W        W34177   6.563  13.352   5.008 -0.1093  0.2883  0.1287
18284W        W34178  10.820   2.981  15.108  0.1551 -0.1720 -0.3227
18285W        W34179  12.083  17.325  15.314  0.3261  0.1440 -0.1187
18286W        W34180  12.816   8.061   4.816 -0.3215 -0.2293 -0.3881
18287W        W34181  16.080  13.584  12.751 -0.0222 -0.1731 -0.0471
18288W        W34182   0.299  16.802  13.579  0.1373  0.0874 -0.0997
18289W        W34183  15.738  13.319   2.468 -0.1172 -0.0730  0.0316
18290W        W34184  11.087  11.024  17.266  0.0289  0.1017  0.1973
18291W        W34185   3.222   3.488   3.641 -0.2710 -0.1164  0.2150
18292W        W34186   7.592  17.504  16.116  0.0400  0.0290  0.0271
18293W        W34187   4.346   0.629  16.699 -0.3713  0.1879  0.0087
18294W        W34188   1.249   3.424  16.399  0.1705 -0.0391 -0.1553
18295W        W34189   6.932  12.811  14.917  0.1921 -0.4013 -0.2429
18296W        W34190   1.848  14.784   4.198  0.0793  0.0801 -0.1374
18297W        W34191   1.982   9.081   5.944  0.2052 -0.1174  0.1897
18298W        W34192   4.874   6.906  15.057  0.1681  0.2523 -0.0049
18299W        W34193  15.398   5.953  13.836 -0.0297  0.0489  0.2418
18300W        W34194   4.045   1.517  15.166 -0.0355 -0.0521  0.1643
18301W        W34195   3.817   2.871  15.181  0.0522 -0.0323 -0.0401
18302W        W34196   5.201  14.335  11.647 -0.2597  0.0868 -0.1578
18303W        W34197   0.137  12.585   2.228  0.1361 -0.0423 -0.0456
18304W        W34198   0.860  16.110  13.663  0.1549  0.0932  0.1524
18305W        W34199  15.616   8.051  15.148  0.0187 -0.0474 -0.3119
18306W        W34200  13.809   9.553  14.163 -0.3338  0.2284 -0.1333
18307W        W34201   6.818  12.103   4.087 -0.1915  0.0803  0.1132
18308W        W34202  13.909   7.534   0.381  0.0895 -0.4596  0.2219
18309W        W34203   3.243   1.741  16.236 -0.0140 -0.1086  0.0310
18310W        W34204  14.300   1.284   5.048  0.1594 -0.1125  0.0008
18311W        W34205   7.014  11.248   4.098 -0.0752 -0.1543  0.1468
18312W        W34206   4.210  10.777  14.238  0.0390 -0.0493 -0.0802
18313W        W34207   6.053  13.154   3.059 -0.1972  0.1846 -0.0783
18314W        W34208   9.249   7.774  13.010  0.0551 -0.3110 -0.0841
18315W        W34209   4.921  12.189  15.935  0.3688 -0.0384 -0.0962
18316W        W34210   5.521  14.580  13.783  0.1859 -0.1136 -0.0772
18317W        W34211  15.541   1.047   0.275  0.1789  0.1417 -0.0803
18318W        W34212  10.714  13.675   4.610 -0.1672 -0.0020  0.1782
18319W        W34213  11.995   9.777   5.068 -0.2455  0.0672 -0.0951
18320W        W34214  16.931   6.999  15.812  0.3360 -0.2282 -0.5386
18321W        W34215   6.816   4.271  14.585  0.0122 -0.0924 -0.0010
18322W        W34216   7.193  11.305  14.407 -0.0232  0.1461  0.0779
18323W        W34217   8.526  15.815   0.316 -0.0237 -0.4303  0.0397
18324W        W34218  15.183  15.109   2.960 -0.1558  0.0747 -0.0057
18325W        W34219   5.719  13.498   1.359 -0.0349  0.2124  0.0657
18326W        W34220   3.891   2.770   1.030  0.0807 -0.0446 -0.2084
18327W        W34221  15.279   1.756   3.582 -0.1959  0.0403  0.0332
18328W        W34222  17.372  13.115   6.581 -0.0146 -0.1244 -0.0965
18329W        W34223   7.296   3.291  12.134 -0.1500  0.0207 -0.2039
18330W        W34224   6.953   2.355   3.073 -0.2530 -0.1034 -0.1736
18331W        W34225  12.366   9.884  15.065  0.2168  0.2224 -0.0054
18332W        W34226   1.638  10.216  14.854 -0.0950 -0.0824  0.2992
18333W        W34227  14.121   3.492   1.653  0.0359  0.0269 -0.3259
18334W        W34228  17.128   5.139  13.467 -0.3120 -0.0471  0.0159
18335W        W34229  11.195  13.219  13.008  0.0452  0.1942 -0.0041
18336W        W34230  16.098   3.842  12.417  0.2470  0.1943  0.0456
18337W        W34231  12.701  10.662   5.132 -0.0676  0.2793 -0.0980
18338W        W34232  10.481   0.640   4.020  0.0906  0.1075 -0.2201
18339W        W34233   0.898   7.462   1.959  0.1349  0.0699  0.1056
18340W        W34234  16.832   8.454  14.198  0.4693 -0.1277 -0.1421
18341W        W34235  10.804   0.038  14.467 -0.0587  0.3362  0.0078
18342W        W34236   7.945   1.840  16.434 -0.3750  0.0675 -0.0745
18343W        W34237   3.640   9.367   0.751 -0.0135  0.0037  0.3714
18344W        W34238  10.314  10.522  14.188 -0.1055 -0.0607  0.0778
18345W        W34239  14.407  14.668  16.362 -0.3527 -0.0405 -0.0211
18346W        W34240  15.285   7.169  15.273 -0.3301  0.0577  0.1935
18347W        W34241   3.591   2.353  12.856 -0.0769 -0.1505  0.2696
18348W        W34242  17.613   6.744  12.624 -0.1332 -0.2939 -0.2086
18349W        W34243   6.822  11.934   1.491 -0.2096  0.0871  0.0420
18350W        W34244   4.886  10.720  15.182 -0.2513 -0.0835  0.2216
18351W        W34245   1.942   8.549  12.243  0.1909 -0.1618 -0.0227
18352W        W34246  13.221  14.076   5.837  0.4523  0.1544 -0.0108
18353W        W34247  14.945  16.118   3.738  0.1467 -0.1388  0.0568
18354W        W34248   3.724  10.696   2.250 -0.1335 -0.0676 -0.2517
18355W        W34249   1.194  12.665  13.772 -0.0902  0.2006 -0.2360
18356W        W34250   7.000  16.325   1.287 -0.0850 -0.1921  0.2663
18357W        W34251   9.072   6.818   5.799 -0.0435 -0.0848 -0.0959
18358W        W34252   3.247  15.397   5.421  0.1625 -0.1811  0.0038
18359W        W34253   4.343  14.176  16.293 -0.2500  0.0014  0.3659
18360W        W34254   1.547  12.102   2.353 -0.1263  0.1130  0.2052
18361W        W34255   3.454  17.409  14.029  0.0229 -0.0387  0.0972
18362W        W34256   8.022  16.584   5.527  0.2588  0.0633  0.0300
18363W        W34257   7.731   2.061   4.391  0.1661 -0.1931 -0.1032
18364W        W34258  14.941  15.969   4.228  0.0319 -0.1131 -0.0647
18365W        W34259   2.825   4.815   2.509 -0.0481 -0.0390 -0.1455
18366W        W34260  12.789  12.828   0.016 -0.1947 -0.1939  0.1312
18367W        W34261   7.702  14.203   0.430 -0.2698  0.0956 -0.1735
18368W        W34262   7.861   7.108   5.172 -0.0534 -0.0019  0.1941
18369W        W34263  10.612   5.863   1.907 -0.2064  0.1324  0.4285
18370W        W34264   4.671  16.597  14.297  0.0028  0.0117 -0.1251
18371W        W34265  13.908   5.202   5.446 -0.3611  0.2379 -0.0992
18372W        W34266   1.043  15.178   4.988  0.3399 -0.0420 -0.2029
18373W        W34267   3.997   6.910   6.833 -0.2507  0.1405 -0.0485
18374W        W34268   7.069  16.636   2.510 -0.0134 -0.2077  0.0720
18375W        W34269  15.822   8.972  15.425 -0.1217 -0.2644  0.1126
18376W        W34270   3.529   6.798   2.199 -0.0129 -0.1055 -0.2103
18377W        W34271   2.660  13.835   1.191  0.2281 -0.0993  0.0172
18378W        W34272   1.099  12.214  14.669 -0.0288 -0.0753 -0.2423
18379W        W34273  17.337  12.965   1.969 -0.2424 -0.1336  0.0569
18380W        W34274   6.682   1.611  13.478  0.1177 -0.1228 -0.3852
18381W        W34275   5.790   2.866  14.010  0.1118  0.0543 -0.1687
18382W        W34276   1.947  11.924   2.016  0.2775 -0.3439  0.3494
18383W        W34277  11.922  13.704  11.591 -0.0956 -0.0250  0.0099
18384W        W34278  11.732  10.367  12.310  0.2222 -0.3382  0.3046
18385W        W34279   0.863   1.050   1.608  0.0515 -0.0922 -0.1685
18386W        W34280  14.675   1.048  14.129  0.1091 -0.0687  0.1539
18387W        W34281   8.049  15.085  12.617 -0.1242 -0.0813 -0.0566
18388W        W34282   3.339  17.247   0.798 -0.1735  0.1699 -0.1564
18389W        W34283   6.605  10.746   5.146 -0.2041 -0.2090 -0.3131
18390W        W34284  15.808   7.665  12.544 -0.0018 -0.0719  0.1556
18391W        W34285  10.234   1.113  16.577 -0.1583 -0.0454  0.1196
18392W        W34286  11.986   5.196  14.574 -0.0671 -0.0675 -0.0567
18393W        W34287   0.277   7.266   4.130 -0.2779 -0.4921 -0.0876
18394W        W34288   7.487  17.268   0.400 -0.1165  0.2478  0.4454
18395W        W34289  17.362   0.315  16.260  0.2887 -0.2608 -0.0007
18396W        W34290  15.452   9.079   1.313 -0.2799  0.1474 -0.2868
18397W        W34291   7.998   2.239   3.539  0.1966 -0.0929 -0.0144
18398W        W34292  11.107  12.044  11.124  0.0068  0.0323  0.1983
18399W        W34293  16.798  12.846  14.613 -0.2170 -0.0755  0.2483
18400W        W34294   3.513   0.876   5.455  0.0703 -0.3041  0.0158
18401W        W34295   0.560   8.594   4.592  0.0918 -0.4448  0.2388
18402W        W34296  10.026  10.734   0.667 -0.0108  0.2330 -0.6582
18403W        W34297   3.978  12.204  15.717  0.0935 -0.0848  0.0795
18404W        W34298   7.232   6.925  14.973  0.0532  0.0559 -0.0657
18405W        W34299   9.455  12.037   4.340  0.1320  0.1074 -0.1688
18406W        W34300  13.333  14.420  13.605 -0.1577 -0.0963 -0.0037
18407W        W34301   5.138  14.788  14.208  0.1325  0.0478 -0.0669
18408W        W34302   4.815   6.113   1.761  0.1518  0.0248 -0.1386
18409W        W34303   8.162   6.562   1.097  0.3878  0.2207 -0.0704
18410W        W34304   3.919   5.981   1.789 -0.0811  0.1422 -0.2697
18411W        W34305  14.788   0.316  16.768 -0.1613  0.1437  0.1773
18412W        W34306  12.142  16.666  15.028  0.2796  0.0713  0.3429
18413W        W34307  11.184   2.523   4.419 -0.2597  0.2255 -0.0231
18414W        W34308  13.639   2.773  16.620  0.0758  0.1078 -0.0098
18415W        W34309   7.069   0.689   1.224 -0.1918 -0.0196  0.1567
18416W        W34310  15.652   6.609  14.553  0.2531 -0.5652 -0.3482
18417W        W34311   3.828   4.693   6.744  0.0084  0.1972  0.0567
18418W        W34312  15.681   4.999   3.570  0.1086  0.1029  0.1792
18419W        W34313   9.770   2.738   4.049 -0.0531 -0.0357 -0.2022
18420W        W34314   8.121   5.640  14.127 -0.1503  0.3741 -0.0304
18421W        W34315  17.378  15.742  12.328  0.0463 -0.1357 -0.0659
18422W        W34316  13.394   0.878  16.534 -0.1604  0.0093 -0.0047
18423W        W34317  16.286  15.564  12.750  0.3554 -0.0157  0.0347
18424W        W34318   2.804   8.166   1.112  0.2287 -0.1177  0.2065
18425W        W34319   5.573   2.943  15.202  0.3060  0.3805  0.2130
18426W        W34320   8.511   5.234   0.702  0.0261  0.0151 -0.0247
18427W        W34321   0.023   2.721   6.001 -0.2283 -0.0760 -0.3020
18428W        W34322   2.631   2.835   3.995 -0.0125 -0.1697  0.2074
18429W        W34323   1.365   9.622   0.499  0.0886 -0.0031  0.0103
18430W        W34324  16.620  10.528  12.434 -0.1196 -0.1674  0.0961
18431W        W34325   3.867   9.652   5.506 -0.0413 -0.0126  0.2093
18432W        W34326   5.274   1.546   1.301  0.0021  0.1428  0.1253
18433W        W34327   5.767  16.181   5.817 -0.1394 -0.0645 -0.1734
18434W        W34328   7.551   4.737  12.135  0.3213  0.0241 -0.0183
18435W        W34329  14.604  15.761  12.638 -0.0671  0.1021  0.2982
18436W        W34330   5.023  14.902  14.741 -0.0690 -0.0031  0.0241
18437W        W34331  14.297   5.446   3.742  0.1317  0.0536 -0.1694
18438W        W34332   0.139  13.801  12.102  0.1762 -0.0304  0.1353
18439W        W34333  12.892   6.013   5.204  0.2152  0.1257  0.2284
18440W        W34334  10.275  17.066   0.813 -0.1061 -0.4365 -0.0852
18441W        W34335   4.747  16.356   2.202 -0.4201 -0.2891  0.4147
18442W        W34336  17.522  13.899   2.588 -0.0788 -0.2084 -0.1823
18443W        W34337   4.825   0.506   1.454  0.3581 -0.3565  0.4375
18444W        W34338  12.490   2.355   2.078  0.0712  0.3416 -0.0095
18445W        W34339  16.301   4.450   4.667 -0.2400  0.1545 -0.0617
18446W        W34340   0.203  13.966   0.198  0.0160  0.0088  0.0761
18447W        W34341  14.818   3.115   2.697  0.0880  0.1211  0.0109
18448W        W34342  12.457   8.025  13.626 -0.0372  0.1471  0.1503
18449W        W34343  11.385   3.963   2.053  0.1106 -0.3384 -0.1826
18450W        W34344  10.013  15.258   1.183  0.1537 -0.0839  0.0460
18451W        W34345   1.964   4.628   0.597  0.1728 -0.1922 -0.1328
18452W        W34346  13.775   9.349  16.608 -0.1031 -0.2839  0.0899
18453W        W34347  13.508   3.703   2.260  0.0286 -0.0054  0.2642
18454W        W34348   9.714   2.442   6.395 -0.1748  0.1513 -0.0742
18455W        W34349   7.378  15.648  16.709 -0.1043 -0.3233 -0.1710
18456W        W34350   4.155  10.405  16.360 -0.0216 -0.1941 -0.3213
18457W        W34351  13.263   8.548   3.620  0.0595 -0.1484  0.1079
18458W        W34352   9.853   7.407   2.023  0.0421 -0.3183 -0.0857
18459W        W34353   9.820   6.288  13.019  0.3976 -0.2138 -0.1199
18460W        W34354   8.364  17.163  16.478 -0.1516 -0.1026  0.0540
18461W        W34355   2.559  16.021   6.032 -0.1766 -0.0630 -0.0822
18462W        W34356  11.851   4.893  15.714  0.0503  0.1358  0.1393
18463W        W34357  15.411  12.244   4.968  0.1186  0.0065  0.0563
18464W        W34358   7.650   3.156   0.919 -0.4647  0.4516 -0.3029
18465W        W34359   2.333   7.632   2.254 -0.0495  0.0834  0.1321
18466W        W34360   9.471  13.656  12.176 -0.1503 -0.0560  0.2514
18467W        W34361   3.279  17.085  14.354  0.2598 -0.2183  0.1752
18468W        W34362  12.576   7.963   3.279 -0.0530  0.0066 -0.0807
18469W        W34363   3.252   4.926  17.005 -0.0095 -0.0567 -0.0748
18470W        W34364   0.407   2.391  14.383 -0.0233 -0.0846 -0.2559
18471W        W34365  11.253   4.488  16.428  0.0615  0.1580  0.1661
18472W        W34366   1.492  15.040   4.962  0.1041  0.2160 -0.2208
18473W        W34367   7.639   9.682  17.272 -0.1616 -0.0182  0.0545
18474W        W34368   6.659   5.252  13.811  0.0822  0.0538 -0.0529
18475W        W34369  16.770   7.585   3.969 -0.1836 -0.1115  0.2981
18476W        W34370  14.840   4.547   1.174  0.1367  0.0398  0.2663
18477W        W34371   7.566   6.156  16.811  0.0307 -0.0446 -0.0020
18478W        W34372   2.551   8.279  16.128 -0.1887 -0.0341 -0.0711
18479W        W34373   3.295  10.607   0.576  0.1110  0.3159 -0.1722
18480W        W34374  14.036   6.704  14.189  0.3483  0.1213  0.0801
18481W        W34375   3.551   4.788   0.630  0.0140  0.1202 -0.0753
18482W        W34376  10.222   6.253  15.402  0.0330  0.0680 -0.0863
18483W        W34377  14.326  11.416  16.936  0.0566 -0.1045 -0.0809
18484W        W34378   1.598  10.074   2.595  0.0603 -0.1318 -0.0269
18485W        W34379   1.526   1.785  12.048  0.1794 -0.3166 -0.2306
18486W        W34380   8.635   6.216  14.574 -0.0682  0.2142 -0.1059
18487W        W34381  11.771   1.890  15.460  0.0336 -0.2530 -0.0038
18488W        W34382  10.465  15.065  14.437  0.0400 -0.0864  0.0894
18489W        W34383   1.790  17.628  16.999 -0.2971  0.1097  0.0953
18490W        W34384  11.364   8.773   5.038 -0.3440 -0.4046  0.3552
18491W        W34385  10.485   7.450  12.867  0.1689  0.0498 -0.1397
18492W        W34386   1.045  16.419  14.883 -0.2376 -0.1519  0.2060
18493W        W34387  16.119   6.456  12.970 -0.2458  0.1179  0.0234
18494W        W34388  11.880  17.543  16.527  0.2122  0.0610 -0.0436
18495W        W34389  11.467  13.843  12.407  0.1729 -0.3560 -0.2750
18496W        W34390   1.003   4.767  13.161  0.2576  0.4855  0.2774
18497W        W34391   7.217  14.622  16.936  0.1026  0.0047  0.3110
18498W        W34392   4.230   3.798   1.600  0.1315 -0.1534  0.1387
18499W        W34393  15.222   1.140  12.535  0.3445  0.1442  0.1668
18500W        W34394  15.880   0.331   3.083 -0.1384 -0.1186 -0.1487
18501W        W34395  17.065  14.015  13.938  0.1990 -0.3958 -0.0427
18502W        W34396   3.328  13.519   1.864  0.3550 -0.2056  0.0650
18503W        W34397  12.604  15.497   2.760  0.1720 -0.1117 -0.2015
18504W        W34398   7.973   0.819  15.790  0.2017  0.0952 -0.0099
18505W        W34399  16.021  10.313  12.693  0.0571  0.0012  0.1072
18506W        W34400  11.555   7.374  14.980  0.0582 -0.1482  0.1369
18507W        W34401  14.099   2.541   1.986  0.1004 -0.2261  0.0913
18508W        W34402   5.172  17.417   6.104  0.1157  0.0583  0.0072
18509W        W34403   7.755   1.505  15.253 -0.0591 -0.1005 -0.0646
18510W        W34404  11.147   7.963  12.324 -0.1208 -0.0752 -0.1933
18511W        W34405  12.061   1.169   2.089 -0.0918 -0.0576 -0.0075
18512W        W34406   4.461   0.753   5.657  0.0918 -0.2894 -0.2587
18513W        W34407  16.601  15.829   0.804 -0.2460  0.0135 -0.0303
18514W        W34408   6.775  11.147  14.975 -0.0375 -0.0952 -0.1271
18515W        W34409   5.996  11.897   2.634 -0.0297 -0.1823 -0.1573
18516W        W34410  16.289   2.985   4.822  0.0613 -0.0730  0.1710
18517W        W34411   1.257   8.450   3.117  0.0235 -0.2171 -0.1847
18518W        W34412   6.370   8.750  17.202 -0.0482 -0.1010 -0.0234
18519W        W34413  14.473   6.512  15.379 -0.0059 -0.0055 -0.1628
18520W        W34414  17.234  11.651   2.430  0.0637 -0.1861  0.1137
18521W        W34415   2.387   4.727  15.319  0.1477 -0.1193  0.4316
18522W        W34416  13.560   2.038   0.290 -0.1968 -0.1101 -0.0922
18523W        W34417   2.221   7.878  13.141  0.1933 -0.1482  0.0268
18524W        W34418  16.676  10.042   5.114  0.1365 -0.2106  0.1254
18525W        W34419   5.704   2.031  11.771  0.0835  0.0741  0.2123
18526W        W34420  15.858  12.988   1.525 -0.2778  0.0956 -0.0213
18527W        W34421  13.824   5.912  15.808 -0.0378  0.0805 -0.1313
18528W        W34422  13.804   7.195  13.909 -0.3289 -0.1831 -0.2000
18529W        W34423  12.789  11.917   1.923 -0.3635  0.2609  0.3421
18530W        W34424   3.850   7.746   3.442  0.3385  0.0790  0.1272
18531W        W34425   9.728   5.652  11.565  0.1403 -0.0928 -0.1760
18532W        W34426  10.991   4.305   5.597  0.0790 -0.0642 -0.3658
18533W        W34427   1.646   5.953  15.235  0.0037 -0.2114  0.1903
18534W        W34428   1.379   8.215  13.245 -0.3563 -0.1659  0.2433
18535W        W34429   9.732  16.816   4.273  0.3383  0.0029  0.0753
18536W        W34430  15.433   0.484   3.150  0.1631  0.2198 -0.0221
18537W        W34431   5.921  15.715   3.477  0.0146  0.0613 -0.4063
18538W        W34432  13.662   3.830   1.447 -0.3700  0.0703 -0.3034
18539W        W34433  17.219  13.574  14.109  0.0228 -0.1901  0.0837
18540W        W34434   1.872   9.551  13.549 -0.0599  0.1625 -0.0355
18541W        W34435  12.999   2.732   1.352 -0.0303 -0.0512 -0.0358
18542W        W34436  12.549   9.125  17.196  0.0225 -0.1101 -0.1177
18543W        W34437  15.387   6.646   3.470  0.0672 -0.0814  0.0431
18544W        W34438  12.646  11.293   2.456  0.1988  0.0896  0.0064
18545W        W34439   7.163  11.505   3.342  0.0467  0.0761  0.3313
18546W        W34440  15.609   5.741  14.857 -0.1923 -0.0363  0.0210
18547W        W34441   6.412   5.193  13.339 -0.1739  0.3358 -0.0688
18548W        W34442  15.682  16.238   5.552 -0.0651 -0.0698  0.2077
18549W        W34443  10.465   4.392  15.421 -0.2487  0.1652 -0.0452
18550W        W34444   1.051   2.381  14.428 -0.5599  0.0051  0.2202
18551W        W34445   4.243  15.033   3.438  0.0631  0.0333  0.0626
18552W        W34446  13.209  12.715   0.895  0.1117 -0.0643 -0.3009
18553W        W34447   9.334   9.463  12.656 -0.3839  0.0353  0.0230
18554W        W34448   7.886   0.125  14.612  0.0615 -0.0365 -0.4832
18555W        W34449   1.612   4.807   5.747  0.1069  0.2569  0.0811
18556W        W34450  17.550  10.015  13.702  0.1946  0.0571  0.3089
18557W        W34451   3.853   8.397  15.922 -0.0012 -0.0809  0.0022
18558W        W34452   5.853   9.368   0.957 -0.1591  0.0607 -0.0356
18559W        W34453   0.114  12.197   4.669 -0.0657 -0.0493  0.0254
18560W        W34454   8.843   0.099   4.296  0.1554  0.1224 -0.0530
18561W        W34455  12.520   9.911   2.390 -0.0910 -0.1633 -0.2476
18562W        W34456   9.688  16.154  16.824  0.0041 -0.1580  0.2663
18563W        W34457   5.637  11.223   1.345 -0.0763 -0.0343 -0.2147
18564W        W34458   0.037  14.537   2.575  0.0755 -0.0811 -0.1282
18565W        W34459   0.557  12.929   2.286 -0.0894 -0.0473 -0.0212
18566W        W34460  12.736  10.093  14.241 -0.1284 -0.0142  0.2983
18567W        W34461   8.458  11.797  11.884 -0.1769 -0.0236  0.1685
18568W        W34462  13.538   0.446   4.672  0.0116 -0.1293 -0.0840
18569W        W34463  15.710  15.642  16.742 -0.1010  0.1960 -0.0554
18570W        W34464  11.522  14.618  12.995  0.0247 -0.0263  0.1287
18571W        W34465   1.126  16.397   4.026 -0.1447  0.0526 -0.2045
18572W        W34466  11.062   2.973   1.535  0.1263 -0.2471  0.3163
18573W        W34467   0.968   4.121  15.791  0.2925  0.0157 -0.0831
18574W        W34468   3.323  17.494   5.417 -0.0798 -0.2963 -0.0506
18575W        W34469  16.053   9.846  15.645 -0.2825 -0.0527 -0.3223
18576W        W34470   7.974  13.327   1.112  0.2680  0.0812 -0.1175
18577W        W34471  14.658  16.560  12.003  0.0722  0.3075  0.0872
18578W        W34472  15.876   7.553   5.612  0.0135 -0.1021  0.0952
18579W        W34473  12.433  16.492  14.270  0.2438 -0.0073 -0.3494
18580W        W34474   4.346   8.796  14.412 -0.1173  0.0766 -0.3995
18581W        W34475   6.926  16.056   5.019  0.0780  0.0710  0.1899
18582W        W34476   6.431  13.838   1.910  0.1129 -0.0024 -0.0032
18583W        W34477   1.047   7.872   5.222  0.0887 -0.0550 -0.1572
18584W        W34478   9.434   4.561  12.587 -0.2946 -0.1519 -0.2686
18585W        W34479   5.154  14.033   3.169  0.0102  0.1151 -0.2063
18586W        W34480   8.794   9.443   5.220  0.1244 -0.1968  0.1143
18587W        W34481   3.122   7.179   2.902 -0.2667  0.3827  0.0552
18588W        W34482   5.889  11.849   4.365  0.1785 -0.0025  0.0461
18589W        W34483  13.230  17.365  13.651 -0.2175 -0.1684  0.0367
18590W        W34484  12.462  15.037   5.135 -0.0582  0.0246  0.1346
18591W        W34485   9.766  16.974  15.839  0.2486 -0.1639 -0.1800
18592W        W34486   1.541  13.424   2.234  0.0929  0.0394 -0.1088
18593W        W34487   8.218   3.799   3.465  0.2147  0.0151 -0.0748
18594W        W34488  11.617   4.806  16.612 -0.1848 -0.0274 -0.0143
18595W        W34489   4.255  13.491   2.726  0.2266 -0.1471 -0.1582
18596W        W34490   8.779   1.545  12.534 -0.1550  0.0475  0.0408
18597W        W34491  12.901  14.152  13.607 -0.0342  0.0532  0.1116
18598W        W34492   2.759  14.918   6.746  0.1467  0.0826  0.2147
18599W        W34493   5.988   9.133   4.638  0.2633 -0.0125  0.3379
18600W        W34494  15.848   1.748   2.873 -0.1887  0.0338  0.1912
18601W        W34495  15.859   2.685  11.930  0.1437  0.0777  0.0190
18602W        W34496  12.780  17.227   0.833  0.1273  0.2962  0.0128
18603W        W34497   2.679  12.358   4.393  0.0482  0.1218 -0.0749
18604W        W34498   7.677   8.693  15.626 -0.0034 -0.0476  0.1600
18605W        W34499  12.278   2.296  13.757 -0.0859  0.0490  0.1300
18606W        W34500   6.930   3.765   3.374 -0.3599  0.0753  0.0199
18607W        W34501  17.585  15.501  16.321 -0.0768 -0.0135  0.4481
18608W        W34502   9.553  14.503  12.921  0.1297  0.0457  0.1716
18609W        W34503  12.200   0.455  13.026 -0.1644 -0.1156 -0.3022
18610W        W34504   4.508  15.534   0.360 -0.0648  0.0497  0.1072
18611W        W34505  10.243   9.919  14.262 -0.0718 -0.1662  0.2473
18612W        W34506   4.922  15.736  14.664  0.1788 -0.2688 -0.1923
18613W        W34507   6.380   6.403  15.205  0.0294  0.1235 -0.0121
18614W        W34508  11.888   1.183   5.272 -0.0506  0.0717 -0.0378
18615W        W34509   7.112  12.752  16.105 -0.0209  0.2708 -0.2159
18616W        W34510  15.549  14.667  12.990 -0.0558  0.2237  0.2530
18617W        W34511  13.197   0.266   3.375  0.0664 -0.0218  0.3527
18618W        W34512  14.632   0.438  15.890  0.1414  0.0690  0.2769
18619W        W34513  12.118  14.391  14.448 -0.1509 -0.0211  0.0704
18620W        W34514   7.944  12.785  12.758  0.0847  0.7242 -0.2023
18621W        W34515  15.151  10.058   2.985  0.1966 -0.3929  0.1767
18622W        W34516  15.342   5.199   1.263  0.0475  0.0920 -0.0060
18623W        W34517  15.274  15.517  14.611  0.0462 -0.0058  0.0449
18624W        W34518  16.624  17.079  13.603 -0.3782 -0.1579 -0.0728
18625W        W34519   4.451   3.387   5.887 -0.1528  0.2895  0.0520
18626W        W34520   4.377   1.228  14.694 -0.2450 -0.4099  0.0665
18627W        W34521  11.596   3.440   3.690 -0.2216 -0.3592  0.1327
18628W        W34522   5.666  10.913  13.194  0.2003  0.1976 -0.0578
18629W        W34523  11.611   2.032  10.875 -0.0818 -0.0610  0.0110
18630W        W34524  14.768   2.433  13.374 -0.0641  0.3278 -0.1476
18631W        W34525  14.241  10.326   2.608 -0.2016  0.1698 -0.0940
18632W        W34526  15.879   0.198   4.819  0.1643  0.1119  0.2509
18633W        W34527   3.906   0.278  14.495 -0.1235 -0.2229 -0.0534
18634W        W34528   8.744  14.057  16.196 -0.0461 -0.0248  0.0539
18635W        W34529   9.920   7.874  12.258  0.0167 -0.3284 -0.0042
18636W        W34530   4.635  17.251   3.262 -0.1602 -0.0599 -0.1544
18637W        W34531   9.123   9.825   3.483 -0.2998 -0.0489 -0.0521
18638W        W34532  15.043   4.620   3.398 -0.1403  0.1824  0.2400
18639W        W34533   8.022   3.515  12.979 -0.4136 -0.0672 -0.3495
18640W        W34534  13.693  14.129   0.990  0.1439 -0.2255 -0.0109
18641W        W34535  11.768  17.479  14.365  0.0739 -0.3499 -0.0489
18642W        W34536   2.358   5.162   5.096 -0.0181 -0.3953 -0.1458
18643W        W34537   2.014   6.625   6.257  0.1086  0.0947 -0.2342
18644W        W34538  15.136  13.151   3.373  0.0786 -0.0163  0.1943
18645W        W34539  13.584  16.001   2.502 -0.1340 -0.1516 -0.2804
18646W        W34540  14.097  12.390   2.375  0.1185 -0.0936  0.1428
18647W        W34541  12.275  15.789  16.553  0.0075  0.0570 -0.2492
18648W        W34542  11.402  13.307   0.912  0.0222  0.0894 -0.0413
18649W        W34543  14.077   2.966  14.774  0.0287 -0.0602 -0.3212
18650W        W34544  13.678   3.991  15.516 -0.0197  0.2748  0.0885
18651W        W34545   8.894   5.179  14.638  0.0568  0.0050 -0.0582
18652W        W34546  11.903  14.554   0.765  0.1982 -0.3426 -0.2921
18653W        W34547   2.961   8.862   4.538  0.2033  0.0273 -0.1919
18654W        W34548  13.144  16.094   0.768 -0.1615 -0.2444  0.0284
18655W        W34549   2.312  12.225   3.174  0.2900 -0.1354  0.1784
18656W        W34550   3.536  14.689   4.718  0.0258  0.3127 -0.1381
18657W        W34551   3.000  16.537  15.119 -0.2475  0.2345  0.3570
18658W        W34552   9.810   7.184   5.543 -0.0536  0.0365 -0.1698
18659W        W34553  12.666   3.175  16.365 -0.1195 -0.0875  0.0357
18660W        W34554   1.024  15.705   2.197  0.1680 -0.1828  0.0870
18661W        W34555  15.906   6.025  14.003  0.1105 -0.0803  0.2127
18662W        W34556   8.837  16.832   4.903  0.0668 -0.1128  0.1154
18663W        W34557  11.750  10.909  14.808 -0.0460 -0.0912  0.0425
18664W        W34558   7.494  10.346  13.941  0.0671 -0.1637 -0.1531
18665W        W34559   8.809   5.718  15.375  0.3256  0.4460 -0.0394
18666W        W34560  16.472  12.813  13.463 -0.0962 -0.2750 -0.2763
18667W        W34561  11.770   9.254   4.250 -0.0852  0.0932 -0.0658
18668W        W34562   5.371   4.459  12.028 -0.1246  0.1047 -0.1318
18669W        W34563  13.338  13.426   6.345  0.1616  0.0369  0.1628
18670W        W34564  10.194   7.763   2.100 -0.1554 -0.0666 -0.1351
18671W        W34565  17.064   6.136   0.714 -0.3213  0.1758  0.0777
18672W        W34566  16.296   7.258  16.239 -0.1487 -0.2128 -0.2377
18673W        W34567   6.925   3.830   2.552  0.0231 -0.0204 -0.2796
18674W        W34568  13.394   4.757  14.865  0.1646 -0.0283 -0.0517
18675W        W34569  16.107  12.524   1.464  0.3072 -0.1782 -0.0870
18676W        W34570  15.947   4.944   4.576  0.3741  0.1922 -0.0401
18677W        W34571  15.453   3.028  11.959 -0.1058 -0.2244  0.0786
18678W        W34572  14.441  15.048   0.252  0.1065  0.2239 -0.2378
18679W        W34573   3.073  10.829  12.032  0.0120  0.2807 -0.1298
18680W        W34574   8.075  17.387   0.095  0.2277  0.2057  0.2341
18681W        W34575  16.201  12.339  14.674 -0.0067  0.1041  0.0339
18682W        W34576  13.784   6.220  16.430  0.0562  0.4157 -0.0391
18683W        W34577  14.023   7.294   1.210 -0.3691  0.2738 -0.2041
18684W        W34578  11.940  12.692  14.185 -0.1664  0.4421 -0.0012
18685W        W34579   4.897   4.613   0.249 -0.2836  0.2516  0.1103
18686W        W34580  13.051   7.775  14.250 -0.1186 -0.0284 -0.3772
18687W        W34581   9.610  14.745   2.006 -0.1985 -0.2524  0.1569
18688W        W34582  16.025  12.533  14.299  0.1040 -0.0981  0.1909
18689W        W34583  13.151  11.064   3.941  0.0070  0.1346 -0.1334
18690W        W34584  17.087   5.258  12.131 -0.1996  0.3132 -0.0920
18691W        W34585   6.609   1.405   0.919 -0.4416 -0.1806  0.0109
18692W        W34586  14.585   6.751   3.856 -0.0084 -0.0773  0.0293
18693W        W34587   2.258  11.403   5.401 -0.0942 -0.3370 -0.3245
18694W        W34588   3.172  13.886  16.772  0.0550  0.1464  0.2311
18695W        W34589   0.838  10.762   1.501  0.1090  0.1062 -0.2870
18696W        W34590  13.109   6.373   0.025  0.1968 -0.1579 -0.2288
18697W        W34591   1.712   4.590   4.259  0.1267  0.1147 -0.0076
18698W        W34592  11.458   6.515   3.623  0.0024 -0.1494  0.0325
18699W        W34593  13.787  12.374   1.767  0.3090 -0.0958  0.0784
18700W        W34594  16.366  16.597   4.421  0.1410 -0.0996 -0.2238
18701W        W34595   5.401   3.036   5.372  0.0926  0.1904 -0.1389
18702W        W34596   3.272   6.500   5.982 -0.0761  0.3168  0.2146
18703W        W34597   0.005   8.058  14.457  0.2468  0.0204  0.1358
18704W        W34598  14.634  11.738   1.735  0.0333  0.0369  0.0042
18705W        W34599   0.587   2.752  15.997 -0.1334  0.0303 -0.2945
18706W        W34600  11.762   2.484   1.530 -0.1278 -0.3765  0.2003
18707W        W34601  15.293   7.767   5.206 -0.0203 -0.1853 -0.0631
18708W        W34602   0.304   4.406   5.273  0.2600 -0.1013  0.1331
18709W        W34603   8.669   5.985   2.533 -0.0339  0.0142 -0.0590
18710W        W34604   6.494  10.821  12.348  0.2413 -0.3484 -0.0491
18711W        W34605   7.740  12.591   5.274  0.1063  0.0053  0.0179
18712W        W34606   9.966  10.185  11.242 -0.0677  0.1047  0.1213
18713W        W34607  17.249   6.014   3.874  0.1011 -0.1661  0.0706
18714W        W34608  12.251   0.779   1.255 -0.0821 -0.1099 -0.0706
18715W        W34609  11.588  16.258   1.758 -0.0291 -0.0810 -0.1742
18716W        W34610  10.202   2.661  14.219 -0.1458  0.1539  0.3313
18717W        W34611  13.330   2.708  11.817  0.2102  0.0641  0.0741
18718W        W34612  13.354   6.748   1.779  0.1857 -0.0591  0.2648
18719W        W34613  12.091   6.069  11.817  0.1791 -0.3329 -0.1295
18720W        W34614   5.930  14.004   5.542 -0.2714 -0.1687  0.1513
18721W        W34615  11.543   7.744   2.038  0.1564 -0.0494 -0.0147
18722W        W34616   0.180   8.379   4.073 -0.1171  0.1242 -0.2217
18723W        W34617   3.547   6.204   3.806  0.2421  0.1113  0.0924
18724W        W34618   3.359   5.402   6.017 -0.1501 -0.0393  0.2810
18725W        W34619   8.722   4.961   1.058  0.0306 -0.0201 -0.0237
18726W        W34620   8.794  15.523   3.155 -0.0206  0.1534 -0.0584
18727W        W34621   4.937  15.794   1.074 -0.1339  0.1066 -0.1226
18728W        W34622  11.744  13.690   5.852 -0.1594 -0.0660  0.1437
18729W        W34623   9.794   3.295   4.513 -0.1781  0.0681  0.0559
18730W        W34624  17.156  13.871   2.243 -0.2605  0.0983 -0.4097
18731W        W34625  16.566   5.905   1.859  0.2242  0.1128 -0.2625
18732W        W34626  14.726   1.484  16.930 -0.2024  0.0581  0.1390
18733W        W34627   5.400   5.585   2.818 -0.0904 -0.3183 -0.5659
18734W        W34628   2.975   2.405   0.708  0.1705 -0.0814 -0.0686
18735W        W34629  12.800  14.209   3.864  0.1021  0.3182  0.1696
18736W        W34630  15.516  17.595   3.995  0.0804  0.0526  0.2883
18737W        W34631   6.442   1.613   5.465  0.1431 -0.1762  0.2020
18738W        W34632   9.376   9.235   1.418 -0.1287  0.0037  0.3717
18739W        W34633   5.794   1.945  14.449 -0.0698 -0.3335  0.0410
18740W        W34634   0.849   7.054   3.795  0.4013  0.0363  0.1219
18741W        W34635  15.051  13.518  11.717 -0.0288 -0.2423  0.2559
18742W        W34636   0.443  14.608  11.972  0.3994 -0.0793  0.1788
18743W        W34637   5.623   5.040  16.649  0.1702  0.0927  0.0891
18744W        W34638   2.502  14.153  15.752  0.0313  0.0838 -0.0415
18745W        W34639   7.151   7.765  11.476 -0.1965  0.2302 -0.2780
18746W        W34640  10.421   6.899   2.958 -0.1109 -0.2073 -0.1885
18747W        W34641   4.369   5.950   1.548 -0.0616 -0.1213 -0.1973
18748W        W34642  11.470  10.014  11.207  0.0476 -0.0616  0.0403
18749W        W34643  15.383   4.280   4.644  0.0497  0.2762 -0.0924
18750W        W34644  11.060   0.115   6.228  0.1225  0.0693 -0.2244
18751W        W34645  12.927   6.779  13.111 -0.0195 -0.2616 -0.0771
18752W        W34646   7.682  13.484   1.581  0.0515  0.0413 -0.3321
18753W        W34647   7.123   6.552  15.545 -0.2630  0.1116  0.0658
18754W        W34648  15.887  15.988  12.404 -0.3654  0.0923  0.2277
18755W        W34649  12.989  11.127  12.563  0.1742  0.1266  0.1486
18756W        W34650  10.216  15.266  14.831  0.1087 -0.2166  0.3495
18757W        W34651   3.381   4.652   6.451  0.1384  0.4138  0.1458
18758W        W34652   8.719   9.749  14.131  0.0648 -0.0361 -0.0499
18759W        W34653   1.877  15.022   5.304  0.0409 -0.1583 -0.0930
18760W        W34654   0.627  13.492  13.620 -0.1992 -0.0295  0.0171
18761W        W34655  12.279   7.649   3.497  0.0972 -0.0591  0.1511
18762W        W34656  16.331  17.515  15.766  0.3829 -0.1669  0.0962
18763W        W34657  14.085  11.563   1.552  0.1520 -0.0279 -0.0290
18764W        W34658  13.003  14.696  13.820  0.0793 -0.1038  0.1739
18765W        W34659   6.636   4.252   2.639 -0.1647 -0.0017 -0.1219
18766W        W34660  15.178  15.884   0.394 -0.2259 -0.0564  0.0856
18767W        W34661  16.279   4.096  11.999 -0.1073  0.1075 -0.2070
18768W        W34662   9.812   5.136  13.286  0.0311  0.2822  0.2312
18769W        W34663   7.068   0.481  16.860  0.0646  0.0097  0.1619
18770W        W34664  12.268   2.230   3.616 -0.0540 -0.0443  0.0707
18771W        W34665   4.338  13.224   1.764 -0.2625 -0.0651  0.1574
18772W        W34666   8.367   4.964   5.939 -0.3360  0.1940 -0.0761
18773W        W34667  13.613   9.220  15.056  0.1734  0.0060  0.2547
18774W        W34668  14.000   5.794  15.308  0.0831 -0.0998 -0.2686
18775W        W34669   7.726   7.261   4.052 -0.0197 -0.0146 -0.0079
18776W        W34670   9.311  13.485   3.723 -0.1770 -0.0948 -0.1406
18777W        W34671   0.480   4.086  12.176  0.3430 -0.2495 -0.3815
18778W        W34672  14.760   1.211  11.792 -0.1784 -0.1496 -0.1928
18779W        W34673   1.081  11.333   4.024 -0.0025  0.0230 -0.1650
18780W        W34674  16.642   5.583   2.475 -0.2392  0.0916 -0.0678
18781W        W34675   2.900   4.872   1.974 -0.0013  0.1008  0.1108
18782W        W34676  11.022   1.973   5.923 -0.0523 -0.1873 -0.0505
18783W        W34677   9.688  16.820  13.821 -0.1410 -0.2903  0.1270
18784W        W34678  12.926   9.426   3.136  0.1113  0.0549 -0.2210
18785W        W34679   3.177   5.809   3.039  0.2384 -0.1074  0.0033
18786W        W34680  11.817   0.450   1.373  0.1282  0.0951  0.0068
18787W        W34681   1.702   0.988  12.340  0.3275  0.1748  0.0727
18788W        W34682   9.959   0.470   5.285  0.1908  0.3867  0.2239
18789W        W34683  12.926  17.600  13.345  0.0160 -0.0703  0.0705
18790W        W34684  16.790   6.938   5.601  0.2887 -0.1937  0.0234
18791W        W34685   0.589   1.654  17.185 -0.2537 -0.3084 -0.0827
18792W        W34686  15.793  16.103  15.804  0.0654  0.3354  0.1733
18793W        W34687   9.278   8.887   0.057 -0.1742  0.1408  0.1266
18794W        W34688   1.217   4.637   1.030 -0.0708 -0.1541  0.0758
18795W        W34689  15.493   0.477   6.443  0.0724  0.0012  0.0667
18796W        W34690  14.441   8.551   1.785  0.2357  0.0394 -0.1102
18797W        W34691   3.259  13.790  12.426 -0.0837  0.1155  0.0095
18798W        W34692  12.064   9.301  16.611  0.2208 -0.0075 -0.2271
18799W        W34693   7.233  16.389  17.257  0.1204 -0.0207  0.0446
18800W        W34694   6.038   8.835   6.259 -0.0375 -0.2062 -0.2570
18801W        W34695  16.166  10.940   5.960 -0.1760 -0.0313 -0.0128
18802W        W34696   4.035  14.711  14.393 -0.1525 -0.2627 -0.0029
18803W        W34697  13.416   2.190   4.863 -0.0815  0.0705 -0.1181
18804W        W34698   1.866  16.471   2.881 -0.4756  0.0162  0.0185
18805W        W34699  17.617   3.970   5.901 -0.1837  0.3164  0.1248
18806W        W34700   7.336  16.428  13.026  0.2576  0.1410  0.0026
18807W        W34701   1.464   7.468   3.232  0.1720 -0.0308 -0.0201
18808W        W34702   3.218  14.147   0.758 -0.1117 -0.1038 -0.1099
18809W        W34703  10.087  13.314  12.019 -0.1761 -0.4393 -0.0162
18810W        W34704   4.665  12.423  12.631  0.3405  0.1760 -0.0266
18811W        W34705  16.991   2.397  17.044 -0.1334  0.2057  0.1332
18812W        W34706   8.126  16.575  14.189 -0.1978 -0.0918 -0.0070
18813W        W34707  13.537   6.779   4.959  0.0697 -0.0094 -0.1460
18814W        W34708   6.024   8.383   5.298 -0.2429  0.1515 -0.2872
18815W        W34709   2.881  16.284   1.330  0.0566 -0.4894  0.0902
18816W        W34710  10.710   7.824  16.982 -0.2968 -0.1993 -0.1872
18817W        W34711   6.640   8.052   0.506  0.2192 -0.4030  0.0879
18818W        W34712  14.668  12.553  11.370 -0.1437 -0.1607  0.2362
18819W        W34713  12.192  13.887   4.654 -0.1842 -0.3478 -0.0445
18820W        W34714  13.948  10.527  15.426  0.0326  0.0263 -0.2799
18821W        W34715  12.108   2.355  14.881 -0.2657 -0.0563  0.0822
18822W        W34716  16.507   6.955  13.666 -0.1476 -0.1531 -0.0864
18823W        W34717  16.633   9.886   6.499 -0.0106  0.0383 -0.0243
18824W        W34718   3.694  10.199   2.071  0.2220  0.1043  0.2978
18825W        W34719   6.302   0.263  17.139  0.0020 -0.0681  0.2503
18826W        W34720   2.000  17.177  15.613  0.1708  0.0361  0.4408
18827W        W34721  12.045   5.842  13.531  0.2466 -0.0406  0.3905
18828W        W34722   4.369  15.443   2.115 -0.2129 -0.1450  0.0300
18829W        W34723  14.174   4.410   3.652 -0.0404  0.0378 -0.1580
18830W        W34724   6.157   1.096  15.651 -0.3059 -0.1179 -0.0179
18831W        W34725   2.837   6.519  14.969  0.1409  0.1094 -0.0522
18832W        W34726   8.560   3.206   3.388  0.1112  0.3732 -0.0218
18833W        W34727  13.653   2.335  12.581  0.0688 -0.1106  0.1087
18834W        W34728  11.251   3.817   2.967 -0.0935  0.0081 -0.3028
18835W        W34729   4.012  12.034  16.325 -0.0667  0.1783 -0.0345
18836W        W34730  17.615   3.278   2.925 -0.2759 -0.1093  0.0796
18837W        W34731  15.918  12.781   4.249  0.0943 -0.2905 -0.0651
18838W        W34732   1.152  12.553  13.268  0.0357  0.2030 -0.1214
18839W        W34733  10.565   4.528   5.475  0.0692 -0.2521  0.0874
18840W        W34734   6.056  10.482  15.447  0.1322  0.2029 -0.2276
18841W        W34735  14.640   4.357   0.201  0.1063  0.0169  0.1743
18842W        W34736   0.687  16.087  13.194 -0.3896 -0.0201 -0.1395
18843W        W34737   0.672  10.407   5.515 -0.2228 -0.1555 -0.1235
18844W        W34738   4.224   8.383  14.721  0.0288  0.0333  0.0618
18845W        W34739  14.760   5.892   3.459 -0.1333  0.1076  0.1111
18846W        W34740  16.151   4.785   5.059 -0.1015 -0.0924  0.2939
18847W        W34741   8.905   7.882   4.353 -0.1355 -0.0533  0.0254
18848W        W34742  13.305  10.373  13.717  0.0502 -0.1105 -0.1160
18849W        W34743  16.737  11.260   4.281  0.1603  0.0238  0.0103
18850W        W34744  12.727  14.853  14.989 -0.1330  0.0269 -0.1791
18851W        W34745   0.180  11.251  16.115 -0.0969 -0.0414 -0.3090
18852W        W34746   4.117   7.165  16.862  0.2209 -0.1408  0.0076
18853W        W34747   6.985   3.596  12.576  0.0049  0.1288  0.2235
18854W        W34748  13.726  10.449   2.523 -0.0942  0.1033  0.0151
18855W        W34749  15.413   8.614   4.226  0.1415 -0.0067 -0.2795
18856W        W34750  11.015  13.880  12.265  0.0479  0.1377  0.1854
18857W        W34751   9.169  16.600  14.508 -0.2779 -0.2024  0.1059
18858W        W34752   2.857   3.509   3.276  0.2299 -0.3623  0.2440
18859W        W34753   4.594  14.717  13.727 -0.0598 -0.3582  0.1057
18860W        W34754   6.602  13.753  15.915 -0.0187 -0.2204  0.0324
18861W        W34755  15.058   9.358   4.691  0.1252 -0.2287 -0.0783
18862W        W34756   3.402  12.762  12.268 -0.0483  0.2472  0.2306
18863W        W34757   4.491   6.878   3.179  0.2419  0.0796 -0.0593
18864W        W34758  13.428   0.583   3.707 -0.2428  0.1290  0.2403
18865W        W34759   9.553   6.777  12.688  0.0711  0.0509 -0.0201
18866W        W34760   0.114  10.097   2.224  0.0157 -0.0543  0.1785
18867W        W34761  14.989   9.254   1.348 -0.1457  0.1962 -0.3533
18868W        W34762  12.900  17.459   3.365  0.0507  0.0723  0.0143
18869W        W34763   4.404   1.099   6.046  0.0632 -0.0006  0.0450
18870W        W34764  16.340   7.556  16.711 -0.3387 -0.2475 -0.0055
18871W        W34765   3.093  16.294   2.574 -0.0873  0.2073 -0.0405
18872W        W34766  10.472  12.560   1.495  0.1849  0.0275  0.1244
18873W        W34767  11.474  14.496  13.461  0.3375 -0.0496  0.1138
18874W        W34768  12.097  14.551  12.926 -0.0164 -0.1854 -0.0301
18875W        W34769  17.317  11.226   0.539  0.3321  0.0905  0.0126
18876W        W34770  17.517   9.602  16.757  0.0412 -0.2681  0.4336
18877W        W34771  11.717   0.031  15.513 -0.4019  0.1289 -0.0274
18878W        W34772   8.260  16.705  16.720 -0.2666 -0.1692  0.2196
18879W        W34773   8.120   9.867   1.811  0.2313  0.0285 -0.0345
18880W        W34774   0.308   1.647   2.078  0.0348  0.2936 -0.3335
18881W        W34775   4.639   8.086   3.711  0.1577 -0.0210 -0.0846
18882W        W34776   6.713   7.665   5.869 -0.0397 -0.3337  0.0720
18883W        W34777   6.189   2.680   4.477 -0.3305  0.5676  0.0134
18884W        W34778   4.067   7.261   1.040  0.0403  0.0872  0.0736
18885W        W34779  14.906   0.617  17.136  0.0810  0.2364  0.0571
18886W        W34780   8.590  12.363  11.971  0.2722  0.0920 -0.0494
18887W        W34781   5.166   9.851  14.007 -0.1010 -0.0657 -0.1798
18888W        W34782   5.244   4.051  16.049  0.0474  0.0513  0.1147
18889W        W34783   6.339   4.309   0.666 -0.0742 -0.2086 -0.0209
18890W        W34784   0.955   0.068   4.025  0.1674 -0.2014 -0.3393
18891W        W34785  13.720   2.246  16.524  0.0056 -0.0922 -0.2794
18892W        W34786   8.422   9.675  17.219  0.1154 -0.0715 -0.1504
18893W        W34787  15.436  14.939   4.061 -0.1347 -0.0718  0.0665
18894W        W34788   1.127   6.672   1.659 -0.1473 -0.2813 -0.1208
18895W        W34789   0.969   1.767  12.271 -0.3800 -0.3417 -0.4024
18896W        W34790   7.208  13.337   4.290 -0.2067  0.0016  0.3356
18897W        W34791   6.512  14.150  12.129  0.2483  0.0703  0.1294
18898W        W34792   5.354   5.150   3.146  0.1944  0.0340 -0.4287
18899W        W34793   3.352  15.784   2.043  0.1509  0.2547 -0.0411
18900W        W34794  15.295   6.047  12.637  0.0219 -0.0511  0.0072
18901W        W34795   9.223   4.704   2.813  0.1828  0.2309 -0.1996
18902W        W34796   9.249   9.779   2.171 -0.0920  0.1038  0.1050
18903W        W34797   5.932   2.096   0.605  0.3731  0.0597  0.0035
18904W        W34798  12.567   2.084  16.008 -0.0821 -0.0459 -0.0913
18905W        W34799   3.855  17.190   1.495 -0.2901  0.0258 -0.1644
18906W        W34800  14.652  12.586  12.191  0.1524  0.1337  0.2732
18907W        W34801   1.136   3.631   4.904 -0.2169  0.0494  0.1017
18908W        W34802   6.753   0.315  15.881 -0.0448  0.0425 -0.1128
18909W        W34803   1.647   2.426   3.253 -0.0514 -0.2605 -0.0161
18910W        W34804   4.983   7.548   3.412 -0.0545  0.2154 -0.2878
18911W        W34805   2.514   8.864   0.825 -0.1496 -0.0814  0.0040
18912W        W34806   2.028  13.861   6.029  0.1310 -0.0225 -0.0043
18913W        W34807  11.119   2.791  12.955 -0.1870  0.2868 -0.0478
18914W        W34808  11.092   6.606   4.758  0.0142  0.1784  0.4042
18915W        W34809   0.781  16.938   5.182 -0.4309  0.1027 -0.2119
18916W        W34810   2.825  11.554   0.379  0.1780  0.1194  0.0064
18917W        W34811  17.213   5.904   6.969 -0.2247  0.2030  0.1465
18918W        W34812  11.191  12.430   5.893  0.0304 -0.0638 -0.1938
18919W        W34813  15.528   5.827   5.346 -0.2221 -0.1309 -0.0626
18920W        W34814   4.574   2.882   4.565  0.1879 -0.3307  0.2189
18921W        W34815   9.661  10.654  14.210 -0.1376 -0.1676 -0.0775
18922W        W34816   0.758  16.135   2.440 -0.1299  0.2808 -0.0838
18923W        W34817   1.440  16.529   1.016  0.1259  0.1963  0.0746
18924W        W34818  16.530  16.322   0.710 -0.2104 -0.0764 -0.1676
18925W        W34819  11.382  13.354   2.911  0.0255  0.2575 -0.2287
18926W        W34820   3.985   1.069   1.008 -0.2886 -0.1647 -0.2305
18927W        W34821   4.719  12.795   4.660  0.2609 -0.0953 -0.2929
18928W        W34822   9.718  10.980  17.042  0.0547 -0.0287  0.1315
18929W        W34823   6.592   4.850  11.635 -0.1975  0.0315 -0.0564
18930W        W34824  12.501  11.434  11.967  0.1656 -0.1976  0.2411
18931W        W34825  15.196  16.781   2.025 -0.0004  0.2395  0.0639
18932W        W34826   4.150   1.719   2.544  0.2296  0.0767  0.0323
18933W        W34827   2.311   5.762   7.060 -0.1020  0.1260  0.1577
18934W        W34828   0.656  15.693   6.287  0.0084  0.2922  0.1872
18935W        W34829  12.982  15.524   3.041 -0.1573 -0.2971 -0.1127
18936W        W34830  14.241   4.979   2.518  0.0363 -0.0993  0.0155
18937W        W34831  10.277  15.389   2.221  0.0106 -0.0402 -0.1791
18938W        W34832  16.338   8.150  13.222 -0.1038  0.1689 -0.1737
18939W        W34833   5.062  16.697  16.719 -0.3928 -0.2263  0.0864
18940W        W34834  11.674  15.220   1.398 -0.1712 -0.0987 -0.2714
18941W        W34835   8.901   4.674  14.778  0.1506  0.2204  0.0236
18942W        W34836   7.620  10.214   3.766 -0.1038 -0.4601  0.2628
18943W        W34837  11.297  11.298   0.800 -0.0370  0.0780  0.0198
18944W        W34838   1.866   1.890  16.004  0.0156 -0.1248  0.2466
18945W        W34839  17.409   3.401   0.648 -0.0154  0.1874  0.0078
18946W        W34840  10.916  13.406  17.111 -0.1870 -0.0701  0.0394
18947W        W34841  14.666   5.515   4.977  0.2168  0.1380 -0.1504
18948W        W34842   4.715  13.274   2.106  0.2808 -0.1101 -0.0275
18949W        W34843   1.056   3.210  12.454 -0.2395  0.1029  0.1320
18950W        W34844  16.688   2.120  16.080 -0.3234  0.1186  0.1672
18951W        W34845   3.342  16.751   0.772 -0.0136  0.2874  0.1055
18952W        W34846  17.009   2.114  14.675  0.3368  0.2071 -0.0595
18953W        W34847   0.669  16.550  15.189  0.1470  0.3205 -0.0868
18954W        W34848  15.961   7.660  14.553  0.2535 -0.2121  0.0635
18955W        W34849  15.755   7.202   4.385  0.0403  0.1397  0.0376
18956W        W34850  11.729  12.949  15.595 -0.0913 -0.1023  0.0579
18957W        W34851   7.874   1.195   4.446  0.1032 -0.1340  0.3187
18958W        W34852   1.211   7.508  13.307  0.1289  0.2246  0.1038
18959W        W34853   1.453  11.673   1.172 -0.1045  0.0530 -0.0518
18960W        W34854  14.464   2.931  12.159  0.0036  0.0315 -0.1794
18961W        W34855  13.403   6.699   5.984  0.1243 -0.1332  0.2984
18962W        W34856   2.424  10.313  12.837  0.2915  0.1624  0.0275
18963W        W34857  16.238  17.511   0.026 -0.2012 -0.0725 -0.2383
18964W        W34858  10.497  13.230  12.469 -0.1042  0.0607  0.2785
18965W        W34859   5.901  10.792   4.795 -0.0282 -0.0299  0.2169
18966W        W34860  13.370  11.545  14.328 -0.0480  0.0846  0.2159
18967W        W34861  16.895   2.562  14.851  0.0443 -0.1086 -0.0749
18968W        W34862   6.745   7.825   2.186 -0.0949 -0.3774 -0.0004
18969W        W34863  10.629   0.123   4.702  0.0137  0.0918  0.2758
18970W        W34864   5.101  15.903  13.678 -0.1063  0.1890 -0.3379
18971W        W34865  12.462   0.625  16.955  0.0854 -0.0449 -0.0653
18972W        W34866  15.215  10.343   0.863 -0.0630 -0.1731  0.1057
18973W        W34867  17.298   5.757   3.464 -0.0440  0.0196  0.1382
18974W        W34868   9.955  15.601  12.159 -0.1670  0.0135 -0.2347
18975W        W34869   5.656   7.253  16.280 -0.0506  0.1882  0.1421
18976W        W34870  14.823   5.157   4.595  0.3570  0.0118 -0.0025
18977W        W34871  17.584   5.905   4.248  0.2671  0.3242  0.0096
18978W        W34872  16.884   0.810  16.888 -0.2705 -0.3274  0.0413
18979W        W34873  12.979  10.189  12.520 -0.0844  0.1045 -0.0504
18980W        W34874  15.309   3.779  12.105 -0.1025 -0.0607 -0.1389
18981W        W34875   6.253  16.628  13.755  0.0307 -0.0510 -0.0331
18982W        W34876  10.529   4.893  14.012  0.1148 -0.0564  0.0572
18983W        W34877  16.096  10.593   6.339  0.1495  0.1203  0.1491
18984W        W34878   8.254   0.341   4.438 -0.0490 -0.1003 -0.2582
18985W        W34879   9.207   0.063   0.762  0.3017 -0.2563  0.0504
18986W        W34880  15.974   0.200  13.261  0.0201  0.1183  0.2017
18987W        W34881  11.798   9.401   1.873  0.0612 -0.2193  0.0220
18988W        W34882  12.779  13.640   5.008 -0.0561 -0.1500 -0.1042
18989W        W34883  13.217  14.927   5.775 -0.2391  0.1565 -0.0690
18990W        W34884  16.377   6.104  13.771 -0.4374 -0.2133  0.1137
18991W        W34885  11.552   6.737  16.221 -0.1539  0.1843 -0.1833
18992W        W34886   8.134   7.150  11.528  0.0330  0.3907  0.2414
18993W        W34887  15.905  13.899  13.639  0.1624  0.1637 -0.1474
18994W        W34888  14.353   9.024  14.314  0.3078 -0.3481  0.1992
18995W        W34889   5.340   5.651   3.357  0.1512  0.1407  0.2062
18996W        W34890   3.689   7.209  15.008 -0.0277  0.1296 -0.0637
18997W        W34891   8.677   6.510   5.945 -0.1723  0.0860  0.3398
18998W        W34892   1.718  11.155   4.219  0.1723 -0.1418 -0.3002
18999W        W34893   3.322   5.274   2.877 -0.0475 -0.1040 -0.1161
19000W        W34894  17.134  14.525  13.590 -0.0818 -0.1970 -0.0500
19001W        W34895  11.588  14.847  13.808  0.0969 -0.0341 -0.0388
19002W        W34896   9.368   5.297  16.716  0.0432 -0.1200  0.0121
19003W        W34897  12.928  11.259  12.059 -0.0643 -0.0310 -0.2700
19004W        W34898   7.946   4.947  16.913  0.0659 -0.0557  0.1491
19005W        W34899  12.689  12.387   2.113 -0.2485 -0.1628  0.2470
19006W        W34900   5.933  16.713  13.338 -0.1668  0.1264  0.2728
19007W        W34901  10.881  14.532  13.660 -0.2752  0.0896  0.0740
19008W        W34902   3.242  12.705  15.182  0.0339 -0.1623  0.1557
19009W        W34903  16.890   7.721  12.962 -0.3136  0.0131 -0.1178
19010W        W34904   9.206   9.647   4.519 -0.1624 -0.0628 -0.2447
19011W        W34905  16.687  14.486   4.794 -0.0076 -0.2675  0.0516
19012W        W34906  15.322   7.538   0.341  0.2040 -0.0296 -0.1164
19013W        W34907   5.984   0.306   6.016  0.3832  0.0468 -0.0509
19014W        W34908   0.494  14.995   3.201 -0.0275  0.0921 -0.1321
19015W        W34909  13.866  16.832  12.370  0.0646  0.0653 -0.2113
19016W        W34910  11.619   8.802   4.524 -0.1960 -0.0797 -0.2415
19017W        W34911   4.924  17.127  15.862  0.1398 -0.1054  0.1849
19018W        W34912   0.148   8.528   0.052  0.0998 -0.2262  0.0833
19019W        W34913  16.874  12.046  12.747 -0.1998 -0.0496 -0.0650
19020W        W34914   0.132  14.096   4.091 -0.2698  0.0013 -0.0996
19021W        W34915   6.529   7.008   2.670  0.2839 -0.0688  0.0509
19022W        W34916   2.850  12.001  15.724 -0.1555  0.0565 -0.0126
19023W        W34917  13.961   3.388  14.418 -0.0076 -0.1154  0.3120
19024W        W34918   1.173  13.479   1.038 -0.0802 -0.0299  0.0787
19025W        W34919   2.032   1.831   6.039  0.3044  0.0701 -0.1051
19026W        W34920  10.009   4.471  15.064 -0.0770 -0.0049 -0.0968
19027W        W34921   0.028   9.878  13.212  0.0209  0.0552 -0.0256
19028W        W34922   2.146   2.319  12.220 -0.1362 -0.0876 -0.0876
19029W        W34923   2.176   5.688  14.477  0.0174 -0.2644 -0.1250
19030W        W34924  12.869  12.764   5.533 -0.1285  0.2414  0.1972
19031W        W34925   6.199   4.031   3.103  0.0357 -0.1324  0.1794
19032W        W34926   8.928   8.665   3.447 -0.1552  0.0110  0.1349
19033W        W34927   5.603  16.290  12.763 -0.0725  0.1769  0.2395
19034W        W34928   0.965  11.286  14.296  0.1222 -0.2009  0.1451
19035W        W34929   8.356   3.139   4.095 -0.1344  0.0700 -0.1066
19036W        W34930   0.337   4.024  13.752  0.3344 -0.0903  0.1412
19037W        W34931  13.428  10.040   2.699 -0.2385  0.0607  0.0781
19038W        W34932  17.279   8.633  15.448 -0.1443 -0.0494  0.0892
19039W        W34933  12.662  16.233   4.300  0.0142 -0.0030  0.4832
19040W        W34934   5.436  16.573   5.709  0.1308 -0.0718 -0.1865
19041W        W34935   8.697   4.751  12.900 -0.0166  0.2536  0.1879
19042W        W34936   3.303   1.887  14.022  0.0280 -0.1020  0.0765
19043W        W34937  14.283   0.621   4.247 -0.0948  0.0583  0.0732
19044W        W34938   3.917   3.298   1.085 -0.1107 -0.1888  0.2090
19045W        W34939  17.089   5.484  15.781 -0.0783 -0.3187  0.0243
19046W        W34940  12.938   4.824  15.514  0.0192 -0.2876 -0.3217
19047W        W34941   9.560   1.822   2.751 -0.1378 -0.3169 -0.1466
19048W        W34942  13.188  10.757   3.416  0.0738  0.3281  0.2144
19049W        W34943  15.229   9.464   0.924  0.1742 -0.1481 -0.0932
19050W        W34944  10.721   3.318  11.979  0.0713  0.3252  0.2290
19051W        W34945   7.973  12.044   1.848 -0.0334  0.2452 -0.0653
19052W        W34946  13.913   2.600  15.135 -0.1033 -0.2026 -0.2465
19053W        W34947   3.068   6.279  12.336 -0.2403 -0.0629 -0.0974
19054W        W34948   7.772   0.659   6.168  0.0823  0.2709  0.2156
19055W        W34949   3.085  10.067  14.069 -0.0341  0.0665  0.3568
19056W        W34950  12.708   4.729   5.014  0.4805  0.0440 -0.0941
19057W        W34951  14.727  15.438   4.162 -0.3937  0.2900  0.1224
19058W        W34952  14.378   0.565   0.741  0.0796 -0.0278  0.0464
19059W        W34953   8.975  12.477   0.170 -0.0914 -0.3112  0.1769
19060W        W34954  16.786  13.278  16.864 -0.2096  0.3815 -0.0185
19061W        W34955  11.536  16.332   3.378 -0.0732  0.3090  0.0394
19062W        W34956   2.669   0.455   5.459 -0.3119 -0.2226  0.0805
19063W        W34957  13.373   3.533  11.779 -0.2156  0.3520  0.1325
19064W        W34958  12.506   1.221  11.902  0.1312 -0.0424 -0.1997
19065W        W34959   6.845  13.587  16.349  0.1728 -0.1709  0.1405
19066W        W34960   3.977   0.765  13.226 -0.0852  0.1619 -0.1809
19067W        W34961   2.403   4.386   2.873 -0.1893 -0.0838  0.1585
19068W        W34962   1.546   5.870   5.975 -0.2157  0.0470 -0.0044
19069W        W34963  15.215  15.309  15.936  0.1817  0.0288 -0.2014
19070W        W34964  13.666   6.035  14.925 -0.1107 -0.4869  0.2942
19071W        W34965   0.124  12.339  14.714 -0.0288  0.0595  0.0404
19072W        W34966   1.497   3.212  16.023  0.0399  0.1038  0.2288
19073W        W34967   9.985   5.547   0.855 -0.0753 -0.0469  0.2375
19074W        W34968  13.743   6.508  17.072  0.1185  0.3248  0.0827
19075W        W34969  13.068   6.103   1.982  0.1900  0.0691 -0.0313
19076W        W34970  13.040   9.620  12.709  0.0870 -0.0314  0.1174
19077W        W34971   7.300  10.175   2.143 -0.0627  0.1614  0.1915
19078W        W34972   8.547   0.527   2.198 -0.1414 -0.3018  0.0580
19079W        W34973  12.429  16.607  12.779 -0.0272 -0.0126 -0.1804
19080W        W34974  11.178  14.774  12.115  0.1553 -0.0202 -0.1967
19081W        W34975  13.290   5.639   2.068  0.1398  0.0516  0.2349
19082W        W34976   7.889  15.294   1.299 -0.3017 -0.0945  0.0666
19083W        W34977   9.091  11.531   6.037  0.2124  0.3654 -0.0348
19084W        W34978   8.763   8.302   3.792  0.1704  0.1897 -0.0360
19085W        W34979   2.693   1.984   2.043 -0.2860 -0.0544  0.1405
19086W        W34980   7.503   0.155  17.028 -0.0448  0.0478  0.1771
19087W        W34981   9.004  17.420  13.905 -0.1109  0.1125  0.0399
19088W        W34982  11.750  13.443  16.610 -0.0440  0.0682  0.0589
19089W        W34983   8.236  12.876  13.205  0.3769  0.0843  0.0971
19090W        W34984  15.415   8.619   0.565 -0.4085 -0.1946  0.0293
19091W        W34985  10.508   7.084   3.543  0.1158  0.1936  0.0238
19092W        W34986   2.649  12.461   5.330  0.2339 -0.1068 -0.3158
19093W        W34987   5.247   4.873  16.196  0.0749 -0.0391  0.0157
19094W        W34988  16.145   2.275  12.221 -0.2979 -0.0679  0.0920
19095W        W34989   6.149  16.488  14.799  0.1055  0.0854  0.3900
19096W        W34990   4.846   4.368   3.574  0.1612  0.2957 -0.0198
19097W        W34991  13.326  13.594   5.496  0.2962 -0.0529  0.0546
19098W        W34992  16.901   8.522   1.020 -0.2125 -0.0565  0.1691
19099W        W34993   2.621   4.880  13.966 -0.1607 -0.2098 -0.0545
19100W        W34994  13.165   1.752   3.387 -0.2219  0.1346 -0.0324
19101W        W34995  11.379   6.607  12.130  0.0244 -0.0285  0.2304
19102W        W34996  12.213  10.496   5.142  0.1848  0.0388 -0.1957
19103W        W34997  13.019   6.595   0.515 -0.0613 -0.0583 -0.1250
19104W        W34998  11.369   6.979   4.980  0.3188  0.2353 -0.0568
19105W        W34999  12.079   5.527  13.176  0.0512  0.0362  0.0122
19106W        W35000  11.857   6.201   4.317  0.4393  0.0780 -0.1806
19107W        W35001   8.614  10.526   3.785 -0.0696 -0.1412 -0.0357
19108W        W35002  16.857   8.983   2.372 -0.0261  0.1876 -0.3235
19109W        W35003  10.402   2.231   4.160  0.1209 -0.1940 -0.0414
19110W        W35004   5.432  11.269   4.703 -0.1431  0.2352  0.1128
19111W        W35005   6.031   2.737  15.347  0.1687 -0.1924 -0.0205
19112W        W35006   8.878   3.789  16.875  0.5264  0.4258 -0.0942
19113W        W35007  15.786   9.508   0.847 -0.0918  0.1845  0.0676
19114W        W35008   0.535   1.458   5.417  0.0377  0.0504 -0.4483
19115W        W35009  16.847   5.232   3.757 -0.1988 -0.1840  0.1012
19116W        W35010   4.094   7.177  14.711  0.0653  0.0545  0.0162
19117W        W35011  17.200   8.372  14.601  0.1310 -0.1704 -0.0199
19118W        W35012   5.346   2.123  15.599 -0.1569 -0.0771 -0.1150
19119W        W35013   3.105  14.576   4.867 -0.3072  0.0153  0.1054
19120W        W35014  13.001  13.880   0.459  0.2235  0.4473  0.2346
19121W        W35015  13.572  14.664  16.188  0.1859  0.1775  0.2752
19122W        W35016  15.254  12.153  16.733 -0.0302  0.2589  0.0516
19123W        W35017   1.703  10.323  15.332 -0.0313  0.0725  0.1568
19124W        W35018   7.372  16.428  15.373 -0.3777  0.0919  0.0133
19125W        W35019   6.890  11.073  12.649 -0.0547 -0.0831 -0.0245
19126W        W35020  12.531   7.219  14.875  0.1989 -0.2362  0.1176
19127W        W35021  10.149   2.903   0.349 -0.4088 -0.0739 -0.2383
19128W        W35022  15.383  15.772  17.209  0.2125  0.1059  0.0205
19129W        W35023   8.061   3.321   3.098 -0.2244  0.0275 -0.1043
19130W        W35024   2.107   9.199  16.152 -0.3553 -0.0392 -0.0189
19131W        W35025   5.625   5.408   1.515  0.1934 -0.0738  0.0263
19132W        W35026  10.109   4.743  13.176 -0.1835  0.1463 -0.2441
19133W        W35027  11.007   1.430   1.046 -0.2405 -0.1953 -0.0060
19134W        W35028  14.233  12.113   3.685 -0.0034 -0.2145  0.0076
19135W        W35029  11.679   3.644   3.243  0.0902 -0.0886 -0.1506
19136W        W35030   0.097   9.550   1.527 -0.1342 -0.2589  0.0865
19137W        W35031   8.009   9.637  14.879 -0.1994  0.2538 -0.0317
19138W        W35032  13.374   7.737   1.713  0.4584  0.2405 -0.5260
19139W        W35033  10.491   4.559  13.559  0.0028 -0.2944 -0.1838
19140W        W35034  10.547  15.639  16.982 -0.0271  0.0733  0.1950
19141W        W35035   7.171   3.540  15.706  0.0849  0.0434 -0.1900
19142W        W35036  11.032  12.089   4.409  0.0306 -0.1528  0.0133
19143W        W35037   6.596  10.777   1.745  0.0483  0.0890  0.1935
19144W        W35038  17.483  17.295   1.327  0.0549 -0.2685 -0.1264
19145W        W35039   1.301  13.071   2.626 -0.1029  0.0453  0.0161
19146W        W35040   7.716  16.924   4.699  0.0225  0.2369  0.2960
19147W        W35041  11.600   1.639   2.651 -0.2389 -0.2070 -0.4172
19148W        W35042   5.929  17.155  16.023 -0.2366 -0.2025  0.1919
19149W        W35043   2.584   4.548   3.767 -0.0676  0.2314  0.3264
19150W        W35044   9.158   4.172  16.880  0.0001  0.0449 -0.2250
19151W        W35045   6.106   6.792  12.078  0.0321 -0.0983 -0.1367
19152W        W35046   6.507  13.682   6.044 -0.1292 -0.1022  0.2271
19153W        W35047   8.387   5.161  14.728  0.2968 -0.0180 -0.2269
19154W        W35048  12.358   8.109   1.926 -0.1328  0.1223 -0.1849
19155W        W35049  16.179   7.033  11.479 -0.1908  0.0753 -0.0968
19156W        W35050   8.940   7.649  14.330  0.1759  0.0385  0.2827
19157W        W35051   5.066   4.886  17.124  0.3111 -0.0956  0.2544
19158W        W35052  15.984  11.362   0.506 -0.2189  0.1682  0.1953
19159W        W35053   5.370   3.182   4.916  0.2854 -0.0212  0.1807
19160W        W35054  11.991   6.898  15.830 -0.2139  0.0562  0.2598
19161W        W35055   8.979  12.639  15.250  0.1528 -0.3989  0.2518
19162W        W35056   7.621  16.243   4.607 -0.1371 -0.3276 -0.1777
19163W        W35057   5.186  14.301  12.358 -0.0681 -0.1295 -0.2412
19164W        W35058  10.883   2.695  14.675 -0.0782  0.0280 -0.0991
19165W        W35059  10.552  16.422   1.526  0.0831  0.0132 -0.2368
19166W        W35060   2.211   6.260   1.020 -0.0847  0.2213  0.2226
19167W        W35061  15.143  13.051   1.826 -0.0658 -0.1481 -0.3146
19168W        W35062   9.400  12.270   5.579  0.3315 -0.3343 -0.2531
19169W        W35063   1.856   2.693   2.369 -0.1670 -0.1379 -0.4217
19170W        W35064  15.667  12.090   0.087  0.1220  0.2384  0.1191
19171W        W35065   6.626   3.453   4.488 -0.0716  0.0707  0.0555
19172W        W35066  14.080  13.237   1.136  0.0743 -0.0465 -0.3092
19173W        W35067  11.008   0.754   0.273  0.2057  0.0444 -0.4320
19174W        W35068   8.693   8.468  11.552 -0.0722  0.2581  0.4969
19175W        W35069  11.830   9.512   0.405  0.0387  0.0156  0.1642
19176W        W35070   9.442   7.917  13.477  0.0674 -0.2721 -0.1744
19177W        W35071   0.367  16.941   1.537  0.1688  0.0708  0.2163
19178W        W35072   9.973  10.610   1.248 -0.0730 -0.1611  0.3661
19179W        W35073   0.290   6.905   3.770  0.0060 -0.2973  0.0062
19180W        W35074  13.462   6.090   4.460  0.1879 -0.0226 -0.0387
19181W        W35075  11.275   0.115  14.709 -0.3698  0.3865  0.0127
19182W        W35076  13.642   3.322   4.024 -0.0027  0.2955  0.2143
19183W        W35077  10.232   7.629  11.951  0.0809  0.1444  0.2039
19184W        W35078  17.131   6.680  16.785 -0.1280 -0.1165 -0.0598
19185W        W35079  14.755  12.427  14.262 -0.1988 -0.4107 -0.0215
19186W        W35080   9.318  12.215   2.034 -0.1648  0.1437  0.2763
19187W        W35081  13.613   7.064   3.879 -0.0082  0.0569 -0.3014
19188W        W35082   2.218   9.390  13.194 -0.3012  0.0699  0.2022
19189W        W35083   5.339  11.865   2.175 -0.0514 -0.1445 -0.2025
19190W        W35084  14.214  14.476   0.259  0.1657  0.0390  0.0895
19191W        W35085   1.149   4.427   5.620 -0.1681  0.0383 -0.0218
19192W        W35086   5.318   4.791  13.636  0.0857  0.1222 -0.2512
19193W        W35087  13.127  10.006   4.065  0.0543 -0.4585 -0.0947
19194W        W35088  13.179   8.612   0.530 -0.0830 -0.2943  0.4613
19195W        W35089   8.059   9.978   0.155 -0.0347  0.1618 -0.0814
19196W        W35090  14.271  10.363  12.694  0.1004 -0.0876 -0.0914
19197W        W35091   1.327   1.364  12.298 -0.0162  0.0471  0.0417
19198W        W35092   7.882  14.855  14.126  0.1179  0.2163  0.0171
19199W        W35093  10.828  12.097  15.025  0.2499  0.2342  0.1973
19200W        W35094   0.582  16.473   3.201  0.1706 -0.2069  0.1521
19201W        W35095  12.255   5.028   6.106 -0.0198 -0.1757  0.0366
19202W        W35096   6.717   9.034  14.233  0.0730 -0.0448  0.4445
19203W        W35097   8.925   9.232  17.296  0.0481 -0.2054 -0.3891
19204W        W35098  13.237   0.937   4.061 -0.5091 -0.2585 -0.0845
19205W        W35099   4.190  16.069  12.416 -0.1287 -0.1599  0.2614
19206W        W35100   3.428   0.111   5.021  0.0237  0.2139  0.1087
19207W        W35101  10.916  11.137   2.672  0.0761 -0.0995 -0.1225
19208W        W35102  13.745   7.492   4.428  0.0308  0.1942  0.2236
19209W        W35103   9.328   4.187   2.794 -0.0001 -0.1243 -0.2830
19210W        W35104   6.805   8.763  16.581  0.0042 -0.0348 -0.1004
19211W        W35105   6.867  10.343   4.803 -0.0486 -0.2826 -0.1678
19212W        W35106   7.927   8.460  16.525  0.0826  0.3868  0.2427
19213W        W35107   3.212  17.284  17.171  0.1483 -0.0863  0.1715
19214W        W35108   7.118  13.966  16.483  0.0498 -0.1672 -0.1362
19215W        W35109  16.411  15.884  12.363 -0.2090 -0.0090  0.0056
19216W        W35110   9.634   3.802   1.041  0.1348 -0.0001 -0.5801
19217W        W35111   9.635  17.123  16.963  0.1526  0.0713 -0.0392
19218W        W35112  10.140   0.491  11.981 -0.0124  0.0485 -0.1531
19219W        W35113  11.689  11.924   2.690  0.1440 -0.0289  0.1428
19220W        W35114   2.171  10.984   4.313 -0.1817 -0.1363 -0.3537
19221W        W35115  13.581   6.818  14.358  0.0124 -0.1058  0.2443
19222W        W35116   6.288  15.872   1.549 -0.0431 -0.0128  0.3626
19223W        W35117   3.135   5.511   0.648  0.1309 -0.3550 -0.1507
19224W        W35118   3.435   8.086   3.436  0.0011  0.0081  0.1086
19225W        W35119  10.076   6.030   1.087  0.1252  0.1708  0.1075
19226W        W35120  12.828  11.163   5.084 -0.0190 -0.1762 -0.0829
19227W        W35121  15.576   8.680  12.408  0.0358  0.0979  0.0566
19228W        W35122  10.349   8.835   4.988 -0.1101 -0.1759  0.2297
19229W        W35123  14.703  10.232   2.896 -0.1056  0.1155  0.1425
19230W        W35124   2.983   8.387   5.296 -0.0468 -0.1916  0.1226
19231W        W35125   0.438  10.543  12.417  0.0064 -0.1870  0.3028
19232W        W35126  11.865  14.583   4.680  0.2156  0.0794 -0.0913
19233W        W35127  11.720   9.401  14.083  0.0669 -0.1009 -0.3385
19234W        W35128   3.214  15.523  15.170  0.1989  0.1502 -0.1056
19235W        W35129  16.930  13.714  12.482 -0.1050 -0.0409  0.0830
19236W        W35130   3.590   3.558   5.270 -0.0517 -0.0904 -0.2069
19237W        W35131  13.737  10.911  12.225  0.3857  0.4585  0.0355
19238W        W35132   5.304  14.692   4.240  0.0371 -0.0545  0.3823
19239W        W35133  14.998   9.391  14.785  0.0655 -0.1684  0.1421
19240W        W35134  12.302   9.832   4.346 -0.0636 -0.2560  0.1599
19241W        W35135  15.994  16.286  14.516 -0.1518  0.0605 -0.0285
19242W        W35136  15.856  12.752   2.526 -0.1415  0.1334 -0.1363
19243W        W35137  15.649   4.511   1.402  0.3261 -0.0865  0.0445
19244W        W35138   0.944   2.439   2.368  0.1557  0.2822  0.0730
19245W        W35139  11.128  14.150  13.862  0.1398 -0.2256 -0.0339
19246W        W35140  16.848  12.784  16.776 -0.2762  0.0187 -0.0062
19247W        W35141  10.440  13.456  14.839  0.1438  0.0240 -0.3997
19248W        W35142   7.085   2.225  14.069  0.2533  0.2481  0.0272
19249W        W35143  16.526  10.396  16.413 -0.1403 -0.0965 -0.1044
19250W        W35144  16.514   8.176  15.160 -0.0685  0.0874 -0.0023
19251W        W35145  11.525  15.563   5.450 -0.0266 -0.0211  0.0256
19252W        W35146   0.340  14.030  15.107 -0.4313  0.0498 -0.0340
19253W        W35147   9.410  12.801   5.771 -0.2851 -0.2506  0.0690
19254W        W35148   7.723  12.874   0.874  0.0098 -0.0097 -0.2681
19255W        W35149   5.186  13.187  14.973  0.1306 -0.0204 -0.0352
19256W        W35150   8.948  11.120   4.431 -0.0925  0.0137  0.0423
19257W        W35151   3.931  14.132   2.343  0.3247 -0.1843 -0.1897
19258W        W35152  16.906  14.189  12.625 -0.1968  0.0193 -0.1472
19259W        W35153   8.954  15.871   5.032 -0.1643 -0.1564  0.2343
19260W        W35154  14.743   6.989   5.346  0.3077 -0.2603 -0.1358
19261W        W35155  17.016   3.762  17.127  0.1277  0.0531  0.0672
19262W        W35156   2.377  12.036   2.439 -0.1241  0.0851 -0.3032
19263W        W35157   9.748   4.480   4.191 -0.0451 -0.1520 -0.0450
19264W        W35158  11.216   8.607   4.452  0.2023  0.0420  0.1586
19265W        W35159   5.773  16.142  11.444  0.3922 -0.0231  0.1820
19266W        W35160  17.414  13.852   1.851  0.0641  0.2285 -0.0307
19267W        W35161   9.933  10.489  15.094 -0.1606 -0.1793  0.1010
19268W        W35162   8.578   2.563   4.485  0.0080  0.2794 -0.3461
19269W        W35163   9.055   7.320  13.958  0.0309  0.2458 -0.0352
19270W        W35164  11.528   1.025  13.608  0.0941 -0.2534  0.0208
19271W        W35165  15.863  11.155   4.696 -0.0205 -0.0662 -0.2933
19272W        W35166  17.470   7.911  12.137  0.0563  0.0035 -0.1273
19273W        W35167   0.049  11.723   5.774 -0.4410 -0.2924 -0.1254
19274W        W35168   4.181  11.603   6.018  0.5888 -0.0243 -0.3007
19275W        W35169  15.993  13.804  16.749  0.0700  0.2406  0.1952
19276W        W35170   5.800  14.743   2.529  0.0247 -0.2395 -0.1040
19277W        W35171  13.243  15.880  15.039 -0.1321 -0.0702  0.0811
19278W        W35172   3.854   8.084   3.852 -0.0493  0.3321  0.0857
19279W        W35173  16.965   2.077   2.012  0.0501  0.1068 -0.2063
19280W        W35174  12.813   6.545  16.977  0.2078  0.1099  0.0362
19281W        W35175   1.180   4.376   4.049 -0.2377 -0.0573  0.1514
19282W        W35176   6.909   3.438  16.996  0.2458  0.1562  0.0506
19283W        W35177  11.403   5.312   4.785  0.0113  0.1221 -0.1911
19284W        W35178   1.068  11.707  15.757  0.1456 -0.1380  0.1108
19285W        W35179  13.676  14.495   0.321 -0.0357 -0.1500 -0.4103
19286W        W35180   1.213  12.126   3.523 -0.1091  0.2165 -0.1264
19287W        W35181  11.531  14.996   4.381  0.1260 -0.2663 -0.0172
19288W        W35182  16.227  12.209  12.390  0.0777  0.0622  0.1143
19289W        W35183  13.236  15.678  15.514  0.3767 -0.0783  0.1828
19290W        W35184   8.753   7.552  13.174  0.0760 -0.5315 -0.1259
19291W        W35185  13.468   7.230   3.278  0.0939  0.1978  0.0005
19292W        W35186  10.809   7.213  12.560 -0.0368  0.0615  0.1484
19293W        W35187  11.190  16.956   3.590 -0.1321 -0.0755 -0.0991
19294W        W35188   7.706   3.855   1.649  0.1107  0.2903 -0.1054
19295W        W35189  10.176  14.581   5.215 -0.3005  0.0133  0.0152
19296W        W35190   6.203  16.487  14.285 -0.1591 -0.1281  0.1780
19297W        W35191  15.757  10.510  16.800 -0.3283  0.2335 -0.0378
19298W        W35192  14.358   2.327  11.971  0.0620 -0.0374  0.1876
19299W        W35193   2.108  13.371   0.608  0.3284 -0.3799  0.0092
19300W        W35194   5.735  10.080   5.548  0.0987 -0.0194  0.2495
19301W        W35195  16.889  16.252   3.983  0.0698 -0.0331 -0.2380
19302W        W35196  11.425   0.932  12.646 -0.1537  0.1944 -0.1702
19303W        W35197   1.623   6.461  13.419  0.2429  0.0309  0.0497
19304W        W35198   2.046   0.295   1.802 -0.0906 -0.0814 -0.1573
19305W        W35199   7.139  16.946   3.988 -0.3422  0.1867 -0.0001
19306W        W35200  13.476   3.498   1.748 -0.3503  0.1784 -0.0058
19307W        W35201   6.586  12.827   0.091  0.1334 -0.1387 -0.0375
19308W        W35202   4.941   4.928   5.855  0.2111  0.3901  0.3310
19309W        W35203  17.116  12.633   0.980  0.1070  0.0165  0.0130
19310W        W35204  13.544   0.253  14.071  0.4174 -0.0538  0.0017
19311W        W35205  11.483   7.802   2.616  0.1412 -0.0219  0.0606
19312W        W35206  14.054  12.353   0.318 -0.1839  0.0527 -0.0691
19313W        W35207   1.864   9.674  16.037 -0.1292 -0.0464  0.2618
19314W        W35208   5.056  14.152   1.016 -0.2664  0.3725 -0.1377
19315W        W35209  13.560   8.765  17.283  0.1356  0.1944 -0.2940
19316W        W35210   4.712   2.427  12.448 -0.0284 -0.0367  0.4224
19317W        W35211   6.365  16.540  13.173  0.2024 -0.4697 -0.2043
19318W        W35212   2.695   0.231  13.899  0.2135 -0.0029  0.2312
19319W        W35213   8.452  10.197  14.369 -0.2811  0.1428 -0.2164
19320W        W35214  14.927  15.251  13.532  0.1108  0.0270  0.1546
19321W        W35215   2.002   7.914   0.075  0.0601  0.1030  0.2751
19322W        W35216  16.133  13.453  14.960  0.1668  0.0687  0.0029
19323W        W35217   8.270  11.702   2.134 -0.3804  0.0955 -0.3283
19324W        W35218  10.733   8.246  12.346 -0.0550  0.2953 -0.1378
19325W        W35219   8.341  13.788  16.186  0.4584 -0.0622  0.2083
19326W        W35220   3.324  13.754  15.047  0.1212  0.2479  0.0120
19327W        W35221  15.986   2.303   2.162  0.0303 -0.1962 -0.4057
19328W        W35222   7.986   3.570  14.780 -0.1398  0.3505  0.0330
19329W        W35223  14.287  15.750  17.080 -0.0452 -0.2164  0.0337
19330W        W35224  16.646   0.404  17.145 -0.0266  0.0238 -0.0751
19331W        W35225   9.338   9.238   2.033  0.0966 -0.0696  0.1138
19332W        W35226   9.233   5.875  15.619  0.1642  0.2612 -0.3310
19333W        W35227   4.449  13.875  12.441  0.0486 -0.0624  0.2400
19334W        W35228   7.359  10.989   2.420 -0.0516  0.0726 -0.1266
19335W        W35229  11.329  11.607   2.151 -0.1156  0.2810  0.3965
19336W        W35230   5.111  12.291  13.434  0.0242 -0.2178 -0.2139
19337W        W35231  16.767  12.581  13.773  0.0049  0.2121  0.0236
19338W        W35232  12.140  10.146   0.868  0.0487 -0.0072  0.0646
19339W        W35233   9.970   9.474  15.079 -0.0257 -0.0697 -0.0822
19340W        W35234  11.579   3.851   1.584 -0.2108  0.2521 -0.0719
19341W        W35235  16.268   6.163   4.732 -0.0132 -0.0383  0.0398
19342W        W35236   1.785   5.409  16.288  0.1632 -0.2404 -0.1510
19343W        W35237   1.605  14.504  14.998  0.1459  0.1138 -0.2015
19344W        W35238  14.565   6.360  14.834 -0.0932  0.2517 -0.2295
19345W        W35239  16.212  16.922  16.208  0.0226  0.0551  0.2493
19346W        W35240  11.781   2.390  12.356  0.0849 -0.0315 -0.0916
19347W        W35241   4.335   9.904  14.580 -0.0154 -0.2953 -0.1951
19348W        W35242  16.434   8.373  16.983  0.2634  0.0914 -0.1811
19349W        W35243   6.658  15.567   2.319 -0.0756  0.0047  0.0124
19350W        W35244   3.168   6.726  12.667 -0.0688  0.1902  0.3806
19351W        W35245   8.697  11.518  13.124  0.2031 -0.2348 -0.1508
19352W        W35246  13.510   5.085  14.046  0.0324  0.3107 -0.1279
19353W        W35247   9.398   3.548  11.972 -0.2125  0.3431 -0.1341
19354W        W35248  11.247   8.278  11.782  0.2231  0.2539 -0.0966
19355W        W35249   6.838  14.437   2.496 -0.0169 -0.3067 -0.0013
19356W        W35250   5.796  16.515  15.110  0.0145 -0.0151 -0.1142
19357W        W35251   0.133   9.524  13.628  0.0021 -0.0239 -0.0392
19358W        W35252  15.053  10.799   0.597 -0.0306  0.3133  0.1640
19359W        W35253   8.045   6.746  15.863 -0.0168  0.0028  0.0910
19360W        W35254   5.430  17.198  13.097  0.1557 -0.3340 -0.2195
19361W        W35255  16.994   3.980  16.157  0.3676  0.0635  0.0041
19362W        W35256   1.411   8.561  12.322 -0.2383 -0.1710  0.1366
19363W        W35257   4.229  14.493   1.585  0.1327  0.2715 -0.0953
19364W        W35258   3.491   3.041   4.368  0.2840  0.1535 -0.0097
19365W        W35259   9.309  12.846   4.026 -0.1189  0.0234 -0.3696
19366W        W35260   5.875  14.420  16.232  0.0705 -0.1893  0.0851
19367W        W35261   4.915  15.612   2.296  0.0369 -0.1128 -0.0623
19368W        W35262   8.887   3.416   0.937  0.0736 -0.2110 -0.0697
19369W        W35263   0.181   1.655  14.776  0.2197  0.0487  0.1704
19370W        W35264  12.745  14.003   2.156  0.1339 -0.0389 -0.2965
19371W        W35265  12.272  10.779  16.097 -0.0782 -0.0445  0.1761
19372W        W35266   9.034  14.711  11.674  0.0398 -0.0734  0.3502
19373W        W35267   8.477   3.666   3.041  0.0773 -0.2115 -0.0677
19374W        W35268  12.204   1.028   5.632  0.0655  0.0192 -0.1151
19375W        W35269   6.607   5.858  12.087  0.5434  0.1102  0.0061
19376W        W35270   6.564   0.925  14.037 -0.2773  0.1402  0.5084
19377W        W35271   2.791  15.132   2.738  0.2223 -0.3462  0.3243
19378W        W35272  14.333  14.042   3.149 -0.2058  0.0202  0.1412
19379W        W35273   7.970   8.883   0.819 -0.1729 -0.0382 -0.0055
19380W        W35274  12.734  10.168  15.223  0.0495  0.1265 -0.0438
19381W        W35275   5.368   1.400  16.435  0.0450  0.0368  0.2678
19382W        W35276  17.007   1.570   5.816  0.0106  0.0287  0.1342
19383W        W35277   1.778   3.878   5.961 -0.1903 -0.0509 -0.2408
19384W        W35278  15.976  16.738  14.212  0.1001 -0.0683 -0.2512
19385W        W35279   5.674   4.249  15.933 -0.0297  0.1268  0.1095
19386W        W35280  13.419   2.905  17.117 -0.2015 -0.0105  0.3297
19387W        W35281  13.770  16.741  17.128 -0.2057 -0.0213  0.0802
19388W        W35282   0.620   8.199   4.301 -0.2321 -0.0979  0.1399
19389W        W35283   6.118   4.890   4.533  0.0038 -0.0286  0.0668
19390W        W35284   2.819   6.174  12.799 -0.1343 -0.1820  0.0619
19391W        W35285   1.906   9.338  15.597 -0.1416  0.1474  0.1040
19392W        W35286   1.693  16.825   0.639 -0.2081 -0.0497  0.1667
19393W        W35287  14.245   6.344  16.122 -0.1140  0.0725 -0.3332
19394W        W35288   8.166  14.645  13.231  0.0421 -0.2464 -0.1067
19395W        W35289  12.551   9.874  12.712 -0.5031 -0.2744 -0.2090
19396W        W35290  13.847   8.241   4.383 -0.0119  0.1507  0.0882
19397W        W35291  17.009   9.728   0.644  0.3866 -0.0324 -0.0879
19398W        W35292  16.417  11.235   1.823 -0.0565 -0.1378 -0.1646
19399W        W35293  16.822   8.221   6.208 -0.2330 -0.3198  0.1589
19400W        W35294   9.351   1.287  12.237 -0.0617  0.0709 -0.1108
19401W        W35295  13.964   8.005   3.038  0.1185 -0.1596 -0.3819
19402W        W35296  15.857   9.817   4.127 -0.0745 -0.0683 -0.1051
19403W        W35297   4.299  16.472   3.755  0.2043  0.2743  0.1881
19404W        W35298   0.413   5.547  12.984  0.1858  0.1465  0.1517
19405W        W35299   9.887   8.545   4.719 -0.0633  0.3216  0.0414
19406W        W35300   0.442  14.544   4.568 -0.2522  0.2430  0.0065
19407W        W35301   8.519   3.091  16.027  0.0474  0.0126  0.4155
19408W        W35302   1.327   7.429  16.291  0.0185 -0.0201  0.2453
19409W        W35303   3.896  12.865   3.338 -0.0910 -0.1488  0.1225
19410W        W35304  15.530   8.000   1.204  0.0925  0.0667  0.0231
19411W        W35305   9.610  14.329   4.784 -0.3437  0.0942  0.0001
19412W        W35306   4.956   4.154   2.049 -0.1124 -0.0531  0.3018
19413W        W35307  10.379  15.826   2.590 -0.1034 -0.0465 -0.0648
19414W        W35308   5.027  13.784  15.971 -0.0274  0.1848  0.0664
19415W        W35309  10.412  10.497  16.249 -0.1715  0.2674  0.0878
19416W        W35310   5.343   7.504   0.219  0.0706  0.1172  0.1810
19417W        W35311   8.402  13.062   2.824 -0.2212  0.0942 -0.0919
19418W        W35312   9.214  17.152   3.003  0.2624  0.1071  0.1109
19419W        W35313   9.164  10.857   5.370 -0.1665  0.0757 -0.0869
19420W        W35314   6.250   1.965  14.234  0.0502  0.2267  0.1110
19421W        W35315  14.636  12.687  13.108  0.2513 -0.1633  0.0942
19422W        W35316   5.381   4.835   2.117  0.2821 -0.1656  0.0896
19423W        W35317   9.579  10.203  16.838  0.0140  0.0415  0.3555
19424W        W35318   2.714   0.496  15.001 -0.0352  0.0257 -0.2931
19425W        W35319  17.627  11.444  17.211 -0.4062  0.0851  0.0098
19426W        W35320   8.725  15.485   4.767 -0.0301 -0.0823 -0.0464
19427W        W35321  16.924   1.583   1.869 -0.0238 -0.1256  0.0146
19428W        W35322  11.383   0.926   4.527 -0.3119  0.2746 -0.0872
19429W        W35323   5.284   8.419   2.864  0.0730  0.3658 -0.1074
19430W        W35324   1.654  17.326   0.808 -0.2971 -0.0959  0.1519
19431W        W35325   7.642  14.898   3.937 -0.2275  0.2359  0.0409
19432W        W35326   4.557   1.853  15.842  0.3251 -0.2442 -0.2363
19433W        W35327   3.810  15.873  12.668 -0.0394 -0.1581  0.0748
19434W        W35328  12.617   3.738   3.693  0.2871 -0.2223 -0.1245
19435W        W35329   6.093  16.835   1.292 -0.0627 -0.0826  0.0074
19436W        W35330   9.825   5.787  14.100  0.1039  0.2012 -0.0312
19437W        W35331   4.056  10.715  15.925 -0.1307  0.1718  0.0636
19438W        W35332  16.252  14.566   0.989  0.1598 -0.2956 -0.2093
19439W        W35333  16.797  11.098  17.074  0.2461 -0.0153 -0.1406
19440W        W35334   5.362   0.799  16.042  0.2094  0.1035 -0.0190
19441W        W35335   5.351   8.620   2.424  0.0749 -0.0027  0.2729
19442W        W35336  10.813   7.261   5.144  0.1352 -0.0820  0.0896
19443W        W35337   4.797   0.689   4.249 -0.2852  0.0595 -0.3405
19444W        W35338  12.337   4.394  14.986  0.3044  0.6132 -0.3625
19445W        W35339  14.629   9.555  15.113  0.1473  0.3042  0.0134
19446W        W35340  11.083   9.081  17.043 -0.1210 -0.0259 -0.2618
19447W        W35341   8.252   2.871   3.195  0.3750  0.0652  0.1643
19448W        W35342   0.886  15.502  12.006  0.1146  0.2332 -0.3375
19449W        W35343   0.945   7.796   1.605  0.2170 -0.4480  0.1220
19450W        W35344  12.096   1.233   4.783  0.0540 -0.2160  0.2066
19451W        W35345  17.583  13.929   0.792 -0.0784 -0.2709  0.1448
19452W        W35346  15.726   3.910  15.380 -0.1038  0.1160 -0.0797
19453W        W35347  11.152  11.997  14.615 -0.0829 -0.1036  0.1878
19454W        W35348  16.311   6.588   2.799 -0.0465  0.4009  0.1022
19455W        W35349  14.239  14.879   4.385 -0.0917 -0.0843 -0.0479
19456W        W35350   1.834   9.949   0.314 -0.2021  0.1868 -0.5175
19457W        W35351   3.515  12.810   3.824  0.2456  0.2074  0.0147
19458W        W35352   3.578   0.361   4.548 -0.4860 -0.2611  0.2854
19459W        W35353   8.946  17.217  13.371 -0.4227  0.1607 -0.2121
19460W        W35354  13.278   4.732  11.847 -0.1482 -0.1480  0.1887
19461W        W35355   8.038  15.198   0.746  0.0279  0.3218 -0.1158
19462W        W35356  15.196   0.858   1.590  0.1097 -0.2325 -0.2015
19463W        W35357  17.494   7.520  17.058 -0.0614 -0.1564 -0.1297
19464W        W35358  17.398  12.375  15.165  0.0824  0.2146 -0.2448
19465W        W35359  15.454   2.850  13.134 -0.0969 -0.1377 -0.2297
19466W        W35360   4.047   9.194   1.138 -0.0613 -0.1866  0.1525
19467W        W35361   8.958  14.063  17.148 -0.1475  0.0525 -0.0227
19468W        W35362  10.374   5.770  12.164 -0.0134 -0.0664 -0.2981
19469W        W35363   2.759  14.033   5.454 -0.1373 -0.2160  0.0846
19470W        W35364  13.673  13.113  15.627  0.0962  0.0466  0.2009
19471W        W35365  11.951   9.335  11.385  0.1047 -0.1468 -0.0016
19472W        W35366   0.324  13.467   1.076 -0.2153  0.0720  0.2250
19473W        W35367   7.974  12.855   2.974 -0.0827  0.0223  0.1643
19474W        W35368   0.779   5.652   5.384  0.1275  0.1434  0.2054
19475W        W35369  13.901   2.244   3.027  0.0987 -0.0710 -0.0232
19476W        W35370   1.604   3.719  12.531 -0.2661 -0.0951 -0.2464
19477W        W35371  16.333   9.821  16.971  0.0608  0.3516  0.1671
19478W        W35372   0.056  16.677   1.967  0.1764  0.0603 -0.0823
19479W        W35373   2.360   2.968   3.540 -0.1009 -0.3409  0.1291
19480W        W35374  15.213   4.742   1.499  0.1946  0.1792  0.4444
19481W        W35375  10.839   5.938   0.342 -0.1795  0.0628  0.1455
19482W        W35376   7.023  16.435   0.410 -0.1008  0.0859 -0.1694
19483W        W35377   5.179  13.626   4.457  0.1551 -0.3272 -0.1014
19484W        W35378   2.943  13.539   2.145  0.1836 -0.0376  0.0197
19485W        W35379  12.955   4.420  17.255  0.1583 -0.1052 -0.2116
19486W        W35380   1.397  14.303   0.135  0.2211  0.0084  0.0262
19487W        W35381   2.236  10.498  13.967 -0.0206 -0.0534  0.2503
19488W        W35382   2.247   8.185   3.587 -0.0826 -0.2320  0.2710
19489W        W35383  12.620   3.329  12.373 -0.0028 -0.1327 -0.1461
19490W        W35384   0.879  12.784   5.400 -0.0610  0.1956  0.2377
19491W        W35385   5.833   3.029  15.668  0.0819 -0.0216 -0.1951
19492W        W35386  13.262  16.894   1.042  0.3311  0.0963  0.0449
19493W        W35387  15.441  13.290  14.489  0.0583  0.1607  0.2191
19494W        W35388   9.708  12.426   2.267  0.0644  0.1142 -0.1359
19495W        W35389   7.374  16.415   2.114  0.1595  0.1179 -0.0686
19496W        W35390  15.156  11.945   3.484  0.2229 -0.1463  0.0246
19497W        W35391  10.321  11.789  14.265  0.0883  0.0619 -0.1475
19498W        W35392   2.987  16.670   3.523 -0.1185 -0.0274 -0.0284
19499W        W35393   6.356  13.101  12.935 -0.1954 -0.1773 -0.1672
19500W        W35394  16.387   9.211   4.027  0.0481 -0.0521  0.1813
19501W        W35395   2.395  16.691   4.108 -0.0739 -0.1976  0.3081
19502W        W35396  15.097   7.068  13.803  0.1315  0.2076  0.0854
19503W        W35397   6.432   9.056  12.059  0.1934 -0.4087 -0.2546
19504W        W35398  12.184  13.931   2.171 -0.0418 -0.0175 -0.0867
19505W        W35399  13.786  11.766   0.419 -0.1549  0.0816 -0.2263
19506W        W35400  12.600   2.976  14.591  0.2055 -0.0869 -0.0992
19507W        W35401   2.858   7.607   1.961 -0.3137  0.2590  0.3111
19508W        W35402   6.988   4.426   3.374 -0.1589  0.0684 -0.0879
19509W        W35403  11.655   0.245  16.075  0.0270 -0.1020  0.1048
19510W        W35404   2.383   3.059   1.843  0.1561  0.4401  0.2943
19511W        W35405  13.893   8.119  13.703 -0.1373 -0.0021 -0.2598
19512W        W35406  11.395   9.690   1.617 -0.1895 -0.0469  0.1175
19513W        W35407   4.445  11.156   4.467 -0.2125  0.0590  0.1097
19514W        W35408   0.776   0.508   5.525 -0.4202  0.0685 -0.0519
19515W        W35409   5.633  14.050   2.972  0.1573  0.0091 -0.0254
19516W        W35410  10.283  12.303   5.683 -0.1102  0.0113  0.1272
19517W        W35411  10.717   1.356  13.924  0.0946 -0.0571 -0.0510
19518W        W35412   1.394   0.302  14.758 -0.0141  0.2784 -0.3744
19519W        W35413   5.126   4.597   3.195 -0.0109  0.2100 -0.0289
19520W        W35414  17.572   2.724   2.227  0.0235  0.1107 -0.0295
19521W        W35415  15.363   2.833  15.441 -0.2304 -0.1045 -0.0657
19522W        W35416  11.626  14.557  15.940  0.3284  0.0688  0.2931
19523W        W35417  13.627  15.597   5.091 -0.1318 -0.0588 -0.2630
19524W        W35418  11.944  15.478   2.718  0.1404 -0.1075  0.2330
19525W        W35419   2.816  10.343   0.593  0.0109  0.1578  0.0909
19526W        W35420  10.567  16.180   0.997  0.2069  0.2700  0.1392
19527W        W35421  15.144   9.817  17.239 -0.0064  0.0841 -0.0520
19528W        W35422   1.210   3.875   3.901 -0.2207  0.4639  0.2240
19529W        W35423   0.664   0.345   5.069 -0.4193 -0.0331 -0.0798
19530W        W35424   5.033   9.789   3.635  0.0842  0.0273  0.1540
19531W        W35425  15.210  13.806   2.718  0.1981  0.2838  0.2011
19532W        W35426  15.194   8.344  16.542 -0.0231 -0.1620 -0.0593
19533W        W35427  14.725   1.134   0.555  0.0350  0.1556  0.1660
19534W        W35428   7.569   3.844  15.683  0.2650 -0.0855 -0.1317
19535W        W35429  15.706   0.497   0.969 -0.0847  0.1810 -0.3511
19536W        W35430   5.514  17.224   5.015 -0.1704 -0.0576 -0.0923
19537W        W35431   4.996   2.919  13.077  0.1453 -0.0027 -0.2211
19538W        W35432   8.230   7.013  15.254  0.1710 -0.1010  0.2856
19539W        W35433   6.723   1.365   1.463 -0.0737  0.0280 -0.0426
19540W        W35434   8.663   0.711  12.589 -0.0284  0.0498 -0.1713
19541W        W35435  10.055   8.046  16.385  0.1728 -0.1755  0.0401
19542W        W35436   9.119  12.920  13.550 -0.3576 -0.0499 -0.2705
19543W        W35437  15.073  10.327   2.488 -0.0515  0.2075  0.0363
19544W        W35438  12.061   3.754   0.209 -0.0551  0.0176  0.0255
19545W        W35439   3.013   6.595   1.990  0.2257 -0.0297  0.1440
19546W        W35440   1.249   5.889   4.250 -0.1494 -0.0307  0.0554
19547W        W35441   2.468   7.773   1.789  0.0509 -0.0638 -0.0638
19548W        W35442  12.403  17.370   5.817  0.2722  0.0878  0.2214
19549W        W35443  16.081   8.485   0.040  0.1042  0.2204  0.0486
19550W        W35444   1.898   8.982   5.490  0.0505  0.2494 -0.0348
19551W        W35445   7.438   1.806   6.786  0.0141 -0.0170  0.0195
19552W        W35446   6.574   3.473   0.558 -0.2525 -0.0691  0.1633
19553W        W35447  15.918   2.555  15.619  0.0506  0.2471  0.1816
19554W        W35448   6.651   4.320  12.622  0.0651 -0.1285 -0.0523
19555W        W35449  15.005  10.003   5.827  0.1027 -0.0360  0.1062
19556W        W35450   6.802   5.145  12.921 -0.0090  0.0328  0.4142
19557W        W35451   0.506  13.526   5.652 -0.3547  0.1404 -0.1304
19558W        W35452   6.115  16.183   4.634  0.1900 -0.2659 -0.0013
19559W        W35453   0.861   8.926   1.591 -0.1329 -0.2076 -0.0996
19560W        W35454   5.748  10.709  11.647 -0.0047  0.1077  0.4256
19561W        W35455   9.212   8.102  16.049 -0.3059  0.1574 -0.0645
19562W        W35456   4.619   8.029  14.383  0.0769 -0.0162  0.1676
19563W        W35457  11.914   2.665   0.259 -0.0878  0.0908  0.0887
19564W        W35458   3.180   2.397   4.645 -0.0352 -0.2320  0.1424
19565W        W35459   0.257   1.359  13.938  0.0083 -0.3496 -0.2819
19566W        W35460  14.209   9.505  10.981  0.2850  0.0108 -0.1970
19567W        W35461   1.919  15.587  11.954  0.0248 -0.2021 -0.1119
19568W        W35462   1.557  11.644   4.264  0.0127 -0.1490  0.0606
19569W        W35463  17.371  13.856   4.286  0.0214  0.0808  0.0404
19570W        W35464  14.527   2.088   2.652  0.0419  0.2036  0.0186
19571W        W35465   4.565  10.575   1.908 -0.2473 -0.0183 -0.0214
19572W        W35466   8.898  14.148   2.748  0.0057  0.2086 -0.1001
19573W        W35467   8.974   7.589  11.839 -0.1111  0.1670  0.0499
19574W        W35468  10.076   4.463  14.570 -0.3283  0.0333  0.1532
19575W        W35469  16.395   8.939  12.207 -0.2808  0.4027 -0.0492
19576W        W35470  11.789   9.785   3.992  0.1432 -0.0058  0.0273
19577W        W35471   4.906   2.833   5.437  0.5380  0.0037  0.0498
19578W        W35472  17.397   2.068  16.763  0.0206 -0.1541 -0.1986
19579W        W35473  12.350  14.031  16.935  0.1027  0.2032 -0.3296
19580W        W35474   3.302   4.050  15.195  0.0815 -0.3060  0.1277
19581W        W35475   4.003  16.367   4.203  0.0364  0.0891 -0.3141
19582W        W35476  12.668   7.190  11.727 -0.0855 -0.0463 -0.0054
19583W        W35477  17.300   0.201  14.428 -0.0193 -0.0203 -0.3127
19584W        W35478  17.536   5.987  13.772 -0.1561 -0.3372 -0.0089
19585W        W35479   5.264   4.691  16.707  0.2023 -0.3213 -0.0621
19586W        W35480  14.568  17.403   5.100 -0.1624 -0.1257 -0.1313
19587W        W35481   3.345   3.275   5.612 -0.0733 -0.2347 -0.0055
19588W        W35482   4.962   1.285  14.257  0.2805  0.4013 -0.0849
19589W        W35483   5.036  11.716  11.896  0.2528  0.1302 -0.2012
19590W        W35484  14.776   2.982   2.103 -0.0805  0.0995 -0.3338
19591W        W35485   9.822  11.017  15.379  0.1628 -0.1979 -0.1367
19592W        W35486   1.098   5.883   5.706 -0.1074  0.2054 -0.1748
19593W        W35487   5.900   8.547  13.995  0.0669  0.0867  0.0288
19594W        W35488  17.131  13.517   3.941 -0.1911 -0.0003  0.2504
19595W        W35489   7.464  11.822  13.459  0.1225 -0.1038  0.0635
19596W        W35490  13.827  11.368  12.069  0.0229  0.0252  0.1360
19597W        W35491   3.002   3.221   4.012  0.1307  0.2569  0.0235
19598W        W35492   1.093   7.746  15.325  0.3021  0.3016  0.0324
19599W        W35493   9.347  17.226   3.815  0.1406 -0.0026  0.0977
19600W        W35494   0.404  15.101  17.061  0.2143 -0.2385 -0.1791
19601W        W35495  10.971   7.140   4.692 -0.6295  0.1210 -0.1629
19602W        W35496  16.773  14.039   0.641  0.1359  0.1460  0.1879
19603W        W35497  16.675   1.469   2.371  0.1883 -0.2677 -0.1035
19604W        W35498  17.211  10.081  13.308  0.4376 -0.0702 -0.2896
19605W        W35499   2.952   9.850   6.166  0.2075 -0.1898  0.3760
19606W        W35500  11.976   7.538   2.610  0.0784 -0.1526  0.2226
19607W        W35501  11.869   7.201  13.979  0.2693 -0.1006 -0.1773
19608W        W35502  10.883  12.418   4.844  0.0696  0.2071  0.4755
19609W        W35503  16.437  14.175   4.464  0.1092  0.1088  0.3172
19610W        W35504   7.607   5.330  13.999  0.2529  0.0837 -0.1541
19611W        W35505  12.008   4.092  17.035  0.1041  0.1992  0.2152
19612W        W35506   2.532   5.563   5.226  0.3695  0.0645 -0.0612
19613W        W35507  10.754   0.637   3.472  0.0020  0.0441  0.2118
19614W        W35508  12.808  16.337  11.906  0.0172  0.3509 -0.1923
19615W        W35509   7.075   5.943  14.859 -0.1335  0.1603 -0.0446
19616W        W35510  16.373   7.519   5.542  0.0343  0.0008  0.0955
19617W        W35511   8.432   7.062  15.763  0.3243 -0.2135 -0.1638
19618W        W35512   4.407  17.373   6.414 -0.0499  0.0899 -0.3181
19619W        W35513   8.667  14.840  14.691 -0.3099 -0.3566  0.1308
19620W        W35514   7.322   8.940  14.875  0.1459 -0.1835  0.0246
19621W        W35515  17.568   9.020   4.866  0.0918 -0.1666 -0.3380
19622W        W35516  11.500   3.894   5.000 -0.0094  0.0327 -0.0576
19623W        W35517   0.400  11.170  17.094 -0.0701 -0.2493  0.1682
19624W        W35518  16.078   6.033   3.725  0.0703 -0.2016 -0.2838
19625W        W35519   3.870  17.357   0.664  0.3536 -0.0224  0.0380
19626W        W35520   5.102  11.903   5.877 -0.0729 -0.0207  0.1041
19627W        W35521   3.126   3.352  15.778 -0.3228  0.3158 -0.0375
19628W        W35522  12.969  10.784   0.159 -0.1578 -0.2405 -0.0686
19629W        W35523   1.955  12.252  13.433 -0.2139  0.4038 -0.2044
19630W        W35524   3.843   7.688  14.107 -0.0133  0.1414 -0.0141
19631W        W35525  12.876  15.259  11.712 -0.0188  0.0651 -0.2579
19632W        W35526   8.738   4.416   2.944 -0.0928  0.1077 -0.2202
19633W        W35527   0.563   6.624   0.624  0.2072  0.1052 -0.2547
19634W        W35528   2.437   9.666  11.372  0.2552  0.2421 -0.1004
19635W        W35529  13.301   9.808   3.210 -0.1504 -0.4166  0.2033
19636W        W35530  15.875   1.227   2.189  0.0143  0.1864  0.1134
19637W        W35531   0.147  16.172   5.178  0.0522  0.0362  0.1420
19638W        W35532  11.118  13.719  15.663  0.3295  0.0212  0.0652
19639W        W35533   6.970  10.890  15.496  0.0202  0.2214  0.2662
19640W        W35534  13.184   4.576   5.173  0.1165 -0.0129 -0.1197
19641W        W35535  14.294   5.144   4.751  0.0988  0.1475 -0.0550
19642W        W35536   7.031   2.510   3.548 -0.0055  0.1791  0.2337
19643W        W35537  15.887  10.107   3.343 -0.0956 -0.0425 -0.0244
19644W        W35538   2.839   2.301   5.217 -0.1974  0.3960  0.0009
19645W        W35539  15.471   1.158   3.624  0.0100  0.1530  0.0026
19646W        W35540  16.670   0.916  16.184  0.0480 -0.0165  0.2358
19647W        W35541  16.587  10.401   2.886  0.0723  0.1185 -0.1779
19648W        W35542  11.974  12.584  15.326  0.2032 -0.1614  0.2018
19649W        W35543  13.446  10.961  12.698 -0.1506 -0.1313 -0.1853
19650W        W35544  15.544   1.995   3.197 -0.0026  0.1269 -0.0741
19651W        W35545  14.429  14.793   1.502  0.0373 -0.0024 -0.1190
19652W        W35546  15.118  10.781  15.609  0.1395 -0.1468  0.1015
19653W        W35547  17.529  14.703  11.796  0.4343  0.1520  0.0734
19654W        W35548  14.018   8.456  12.903  0.1763 -0.0006 -0.1858
19655W        W35549   5.352   0.732  16.811  0.1430  0.0080 -0.1585
19656W        W35550   2.257  13.776   4.278  0.0853 -0.1549 -0.0635
19657W        W35551   4.526   2.122  13.783 -0.0602  0.0701 -0.1751
19658W        W35552  14.006  11.692  17.231  0.2381 -0.0224  0.2212
19659W        W35553   8.516  15.383   0.561 -0.3409  0.2942  0.0619
19660W        W35554   3.811   3.207  13.218  0.0556 -0.5172  0.0807
19661W        W35555   8.001   5.483   5.595  0.0879  0.0022  0.1251
19662W        W35556   6.426  12.055   1.067 -0.2317  0.0132 -0.0089
19663W        W35557  10.666   3.041  13.757  0.4348  0.0096  0.0908
19664W        W35558   2.985   0.899   5.650  0.0680  0.0175  0.0682
19665W        W35559   8.318  11.264  10.628 -0.0621 -0.1178 -0.0171
19666W        W35560  13.044  13.663  12.985  0.1145 -0.0185 -0.1900
19667W        W35561  16.602  11.447  16.059 -0.0675  0.1890 -0.0176
19668W        W35562  16.065  13.439  12.203  0.0286 -0.2060  0.0529
19669W        W35563   8.659  14.365  13.113  0.3656  0.2077 -0.1964
19670W        W35564  14.085   8.820  11.324  0.2127 -0.0244  0.0331
19671W        W35565  17.304  13.893  17.180  0.1967 -0.0108  0.0330
19672W        W35566   5.591  13.174   2.778 -0.1520  0.0105 -0.3528
19673W        W35567   0.116  14.445  15.803  0.0582  0.2394  0.3293
19674W        W35568   5.093  15.490  13.067 -0.3859  0.0430  0.1052
19675W        W35569   7.895  11.228   5.318  0.1160 -0.0842  0.2697
19676W        W35570  14.350   1.200  15.797 -0.2786  0.1741  0.1237
19677W        W35571   5.728   7.165   0.583  0.1535 -0.2352 -0.0327
19678W        W35572   7.357   8.700  13.887 -0.3249 -0.0714  0.0887
19679W        W35573   0.518  17.477   1.813 -0.5178 -0.0429 -0.0021
19680W        W35574   0.293   6.626   1.054  0.1581  0.1809 -0.2460
19681W        W35575   4.115  13.375   3.268 -0.0558  0.1545 -0.1011
19682W        W35576   3.926   3.440   2.029  0.4603  0.1094 -0.2888
19683W        W35577   6.895   6.731   5.563  0.2135 -0.1834 -0.1915
19684W        W35578   2.910  15.174   3.283 -0.0255 -0.0070  0.1634
19685W        W35579   9.324  16.919   5.565  0.1916 -0.0835 -0.0711
19686W        W35580   0.332   4.453   1.398 -0.1042  0.1651  0.0461
19687W        W35581   1.673   9.260   2.099 -0.0828  0.2552  0.2180
19688W        W35582  12.689  13.627  13.391 -0.1799  0.1140  0.0717
19689W        W35583   4.551  13.755  13.146 -0.3448  0.0959 -0.0133
19690W        W35584  11.067  12.421   3.032 -0.0570  0.0791  0.1775
19691W        W35585  14.847   4.054   1.046  0.0151 -0.5611 -0.0369
19692W        W35586   0.734  15.601  13.637  0.2972 -0.1238  0.0266
19693W        W35587   9.097   7.314   0.568 -0.1730 -0.2642 -0.0566
19694W        W35588   0.104  10.823   1.167  0.1766 -0.1412 -0.1692
19695W        W35589   4.817  16.178   0.291  0.0515  0.0761  0.1346
19696W        W35590  12.520   2.841   1.737  0.1477 -0.2075  0.0188
19697W        W35591  17.448   3.124   2.505  0.0369  0.1054  0.0032
19698W        W35592   4.681  11.396   0.564 -0.0392 -0.3480  0.0159
19699W        W35593  12.072   1.583   2.537 -0.0425  0.4014  0.0125
19700W        W35594   7.343   1.118   6.177  0.0400 -0.3992  0.2956
19701W        W35595  11.092   7.017  16.552 -0.1262  0.0633 -0.0872
19702W        W35596  15.483  17.403   3.393  0.4156 -0.1751 -0.2904
19703W        W35597  17.452   0.818   3.180 -0.1467 -0.1331 -0.1280
19704W        W35598   9.679   2.024   6.054 -0.1583  0.3115  0.1733
19705W        W35599   5.020  10.386  13.078 -0.1971 -0.0353  0.2710
19706W        W35600  17.213  14.339  15.169  0.2800  0.3054  0.1544
19707W        W35601   3.337   4.335  14.350 -0.3164  0.0401 -0.0102
19708W        W35602  13.942   4.716   3.329  0.0664 -0.0935  0.2391
19709W        W35603   8.935   3.600  13.568 -0.0688 -0.1809  0.1312
19710W        W35604  11.023  16.072   5.878  0.0867  0.3190  0.2278
19711W        W35605   3.597   1.913   1.082 -0.2327  0.1063  0.2590
19712W        W35606   9.908   1.272  12.047  0.2406 -0.0215  0.0466
19713W        W35607   4.624   5.976  17.137  0.1465 -0.1034  0.0169
19714W        W35608   8.157   9.940  15.255 -0.5505 -0.0244  0.0787
19715W        W35609   6.525  17.563   1.799  0.1267  0.2807  0.1685
19716W        W35610  10.271   2.403  14.661  0.0790  0.2438  0.1383
19717W        W35611   0.608  12.697  13.301  0.1685  0.0721 -0.1504
19718W        W35612  15.517  10.316   1.859 -0.3839  0.3834  0.0899
19719W        W35613   4.752   2.319   4.880 -0.3654 -0.0510  0.1684
19720W        W35614   0.930   6.342   4.852  0.5456 -0.1113  0.0998
19721W        W35615  11.887   1.414  16.904  0.3194  0.0801 -0.0837
19722W        W35616   7.652   4.169  15.314  0.0331  0.0873  0.0209
19723W        W35617   3.739  15.128  12.152 -0.1126  0.0337  0.2491
19724W        W35618  17.077   8.305   3.423  0.0473 -0.0239 -0.2191
19725W        W35619  12.884   1.096  17.092  0.0313 -0.1865 -0.1649
19726W        W35620   4.261  12.560   3.407 -0.2003 -0.0926  0.1617
19727W        W35621  12.233  14.213   0.932 -0.0563  0.2366 -0.1056
19728W        W35622  10.703   3.296   4.592  0.0717  0.1822 -0.0412
19729W        W35623   8.667   3.849   1.574 -0.0754 -0.3578 -0.1879
19730W        W35624   5.669   5.928   6.238  0.2109  0.2580  0.0234
19731W        W35625   5.953   2.344  14.027  0.0407  0.2924 -0.4108
19732W        W35626   4.969  17.547  12.964 -0.2449 -0.2204  0.2229
19733W        W35627   0.167  16.832  15.293  0.3435  0.0743 -0.4115
19734W        W35628  17.265  14.432   3.551  0.2138 -0.1339  0.1634
19735W        W35629  14.667  10.350   5.926  0.2186 -0.0920  0.3285
19736W        W35630  10.444   1.117  16.120 -0.0093 -0.1520 -0.0627
19737W        W35631  10.612   8.440   4.140 -0.0046 -0.0396  0.0597
19738W        W35632  10.322  15.241  16.680  0.0235  0.2928  0.1732
19739W        W35633   3.859   7.755  12.061 -0.1933 -0.1119  0.3755
19740W        W35634   8.861   1.947   5.947  0.2270  0.0762  0.3348
19741W        W35635   4.035  14.447   4.816 -0.2880  0.1395 -0.0755
19742W        W35636   6.832   9.834   5.610  0.0721  0.1567  0.0031
19743W        W35637  16.974  12.629   4.115  0.1307 -0.0469  0.0525
19744W        W35638  14.828   5.481  11.968  0.2017 -0.1124  0.2953
19745W        W35639  15.846   3.044  15.708 -0.0523  0.0919  0.0462
19746W        W35640  13.073  15.588   2.519 -0.0885 -0.0776 -0.4181
19747W        W35641  13.063  11.803  15.902 -0.0858  0.1311  0.1354
19748W        W35642  15.188  12.206   3.922 -0.0424 -0.2119  0.1070
19749W        W35643   0.197   1.098  16.477 -0.1653  0.2606  0.4048
19750W        W35644   4.495   7.084   1.273 -0.0018  0.0263 -0.0893
19751W        W35645  11.368   8.889   3.657  0.0013  0.2300 -0.0604
19752W        W35646   8.267   4.755   0.552 -0.2501  0.3272 -0.1778
19753W        W35647   5.140   8.429  16.537 -0.3369 -0.0202  0.1655
19754W        W35648  10.902  11.139  14.503  0.0007 -0.0280  0.0880
19755W        W35649  16.695  12.438  14.292 -0.0162 -0.0214 -0.0409
19756W        W35650  10.701  12.165  11.951  0.2798  0.0513  0.1808
19757W        W35651   5.634   9.883  13.799 -0.0232 -0.1226  0.0927
19758W        W35652   5.905   5.845  12.672  0.2480  0.0512 -0.0749
19759W        W35653   0.190   3.519   2.475 -0.0859 -0.0539  0.1183
19760W        W35654   0.412  12.845  12.806 -0.2156  0.0046 -0.4964
19761W        W35655  15.150   9.450  11.981  0.0863  0.0939 -0.3314
19762W        W35656  11.408   0.755   0.565 -0.1886  0.0302  0.0121
19763W        W35657   0.975  12.400  15.085  0.0141 -0.0687  0.1074
19764W        W35658  12.406  12.998  12.480  0.0090 -0.1853  0.0242
19765W        W35659   7.615  16.329   3.313 -0.0098  0.1129 -0.1074
19766W        W35660   5.748   9.455   1.452  0.1569 -0.0183  0.0279
19767W        W35661  12.879  11.884  11.279 -0.0298 -0.1528 -0.2071
19768W        W35662  11.413  13.041   6.590 -0.5026 -0.0060 -0.1563
19769W        W35663  15.333   4.493  14.856 -0.2446  0.2850  0.0873
19770W        W35664   5.864  10.927   5.687 -0.2380  0.1367  0.0002
19771W        W35665  14.777  16.121  13.475 -0.0575  0.1695 -0.0756
19772W        W35666  10.255  13.007  12.819  0.1553  0.2164  0.2621
19773W        W35667  13.016   7.658   0.701 -0.0034 -0.5339 -0.2941
19774W        W35668   2.346   1.217  13.869  0.2829 -0.0497 -0.1982
19775W        W35669   3.061  14.652  15.119  0.0568  0.1785  0.0193
19776W        W35670  11.550   6.941  11.032  0.3829 -0.1355  0.0120
19777W        W35671   5.221   0.411  13.807 -0.0302 -0.2348 -0.0028
19778W        W35672   4.771   8.579   4.048 -0.2571  0.1098 -0.3284
19779W        W35673  12.312   1.280   1.362  0.0589  0.2853 -0.0387
19780W        W35674   8.519   6.886   1.267 -0.5479 -0.3381  0.0787
19781W        W35675   8.942   6.470   1.790  0.1523 -0.2751 -0.2415
19782W        W35676   3.267  16.979  13.718  0.0248  0.1198 -0.0485
19783W        W35677   5.803   1.762  13.966  0.0713 -0.0128 -0.2006
19784W        W35678   9.306  16.846  16.600 -0.0114 -0.0136  0.0618
19785W        W35679   6.818  10.728   5.950 -0.1763 -0.1338 -0.1366
19786W        W35680  10.784   8.550   3.604 -0.1247 -0.0431  0.2994
19787W        W35681  17.626  15.340  13.474  0.1156  0.3442 -0.0580
19788W        W35682   8.750  15.817   2.329 -0.0125 -0.2537 -0.0075
19789W        W35683   6.911  11.833  13.435 -0.1132 -0.2239  0.0989
19790W        W35684  12.284  11.166   1.587  0.1499  0.1148 -0.3761
19791W        W35685   8.277   5.146  12.357  0.0864  0.0249  0.0880
19792W        W35686  11.007   7.420  11.898  0.1088  0.0150 -0.2045
19793W        W35687  13.728  16.090   3.542  0.0981  0.0969 -0.0892
19794W        W35688   5.822   7.463   1.157  0.0210 -0.0098  0.0553
19795W        W35689  13.452   0.635   3.006 -0.1362  0.2851  0.0809
19796W        W35690   7.527  15.792   2.145  0.0721 -0.1735  0.0547
19797W        W35691   4.663  13.520  12.169  0.1193  0.1485 -0.0885
19798W        W35692   2.735  13.090  12.736  0.0009 -0.3983 -0.2236
19799W        W35693   0.337   9.181   2.731 -0.1837 -0.1862  0.0474
19800W        W35694  15.524   2.530  13.501  0.1783 -0.2019 -0.0231
19801W        W35695   8.749   5.409   0.086 -0.2237  0.0040  0.0685
19802W        W35696   2.193   0.920   6.259 -0.3219  0.0947  0.1632
19803W        W35697  13.130   7.673   4.852  0.2053  0.1410  0.1778
19804W        W35698  13.236  13.481   3.121 -0.2324  0.0418 -0.3052
19805W        W35699   2.693   3.899  14.962  0.1843  0.0841 -0.1186
19806W        W35700   4.255  14.783   2.045  0.1108 -0.1740  0.1034
19807W        W35701  15.784   2.423   0.825 -0.2768 -0.0121  0.1154
19808W        W35702   0.632  12.767  13.837  0.2880 -0.1285 -0.1133
19809W        W35703   5.067   7.104  14.011 -0.0995  0.1062  0.0913
19810W        W35704   3.799  17.152  12.645 -0.0164  0.1302  0.0601
19811W        W35705  13.818  15.589   4.202  0.2821 -0.0772 -0.0598
19812W        W35706   8.800   9.503  13.128  0.1887  0.0226  0.0844
19813W        W35707   1.665   0.895  15.069  0.2379 -0.1240  0.0733
19814W        W35708  16.621   7.334  13.966 -0.2683 -0.2043  0.2232
19815W        W35709   0.681   1.771   0.858 -0.3677  0.0437  0.0724
19816W        W35710  12.363   2.142   2.561  0.1373 -0.0669  0.2691
19817W        W35711  12.251  16.480   4.094  0.0824  0.2215 -0.3484
19818W        W35712   7.968   1.123  13.917  0.1124  0.0360 -0.2790
19819W        W35713   7.045   0.346   2.664  0.0746 -0.0533 -0.0639
19820W        W35714   1.109  10.142  15.991  0.3391  0.0087 -0.2016
19821W        W35715  12.360   4.246   5.723 -0.1324  0.0540  0.4094
19822W        W35716  17.490  12.280   3.602  0.2031  0.1049  0.1592
19823W        W35717  10.633  11.600  11.953 -0.0302  0.2714 -0.2403
19824W        W35718   0.261   5.903  11.631 -0.2972 -0.0635 -0.0615
19825W        W35719  17.305  15.336  12.856  0.0648 -0.0735 -0.1071
19826W        W35720   0.565  12.033   2.830  0.1277 -0.2126 -0.0761
19827W        W35721  10.888   7.992  15.364 -0.1632 -0.0127 -0.0178
19828W        W35722  15.779  16.795  14.756  0.1640 -0.1413 -0.1604
19829W        W35723   3.393  15.048   1.018 -0.1514  0.0149 -0.1237
19830W        W35724  17.340   6.959  14.235 -0.2517  0.0597  0.3288
19831W        W35725  11.524  15.615   3.983 -0.0848 -0.6083 -0.2277
19832W        W35726  14.247  13.557   3.917  0.2385  0.1175  0.1657
19833W        W35727   9.817  13.998  13.067  0.1748  0.2261 -0.2214
19834W        W35728  11.775  11.830   2.146 -0.1455  0.0545 -0.2525
19835W        W35729   5.408  16.287   0.632 -0.1669 -0.0023 -0.0581
19836W        W35730   6.594  10.880  16.053  0.3010 -0.0212  0.0614
19837W        W35731   7.817   1.272   0.262 -0.1913  0.0787 -0.0008
19838W        W35732   2.309   9.432   2.680  0.0909  0.2760  0.1674
19839W        W35733   1.190  16.100   0.204  0.1742 -0.2083  0.3343
19840W        W35734   8.276   0.909  14.960  0.1770 -0.0874  0.2344
19841W        W35735   6.606   9.115   1.980  0.0084 -0.0753 -0.0112
19842W        W35736  12.171   6.530   2.603 -0.1291 -0.1408 -0.0962
19843W        W35737   3.981  15.641   2.493 -0.1939  0.1019 -0.1838
19844W        W35738  10.410   0.762  14.670 -0.0203  0.1856 -0.1643
19845W        W35739   7.252   7.996   2.781  0.2650  0.1707 -0.0465
19846W        W35740   7.334   3.483   1.410  0.1930  0.1102  0.2083
19847W        W35741   1.281  11.046   4.432 -0.0003 -0.1653 -0.1712
19848W        W35742   9.342   1.894   1.959  0.1762 -0.0054  0.0387
19849W        W35743   3.703  11.070  13.309 -0.0034 -0.2372 -0.3869
19850W        W35744   1.882   9.609  11.517  0.0209 -0.1284 -0.4290
19851W        W35745  15.711   4.373  15.180  0.1527 -0.2982  0.2025
19852W        W35746  16.778  11.876   6.216 -0.0079  0.1891  0.2165
19853W        W35747   2.475  16.422  14.490 -0.1423 -0.2415 -0.1312
19854W        W35748   7.201   3.888  14.621  0.1588  0.0455 -0.1338
19855W        W35749  14.274   8.885  17.211  0.1374  0.0625  0.1400
19856W        W35750   4.883  12.984  17.247  0.1836 -0.0472  0.1005
19857W        W35751  10.098  16.658   1.591 -0.3366 -0.2010 -0.2524
19858W        W35752  16.332   8.488   5.330  0.0917 -0.2612  0.2240
19859W        W35753   9.953   6.245   4.748 -0.4178 -0.1205  0.4127
19860W        W35754  16.337   0.986   1.664  0.1636  0.3897 -0.0128
19861W        W35755  16.641   7.397   0.079 -0.1973 -0.2246  0.0611
19862W        W35756   8.905   8.961  16.089  0.0775  0.0009  0.0778
19863W        W35757   2.156   2.676  12.649 -0.0425  0.5182 -0.0669
19864W        W35758  16.773   3.097   5.817 -0.0313  0.2455  0.3320
19865W        W35759  11.497  12.655   1.674 -0.1087 -0.1296  0.0517
19866W        W35760   4.931  16.936   1.372  0.1647  0.0165 -0.2549
19867W        W35761   6.132  10.675  16.555 -0.0311 -0.0534 -0.1580
19868W        W35762   7.927   9.304  11.703 -0.0949 -0.1098  0.0155
19869W        W35763   3.968   8.074   2.017 -0.1210  0.0928  0.0887
19870W        W35764   9.303  12.570   4.562  0.2055  0.1434  0.1211
19871W        W35765  11.572  15.356  13.725  0.1982  0.1527 -0.3001
19872W        W35766   1.274   2.740   2.681 -0.1536 -0.1606  0.1732
19873W        W35767  10.237  11.067  15.708  0.2918  0.0363 -0.3672
19874W        W35768   9.167   8.142  11.427 -0.0156 -0.1471  0.0989
19875W        W35769   4.883   9.887  15.442 -0.4020  0.2285 -0.1947
19876W        W35770  16.649   6.379  14.126 -0.4037 -0.2714  0.1368
19877W        W35771  11.002  11.564  15.698  0.1989  0.3106  0.0784
19878W        W35772  15.826   3.347   3.436 -0.4593  0.3451  0.1933
19879W        W35773   6.897   3.875   4.331  0.4380 -0.1270  0.1895
19880W        W35774   4.649   4.135  14.076 -0.1511  0.0783  0.2445
19881W        W35775   7.401   4.657   1.367 -0.1061  0.0585  0.1200
19882W        W35776  11.903   9.177   5.690  0.1944  0.0363 -0.0918
19883W        W35777   5.237  17.422  15.070  0.0478  0.1502  0.0189
19884W        W35778  15.595  10.758   3.787 -0.0482  0.1825 -0.1373
19885W        W35779  15.276  11.134  16.590  0.1847  0.1927  0.0776
19886W        W35780  16.461   5.807   5.027 -0.0988  0.1380 -0.1662
19887W        W35781   2.226   1.588  17.135  0.2407  0.3604  0.0151
19888W        W35782   5.646  15.277   1.671  0.0364 -0.2420 -0.0111
19889W        W35783   2.851   8.859   5.069  0.0005 -0.0841  0.0674
19890W        W35784   1.298  13.946   2.858 -0.1953 -0.1084  0.0953
19891W        W35785  11.875   3.291  12.589  0.0268 -0.0238 -0.1468
19892W        W35786   4.199   2.607   0.319 -0.0269 -0.0108 -0.2068
19893W        W35787   5.839  15.941  14.894  0.0662 -0.1019 -0.0736
19894W        W35788   7.490  17.262  12.384  0.3914  0.1180 -0.3735
19895W        W35789   1.308  12.987  16.143 -0.0122  0.1606 -0.2025
19896W        W35790   2.952   6.525  14.393  0.0594  0.0050  0.2459
19897W        W35791  15.493  15.916   1.623  0.1340 -0.1376 -0.0189
19898W        W35792  10.904   9.857  12.289 -0.0563  0.0332  0.2593
19899W        W35793   8.971   1.248   3.297  0.0524 -0.0036 -0.4336
19900W        W35794  16.848  11.313   0.870 -0.0838 -0.0631  0.2906
19901W        W35795   1.482   7.122   0.391  0.0035 -0.0989 -0.1516
19902W        W35796   9.135  10.255   3.163  0.1989  0.0156 -0.1431
19903W        W35797   8.273  10.282   2.575  0.1831 -0.1050 -0.1557
19904W        W35798  14.255  16.808   0.076 -0.0771 -0.1276  0.2494
19905W        W35799   5.484   4.039  15.115 -0.0279 -0.1075  0.0523
19906W        W35800  11.158  13.750   5.068  0.0826  0.1621 -0.1809
19907W        W35801  12.120   5.867  15.511 -0.1412 -0.0494 -0.2808
19908W        W35802  11.167   7.775   2.994 -0.1791 -0.1242  0.0437
19909W        W35803   9.363  15.866  12.226 -0.1841  0.4549  0.1888
19910W        W35804   9.235  15.351  13.615 -0.0728  0.0035  0.1174
19911W        W35805  15.508  16.564  15.772 -0.1581  0.1649 -0.0558
19912W        W35806   5.060   5.747   3.776  0.1088 -0.2945  0.1236
19913W        W35807  14.832  16.046   0.021 -0.2937  0.0112  0.0633
19914W        W35808   2.132  16.556   2.394 -0.1911  0.0498  0.0386
19915W        W35809  16.000   6.835  17.200 -0.1246  0.0252  0.0542
19916W        W35810   1.746   5.363  12.549  0.0935  0.3053 -0.0358
19917W        W35811   3.800   2.236  17.018 -0.0482 -0.0744  0.2142
19918W        W35812   6.360   5.586   2.698  0.0367 -0.0242 -0.0374
19919W        W35813   5.518  15.033   4.600  0.0463 -0.4137  0.0742
19920W        W35814  13.891   8.931  14.525  0.0039 -0.3189  0.2592
19921W        W35815  17.619   6.883  13.615  0.1438  0.0177  0.1735
19922W        W35816   7.675  11.846  13.890 -0.2749 -0.1881 -0.2126
19923W        W35817   7.665  16.984   3.389 -0.0115  0.0509  0.0861
19924W        W35818   9.628   0.925  17.286  0.0533  0.0442 -0.1393
19925W        W35819   8.548  12.514   5.225 -0.2291 -0.1223  0.1827
19926W        W35820  17.127   9.916   4.058 -0.0645 -0.0119 -0.0412
19927W        W35821   3.392  11.262  12.957 -0.0527 -0.0343  0.2870
19928W        W35822   9.175   9.366  14.161 -0.0816 -0.0970  0.3638
19929W        W35823   5.678  12.624  16.835  0.3734 -0.0461 -0.1130
19930W        W35824  12.213   4.979  16.049 -0.1690 -0.3543 -0.1711
19931W        W35825   8.237  10.370  16.065  0.2136  0.4158 -0.7080
19932W        W35826   7.116   9.111   1.376  0.0477  0.1506  0.0136
19933W        W35827   2.371   9.066  15.728 -0.1601  0.2564 -0.1779
19934W        W35828   5.071   1.329   4.218 -0.1986  0.1320  0.2634
19935W        W35829  13.971   3.349   5.497 -0.0998 -0.1802  0.1739
19936W        W35830   5.320  16.499  16.301 -0.2200  0.0165 -0.1737
19937W        W35831   5.754   3.280  13.551  0.1034 -0.0191  0.0030
19938W        W35832   2.577  12.277  16.610 -0.3766  0.1965 -0.0138
19939W        W35833  14.455   4.313  14.529  0.0740 -0.3632  0.0831
19940W        W35834   4.958  16.478   2.638 -0.0952  0.0494 -0.2362
19941W        W35835   9.677  11.108  16.515  0.3495 -0.1961 -0.0089
19942W        W35836  11.639   9.552  16.836  0.1193 -0.1860  0.2106
19943W        W35837   7.839   2.656   3.271 -0.0211 -0.0312 -0.2306
19944W        W35838  14.476   1.348  12.145  0.3307 -0.0707  0.0342
19945W        W35839  11.047  16.940  16.371 -0.0239 -0.1157  0.1063
19946W        W35840   0.043   9.565   3.031  0.1822 -0.0930  0.1456
19947W        W35841   2.364   7.461   2.763  0.3096  0.0780  0.0250
19948W        W35842   7.816  16.879  12.364  0.2295 -0.2010 -0.0027
19949W        W35843   2.687   8.315  14.400  0.1974  0.1011  0.1181
19950W        W35844   2.232  14.770   6.437  0.0068 -0.0170 -0.1199
19951W        W35845  12.629   7.947  16.708  0.3712  0.1740  0.0880
19952W        W35846   2.192   5.157   0.043  0.1266 -0.1507  0.2543
19953W        W35847   8.548  12.959  14.378  0.0124  0.1463 -0.0833
19954W        W35848  13.130  15.457   2.003  0.2075  0.1882  0.0116
19955W        W35849   7.893   9.393   6.387 -0.2641 -0.0343 -0.2233
19956W        W35850   9.602   9.338   4.314  0.0157  0.1988 -0.0350
19957W        W35851   8.325  13.489   0.697  0.0498  0.0433  0.0136
19958W        W35852   8.678   2.979  14.944 -0.2090  0.2164  0.0311
19959W        W35853   1.600  14.955  16.699  0.0557  0.0260 -0.2039
19960W        W35854   9.650   0.461   6.081 -0.5707  0.1280 -0.1835
19961W        W35855  17.173   7.282   0.140 -0.1090  0.2457  0.2290
19962W        W35856   1.533   5.387   5.912  0.1179 -0.0891 -0.1735
19963W        W35857   6.263   2.680   3.985 -0.2859 -0.4382  0.1652
19964W        W35858  11.409   2.380  13.338  0.3608  0.2126  0.2440
19965W        W35859   6.993  12.320  13.212  0.4351  0.0251  0.1549
19966W        W35860   6.691  13.418   1.728  0.0440  0.0997 -0.1394
19967W        W35861   4.869  15.609  14.086  0.0294 -0.0245  0.2178
19968W        W35862   3.905  14.816   5.492 -0.1237  0.0794 -0.0614
19969W        W35863  14.029   7.975  12.811  0.0544  0.0247 -0.0124
19970W        W35864   7.540  12.695   4.219  0.2083 -0.0023 -0.4573
19971W        W35865   9.294  14.997  13.104  0.4049 -0.0450  0.0500
19972W        W35866   4.773   3.388  15.712  0.3273  0.0086  0.3293
19973W        W35867   5.592   1.164  15.048  0.1295  0.0658 -0.1149
19974W        W35868  13.022  11.387   1.217  0.0051  0.2645 -0.2037
19975W        W35869  15.632   5.761  13.423 -0.5055 -0.1233  0.2073
19976W        W35870  12.730   7.604   2.918 -0.0152  0.0117  0.3314
19977W        W35871  13.911  12.868  13.544  0.0049 -0.0890  0.0658
19978W        W35872  10.065  11.116   3.017  0.3217  0.1509 -0.1112
19979W        W35873  12.539   6.227   1.884  0.0428  0.1711 -0.1352
19980W        W35874  14.625   0.104  16.299 -0.0878  0.2921  0.0088
19981W        W35875  11.954  13.322   2.189  0.0569 -0.1010  0.2485
19982W        W35876  12.181   3.342   6.111 -0.1489  0.0071 -0.1247
19983W        W35877   7.462  12.953  13.611 -0.2508  0.0209 -0.0611
19984W        W35878   8.047   6.461   4.757 -0.1633  0.4339 -0.0588
19985W        W35879  10.597   1.998  16.831  0.2845  0.0204 -0.0286
19986W        W35880   2.381   1.118   3.479 -0.3192 -0.1394 -0.2067
19987W        W35881   9.659   8.587   3.862  0.0881 -0.0820  0.3185
19988W        W35882  14.275   9.853  14.182  0.0703 -0.2462  0.0185
19989W        W35883   0.316  14.425  14.803  0.1042  0.3037  0.1104
19990W        W35884  12.891   2.594   0.372  0.3289 -0.2482 -0.1113
19991W        W35885   3.376   2.599   1.812  0.1181 -0.0711 -0.2569
19992W        W35886   9.381   2.504   4.838 -0.3537  0.4020 -0.0184
19993W        W35887  15.857  15.170  15.410  0.0656 -0.1590  0.2785
19994W        W35888  12.845  12.770  12.318  0.0491 -0.0761  0.2075
19995W        W35889   5.011   3.718  13.220 -0.2626  0.2587 -0.0381
19996W        W35890   7.365   1.096   4.406 -0.0363 -0.1979 -0.0828
19997W        W35891  12.533   8.572   2.084  0.0857  0.1039  0.0375
19998W        W35892   9.633  17.413   0.088 -0.0279 -0.0739 -0.0809
19999W        W35893  17.331   8.821   0.034  0.0113  0.0633  0.0169
20000W        W35894   9.531   7.779   0.741 -0.3137 -0.1499 -0.3570
20001W        W35895   0.411   5.149  15.474  0.0921  0.0648  0.2313
20002W        W35896   5.116   0.479  17.203  0.1313  0.3103  0.2995
20003W        W35897   7.833   1.523  14.244  0.1148 -0.2777 -0.0392
20004W        W35898  14.492  11.478   2.195  0.0822  0.2234  0.1064
20005W        W35899   6.318   2.709   1.656  0.3740  0.0060 -0.0518
20006W        W35900  14.470  13.042   0.646  0.1420 -0.0865  0.0315
20007W        W35901   4.814   1.696   0.547  0.1791 -0.0863 -0.5318
20008W        W35902  15.174   5.209   1.736  0.1013 -0.1140 -0.1601
20009W        W35903   2.175  11.410   2.918 -0.1128  0.1493 -0.1061
20010W        W35904   6.755   2.790   1.254 -0.1795  0.0296  0.0414
20011W        W35905  10.532  14.751  11.741 -0.3456  0.0322  0.0820
20012W        W35906   9.078  16.863   1.681  0.1606  0.1796 -0.0685
20013W        W35907  10.852  14.981  13.378 -0.1531  0.1493  0.2401
20014W        W35908  11.931  11.881  14.057  0.0909 -0.2142  0.0391
20015W        W35909   8.903   4.642  17.050 -0.1889  0.0255 -0.0847
20016W        W35910  13.416  16.791   2.311  0.1659 -0.2398 -0.2892
20017W        W35911   0.064  14.901  16.004  0.0731 -0.0796  0.0939
20018W        W35912   1.462   5.795  16.270  0.0540  0.0019  0.2290
20019W        W35913  17.431  14.626  16.749 -0.2971 -0.0074 -0.0266
20020W        W35914   3.462   1.244  16.460 -0.0012 -0.2279 -0.0036
20021W        W35915   7.955  17.023  16.893  0.3354  0.0734  0.1298
20022W        W35916  13.591   1.067   3.739  0.0905  0.4193  0.1418
20023W        W35917  14.812   2.984   0.219  0.1276 -0.1225  0.1609
20024W        W35918   0.113   3.743  11.950  0.0580  0.2480 -0.0071
20025W        W35919   9.758  15.472   4.824  0.0998  0.0834  0.2355
20026W        W35920  15.573   1.846  15.477 -0.1483 -0.1633 -0.4141
20027W        W35921  11.952   3.866  15.797 -0.0972 -0.0965  0.3482
20028W        W35922   8.126  15.759   5.604 -0.1048  0.2038  0.1525
20029W        W35923  13.291  15.299  13.134 -0.0948 -0.3593 -0.0223
20030W        W35924   9.360  13.792  15.575 -0.1318 -0.0213  0.0979
20031W        W35925   7.431   2.952  12.456 -0.2675 -0.0745 -0.0314
20032W        W35926  15.857  16.271   2.140 -0.2602  0.1116  0.3322
20033W        W35927   2.229  12.373   5.041  0.0068 -0.0794 -0.0318
20034W        W35928   8.298   3.841   2.178 -0.0274  0.1652 -0.0727
20035W        W35929   7.083  10.073   3.809 -0.1157 -0.0263  0.0113
20036W        W35930   7.266  12.618   2.548  0.1396 -0.1009  0.0503
20037W        W35931   7.337  13.587  12.235  0.3424  0.5270  0.0765
20038W        W35932   7.678  11.034   4.787 -0.1453  0.0779  0.3042
20039W        W35933  12.593  14.223  14.057  0.0456 -0.1318  0.0278
20040W        W35934  14.511   4.159  15.768  0.2074 -0.1654 -0.0950
20041W        W35935   3.717  16.981  13.533  0.3163 -0.1133  0.3254
20042W        W35936  15.882  10.325   0.935  0.3179 -0.0226 -0.0524
20043W        W35937  13.456   4.962  15.324  0.0258 -0.2420 -0.0623
20044W        W35938  12.619   1.714   5.292 -0.2860  0.0999  0.3026
20045W        W35939   3.723  14.708   1.263  0.5259 -0.1403  0.0073
20046W        W35940  15.088  14.380   1.993 -0.0988 -0.0798 -0.0919
20047W        W35941  13.925   4.042   1.069  0.0510  0.0313 -0.0257
20048W        W35942   5.893   7.110   5.505 -0.2432  0.0056  0.1654
20049W        W35943  10.242  11.965   5.020  0.0002  0.2064 -0.1673
20050W        W35944   1.841  10.253   3.039  0.0016 -0.0657  0.0583
20051W        W35945  10.461   6.863  12.407 -0.0786 -0.1790  0.0633
20052W        W35946   7.605  17.634   2.193 -0.1632 -0.0705  0.4165
20053W        W35947  11.582   4.911  12.143 -0.0461  0.1855  0.0498
20054W        W35948  15.743   9.304  14.451 -0.1453  0.0219  0.1196
20055W        W35949   9.863   8.288  15.473 -0.1235 -0.1564  0.1720
20056W        W35950  16.058  16.336  12.083 -0.3877  0.0474 -0.1186
20057W        W35951  14.406  15.301  16.326  0.1113 -0.0352  0.4135
20058W        W35952   3.713  12.120   4.478 -0.0326 -0.2521 -0.0877
20059W        W35953   5.804   8.297  15.718 -0.0464  0.1128 -0.1355
20060W        W35954   0.699   8.139  14.169 -0.3749  0.2129 -0.0002
20061W        W35955   4.223   0.646   6.473  0.1070  0.2359  0.1880
20062W        W35956  12.861  14.783  15.599 -0.1233  0.3863 -0.0137
20063W        W35957  17.440   5.862   1.727 -0.1319 -0.2203 -0.1821
20064W        W35958  10.302   5.917   0.578  0.3190 -0.0888 -0.3471
20065W        W35959  15.405  13.904   1.213 -0.1042 -0.1839 -0.0060
20066W        W35960   5.029   9.870  14.813  0.1684  0.0047  0.1013
20067W        W35961  12.157  10.728   4.618  0.2895 -0.1432  0.3998
20068W        W35962  15.715  15.519   1.724 -0.1508 -0.1406 -0.0518
20069W        W35963   4.486   5.819  13.129  0.1149  0.1698  0.0397
20070W        W35964   5.906  17.518   5.362 -0.1613 -0.2223  0.2771
20071W        W35965   8.099  10.584  17.167 -0.3317  0.4715  0.1659
20072W        W35966   9.920  16.052   2.689 -0.1349 -0.2579 -0.3075
20073W        W35967   1.013  16.049   1.772  0.0294  0.0351 -0.1825
20074W        W35968   7.343  11.234   2.920 -0.2377 -0.1688 -0.0892
20075W        W35969   5.970   9.661   5.602 -0.1259 -0.2360 -0.2750
20076W        W35970   4.635   4.266  14.844  0.1594  0.0308 -0.0290
20077W        W35971   5.021   5.292   2.428 -0.3232  0.0293  0.0838
20078W        W35972   3.426   0.720  13.314 -0.0680  0.1678  0.1629
20079W        W35973   6.873  13.967  15.549 -0.0839 -0.1273  0.0113
20080W        W35974   3.690   0.680   0.194 -0.1009  0.0565  0.1525
20081W        W35975  16.108  16.894   2.732  0.0319  0.0425 -0.0192
20082W        W35976   9.574   2.018  13.445  0.0367 -0.2420 -0.1675
20083W        W35977   8.361  14.918   1.609  0.0723 -0.0830  0.0840
20084W        W35978  15.255   4.635   0.491  0.0430  0.1793 -0.0434
20085W        W35979   0.076  16.480  16.912 -0.1404 -0.2389 -0.2065
20086W        W35980   9.499  10.863  11.885  0.0393 -0.0443  0.1223
20087W        W35981   5.276  17.211  13.832 -0.2908 -0.0378 -0.2181
20088W        W35982  15.824   2.844  12.801 -0.0417  0.0942  0.1122
20089W        W35983  11.167   2.432  11.723 -0.1162  0.0401 -0.1653
20090W        W35984   0.804  13.712  15.689 -0.4373  0.1683 -0.0422
20091W        W35985  13.193   5.847  16.457 -0.0535 -0.0342  0.0368
20092W        W35986   7.239   9.286   3.207  0.3257 -0.1757 -0.3674
20093W        W35987   6.959   9.534  14.223  0.1623  0.2944 -0.0005
20094W        W35988  15.699  12.074   5.494 -0.2326  0.0352 -0.2443
20095W        W35989   1.817   7.828  15.874 -0.1827 -0.1169  0.2691
20096W        W35990  17.352   9.260   5.345 -0.1294  0.1555 -0.2091
20097W        W35991  12.206  10.404  15.058 -0.0855  0.3473 -0.1907
20098W        W35992   6.143   5.751  12.079  0.4718 -0.2284 -0.5160
20099W        W35993   1.584  16.303  14.859 -0.1145  0.1571 -0.2104
20100W        W35994   8.974   0.268   2.509 -0.3319 -0.3463  0.0472
20101W        W35995  14.950   0.260  13.578 -0.4707 -0.4197  0.1753
20102W        W35996  16.347   0.310   4.782  0.0434  0.1825  0.0677
20103W        W35997   7.042   5.240  16.643  0.1141  0.1028 -0.2462
20104W        W35998  16.151   5.733  13.483  0.0329  0.2372  0.0432
20105W        W35999  11.174  15.012   0.763  0.1357  0.1081 -0.1550
20106W        W36000   7.371   2.782   2.064  0.2850 -0.0669  0.0351
20107W        W36001   9.929  15.475   1.895 -0.0739  0.0814 -0.0482
20108W        W36002   3.211  11.047  13.413 -0.2454  0.0885 -0.0746
20109W        W36003  15.876   2.230   0.383 -0.1165  0.1610 -0.0540
20110W        W36004   3.382   3.896   6.182  0.1750 -0.2692  0.1951
20111W        W36005   5.551  10.243   4.432  0.0736 -0.2051  0.3336
20112W        W36006   7.946  15.945   3.447  0.2254 -0.0330  0.0580
20113W        W36007   6.423  10.445   4.140  0.0560 -0.0929  0.2948
20114W        W36008   1.209   5.460   2.272  0.0489  0.0905 -0.4091
20115W        W36009   2.123  11.472  16.605  0.0164 -0.0481 -0.1752
20116W        W36010  16.313  11.171  15.225  0.1031  0.0013  0.2056
20117W        W36011   5.968  16.245  11.978 -0.0442  0.2059 -0.0715
20118W        W36012   6.734  13.780   4.794  0.4355 -0.0628  0.1889
20119W        W36013   9.295   3.812   4.773 -0.0345  0.2959 -0.2452
20120W        W36014   2.267  16.155  12.548  0.2708  0.3241 -0.2446
20121W        W36015   8.193  14.193  11.748  0.1571 -0.1339 -0.1124
20122W        W36016   4.701   5.978  15.106 -0.1552 -0.3427  0.1720
20123W        W36017   1.616  13.588  14.315 -0.0089  0.2486 -0.1354
20124W        W36018  17.618   6.389   4.575  0.3465 -0.0468 -0.2769
20125W        W36019  14.271   0.485   2.504 -0.2460  0.3783  0.1782
20126W        W36020  14.176   4.250   5.217  0.2101 -0.0023 -0.0420
20127W        W36021   3.333   4.817   4.352 -0.0894  0.1246  0.0778
20128W        W36022  10.500   7.433   3.906  0.2275  0.0209 -0.2182
20129W        W36023   9.296  14.909   2.325  0.1448 -0.2861 -0.3707
20130W        W36024  10.244   7.324  12.397 -0.3718 -0.0505 -0.0270
20131W        W36025   1.608  15.921   5.071  0.3295  0.0489 -0.0467
20132W        W36026   0.392   2.567   2.637  0.1734 -0.1303 -0.0285
20133W        W36027  13.461  12.767  14.476  0.2265  0.0686 -0.0213
20134W        W36028   9.426   2.947  16.581  0.1133 -0.1407 -0.2240
20135W        W36029   8.126   8.457   1.763 -0.1830  0.2334  0.2139
20136W        W36030  12.985   5.400   5.803  0.0297 -0.1892 -0.0700
20137W        W36031  15.553   0.388  13.911  0.4319 -0.0669  0.0881
20138W        W36032   8.391   2.130  16.780 -0.1059 -0.0716 -0.1949
20139W        W36033   0.067   1.562   3.788 -0.0896  0.1415 -0.1787
20140W        W36034  10.078  15.635   0.377 -0.0092 -0.2435 -0.2353
20141W        W36035  12.700  17.638   1.441  0.4049 -0.0969  0.1331
20142W        W36036  10.450   9.669  12.012 -0.2035 -0.0803 -0.1226
20143W        W36037  12.559   1.707  12.063  0.0838  0.1262 -0.0156
20144W        W36038   1.391  15.833  15.468 -0.0515 -0.0060 -0.1016
20145W        W36039  13.889   3.759   0.250 -0.1009 -0.1418  0.0146
20146W        W36040  16.346   3.295   5.979  0.2964  0.0075  0.2009
20147W        W36041   5.257  15.578   3.742  0.3546 -0.0682  0.0897
20148W        W36042   1.512   9.028   1.327  0.0531 -0.2005  0.2615
20149W        W36043  10.297   2.590  16.182  0.0265 -0.1408 -0.2628
20150W        W36044  15.027  15.285   4.901 -0.0393  0.0813  0.1518
20151W        W36045  12.117  10.759   1.893 -0.1330 -0.1045  0.2267
20152W        W36046   8.906  17.027  14.294  0.3019 -0.1831 -0.2614
20153W        W36047  14.108  13.307  12.358  0.0678 -0.0960 -0.2095
20154W        W36048   7.295  11.965   5.650 -0.0170  0.0136  0.1725
20155W        W36049  13.109  12.022   2.889  0.0358  0.1069  0.0824
20156W        W36050   2.342  12.110  15.598 -0.0220  0.0076  0.2343
20157W        W36051  17.313   7.426  13.067 -0.0441  0.1772 -0.1481
20158W        W36052   3.365  11.338  15.873 -0.1577 -0.3136  0.1436
20159W        W36053  13.253  13.347  16.532 -0.1384 -0.0720  0.2979
20160W        W36054  13.513  12.277   0.336  0.0452 -0.0362 -0.2862
20161W        W36055  17.005  11.343   1.937 -0.2184 -0.0860  0.0906
20162W        W36056   5.204   1.185   5.687 -0.2628  0.2636 -0.5353
20163W        W36057  11.146  16.400  14.952 -0.0011  0.1904  0.1597
20164W        W36058   4.178  17.013  14.391  0.0172 -0.0632  0.2107
20165W        W36059   1.493   5.614  12.966 -0.1142  0.2359  0.2495
20166W        W36060  10.849  13.031   2.070  0.0613 -0.1382  0.0614
20167W        W36061   3.207   0.208   4.215  0.2434 -0.1070 -0.3479
20168W        W36062   0.965   9.878   3.225 -0.1220 -0.1028 -0.0964
20169W        W36063   7.092   1.501   4.227  0.1375  0.1496 -0.1383
20170W        W36064   2.065  12.172   0.672  0.1583  0.0018  0.1596
20171W        W36065  14.261   3.022  15.250  0.0683 -0.0600 -0.0042
20172W        W36066  11.293  11.210   1.846 -0.1315 -0.0614  0.0286
20173W        W36067   0.255   6.585   0.165  0.0716 -0.2154 -0.4146
20174W        W36068   1.490   3.065   4.450  0.0789  0.0763 -0.0171
20175W        W36069  16.531  16.655  15.479  0.0769 -0.0192 -0.1963
20176W        W36070  11.176  10.363   3.444  0.3374 -0.2976 -0.3358
20177W        W36071  15.536   0.305  13.417  0.3956  0.0588  0.0028
20178W        W36072   0.404   1.451   0.567  0.3368 -0.2004 -0.2642
20179W        W36073   3.977   0.892   1.489  0.1386  0.1280  0.0196
20180W        W36074  14.758  15.660   1.387  0.1167 -0.1109 -0.3443
20181W        W36075  16.700   9.019   3.714 -0.3566  0.0223  0.2784
20182W        W36076   8.184   7.415   2.812 -0.2982  0.1533  0.1823
20183W        W36077   8.670  14.701   4.897 -0.1993 -0.0841  0.2256
20184W        W36078   1.241  14.940  12.862  0.0348 -0.4655  0.0729
20185W        W36079   7.217  15.804  15.704 -0.1220 -0.1505 -0.3641
20186W        W36080   6.825  15.897   3.405  0.1466  0.1845  0.0305
20187W        W36081   6.961  15.334   0.211  0.1198 -0.0673 -0.1754
20188W        W36082  12.237   8.953  13.529 -0.2163 -0.1707  0.0221
20189W        W36083  11.727  15.430  14.924 -0.0871  0.1032  0.0266
20190W        W36084   6.541   2.054  16.597 -0.0897 -0.0484 -0.0274
20191W        W36085  10.418   2.289   3.630  0.2977 -0.2321 -0.0702
20192W        W36086  17.225   2.461   5.987 -0.0930 -0.5304  0.0002
20193W        W36087   2.373   4.013   2.204 -0.0854 -0.1671 -0.0453
20194W        W36088   6.855   0.432  16.364  0.1600 -0.2531 -0.4402
20195W        W36089  16.955  16.011  12.275  0.2438 -0.2971  0.1005
20196W        W36090   5.870   5.506   2.533  0.1624  0.3021 -0.0763
20197W        W36091   4.550   5.029  14.700  0.2203 -0.0431 -0.1132
20198W        W36092   3.291   9.534   3.466 -0.1392  0.2703 -0.1720
20199W        W36093   1.763   2.869   3.444 -0.3657  0.1072 -0.6783
20200W        W36094   2.966  13.791  13.132  0.0025 -0.2181  0.1081
20201W        W36095  12.000  11.614   0.819  0.1353 -0.1485 -0.0782
20202W        W36096  15.645   8.100  13.787 -0.0727  0.2822 -0.1027
20203W        W36097  16.729   9.242  14.095  0.1966  0.2986 -0.1112
20204W        W36098  15.829  12.524  13.847  0.1275  0.0632 -0.1714
20205W        W36099   5.841   7.616   1.700 -0.3006 -0.2086  0.3203
20206W        W36100  10.791  17.020   2.287  0.2249 -0.0407  0.0460
20207W        W36101   9.734  11.637   4.173 -0.1665  0.0753  0.0305
20208W        W36102   3.551  11.028   0.853  0.0563  0.0601 -0.0241
20209W        W36103   1.288  15.733  14.320  0.3746  0.0665 -0.1324
20210W        W36104  16.189   9.677  16.084  0.1258  0.1707 -0.0987
20211W        W36105   4.561   9.076  12.787 -0.0864 -0.1516  0.2400
20212W        W36106   3.248  17.373  15.915 -0.1617 -0.0622 -0.0070
20213W        W36107  15.507   9.995  16.422 -0.1344 -0.1814 -0.1303
20214W        W36108  13.637   4.645  13.038  0.2821 -0.1991 -0.0381
20215W        W36109  14.888   6.857   0.932  0.3072  0.0286 -0.1781
20216W        W36110   0.405   1.321  12.417  0.2473 -0.0686  0.0522
20217W        W36111  15.295  13.704  14.822 -0.0071  0.0589  0.0261
20218W        W36112   5.335  17.490   2.027  0.2341  0.0356  0.2142
20219W        W36113  10.510  14.427   2.043  0.1112 -0.0251  0.2323
20220W        W36114  17.493   3.122  16.960 -0.0578  0.0492 -0.1320
20221W        W36115  16.178   1.229   1.227  0.0704  0.0366 -0.0284
20222W        W36116  14.737  11.927   3.106  0.0553  0.1483  0.1338
20223W        W36117   6.361  10.633  13.803  0.1274 -0.1673 -0.0605
20224W        W36118   2.081   9.469   4.678 -0.2545 -0.0551  0.0465
20225W        W36119   0.152  14.906   0.227  0.0295  0.0189  0.3028
20226W        W36120   5.073   9.734   5.399  0.0788  0.1144  0.2979
20227W        W36121  16.425   9.691   4.793 -0.1343  0.0846  0.0727
20228W        W36122   8.603  14.940  15.172  0.1541 -0.1813 -0.1600
20229W        W36123  13.664   2.186   2.369  0.0098 -0.0993 -0.0400
20230W        W36124  16.813  11.499   4.740 -0.2548  0.3845 -0.2735
20231W        W36125   3.879  10.058  15.721 -0.0670  0.1345  0.2383
20232W        W36126   7.290   5.743  13.775  0.0710 -0.2618  0.1648
20233W        W36127  11.696   1.542  13.788  0.3204 -0.0507  0.1429
20234W        W36128  11.336  14.333  17.219 -0.1944 -0.2273 -0.0036
20235W        W36129   1.096  15.810   2.689 -0.1040  0.0804  0.0831
20236W        W36130   8.728  13.846   0.734 -0.0301 -0.0747 -0.1660
20237W        W36131  12.875  10.241   1.852  0.1526  0.2518 -0.2453
20238W        W36132   0.322   8.562   3.241 -0.2305  0.0285  0.2404
20239W        W36133   9.863   2.803  16.425  0.2930 -0.2408 -0.3701
20240W        W36134  10.032   4.140   3.523  0.0635 -0.2964  0.0243
20241W        W36135  15.000  17.552  16.574 -0.0113  0.1715  0.2394
20242W        W36136  14.977  11.652   3.864 -0.0207 -0.1682  0.1105
20243W        W36137   0.328  14.995   4.663 -0.0206 -0.0265 -0.3057
20244W        W36138  11.563   2.646  13.707  0.1819 -0.0732 -0.0353
20245W        W36139   4.429  12.966  11.070 -0.0084  0.2490 -0.2302
20246W        W36140  10.532  14.325   5.859  0.0126  0.1762 -0.0143
20247W        W36141   9.711  12.092   4.787  0.1959 -0.1163 -0.1139
20248W        W36142  10.493   5.051  13.277 -0.0093 -0.2123 -0.0559
20249W        W36143  10.312  10.693   5.148  0.0427  0.0323 -0.3043
20250W        W36144  16.907   6.928  15.238 -0.0120  0.4195  0.3528
20251W        W36145  13.909   7.638   2.271  0.1739 -0.2715 -0.0395
20252W        W36146   7.669  10.653  16.781 -0.2050 -0.1502 -0.1634
20253W        W36147  16.541  10.684  13.188  0.2239  0.1231 -0.2199
20254W        W36148  14.152   0.313   3.005 -0.0363  0.1640 -0.0115
20255W        W36149  10.624  17.622  13.277  0.0059 -0.1574  0.2020
20256W        W36150   5.975   3.065   2.047 -0.2679  0.0669  0.0325
20257W        W36151   3.111   2.872   5.805 -0.2050 -0.0941  0.3435
20258W        W36152   6.730  10.864  13.616 -0.0887 -0.2188 -0.1857
20259W        W36153  11.762   2.155  13.564 -0.1704  0.0879 -0.0531
20260W        W36154   6.469   9.044   5.338  0.1864  0.2125 -0.0115
20261W        W36155  11.456   5.368  17.083  0.3002  0.1818 -0.2115
20262W        W36156  16.584  13.030   2.312  0.0313  0.3057  0.1216
20263W        W36157   0.958   7.938  13.104 -0.1265  0.1539 -0.2250
20264W        W36158  16.089   9.294  12.576  0.3107  0.1352  0.0959
20265W        W36159   0.391  14.156   2.638 -0.1119 -0.0013 -0.1068
20266W        W36160   0.458  16.251  14.033  0.1306  0.1066 -0.0050
20267W        W36161   0.816   1.537  13.172 -0.1019  0.2314  0.0460
20268W        W36162  14.118   8.139   0.556  0.0189 -0.0484 -0.1669
20269W        W36163   9.910   1.413   1.695  0.4337  0.4390  0.2589
20270W        W36164  10.058  11.738  13.204  0.1522 -0.0581 -0.0015
20271W        W36165  14.768   3.724  15.713 -0.0536  0.1197 -0.0668
20272W        W36166   0.281   7.464   0.589  0.1144 -0.1655 -0.0860
20273W        W36167  14.865   8.712   0.509  0.0298  0.1498 -0.2063
20274W        W36168   5.490  12.080  12.766 -0.3236 -0.2580 -0.1913
20275W        W36169  11.194  15.836   4.527 -0.1694 -0.1724  0.1779
20276W        W36170   3.986   5.870   3.732 -0.1118 -0.0837  0.2808
20277W        W36171   3.516  10.440  15.701  0.0936 -0.2559 -0.0380
20278W        W36172  17.578  10.856   4.308  0.0355  0.2049 -0.0877
20279W        W36173  17.146  15.391   1.629 -0.1246 -0.0462 -0.0182
20280W        W36174   2.801   8.580  14.983 -0.0822 -0.3535 -0.1004
20281W        W36175  12.698   5.304  15.353 -0.0295 -0.2226 -0.0179
20282W        W36176   5.831   0.821   0.607 -0.0052  0.3344  0.1817
20283W        W36177   8.812   6.399   2.302 -0.3705 -0.0069  0.2210
20284W        W36178   8.829   8.614  13.630  0.2440  0.0196 -0.1633
20285W        W36179  12.095   0.483  15.966 -0.1921  0.0683 -0.0074
20286W        W36180   4.938  10.090   4.925 -0.0647 -0.1033  0.2721
20287W        W36181  12.036   4.900   2.977  0.1099 -0.2718 -0.2918
20288W        W36182  13.946  16.371   1.562  0.0040 -0.1385 -0.1186
20289W        W36183   7.436  10.156   0.128 -0.0670  0.1724  0.2336
20290W        W36184  15.470   8.635  11.852 -0.1809 -0.0354 -0.1572
20291W        W36185   4.157  10.978   2.412 -0.1687  0.3178  0.0222
20292W        W36186  10.990  16.558   1.261 -0.0758 -0.1452  0.1176
20293W        W36187   0.628  14.409   3.619  0.0373 -0.3522 -0.1603
20294W        W36188   5.498  11.926   5.519 -0.0184 -0.1325  0.0738
20295W        W36189   4.081  12.008   6.484  0.2853 -0.1131 -0.1973
20296W        W36190   2.895   0.063   5.211 -0.3419 -0.3257 -0.0018
20297W        W36191   5.885  12.769  13.485 -0.0383 -0.5543 -0.1077
20298W        W36192  13.300   9.598  12.165 -0.3024 -0.4105 -0.4121
20299W        W36193   9.639   8.437  14.589  0.2293  0.2285 -0.1998
20300W        W36194  11.797  14.798  14.597 -0.0037  0.2152  0.5254
20301W        W36195  11.939  15.620   3.154 -0.0597  0.1577 -0.2758
20302W        W36196   0.983   4.191   2.937  0.1300  0.5079  0.1702
20303W        W36197  13.701  15.166   4.897 -0.1720 -0.1515  0.0340
20304W        W36198  10.299   7.901  13.129 -0.0034 -0.1455 -0.0469
20305W        W36199  13.464  15.593  14.208  0.1267  0.0454 -0.1772
20306W        W36200   7.065  15.721  17.241  0.1213 -0.1324  0.0544
20307W        W36201   8.525  12.093  12.356  0.2979  0.0698  0.0925
20308W        W36202  12.334  14.867   4.698  0.0206 -0.0707 -0.1364
20309W        W36203  17.440  15.748  13.738 -0.0276 -0.0769  0.1255
20310W        W36204   9.179   6.291   1.390 -0.0876 -0.3378  0.1545
20311W        W36205   3.417  11.057  16.949  0.0588  0.0498 -0.1076
20312W        W36206   2.994  12.888   2.131  0.1427  0.1024  0.2114
20313W        W36207  12.767   6.642  12.590  0.1693  0.1775 -0.1100
20314W        W36208   7.740   7.146   5.844 -0.1505  0.1369 -0.3527
20315W        W36209   3.498   8.845   2.236  0.0586 -0.2175 -0.1303
20316W        W36210   1.371   8.220   3.887  0.1887  0.2415 -0.2297
20317W        W36211   4.072   6.932   4.433 -0.1511 -0.0659 -0.0380
20318W        W36212   0.934   1.375  12.642  0.4038  0.2423  0.0812
20319W        W36213   2.879  11.879   4.712  0.1507 -0.3008 -0.0483
20320W        W36214   5.407  14.215  14.542 -0.1336 -0.1336 -0.2249
20321W        W36215   9.375   2.935   4.316 -0.2931  0.1186 -0.0913
20322W        W36216  13.495  16.457   0.764 -0.0471  0.1816  0.0517
20323W        W36217   9.717   9.720  12.365  0.0966 -0.1229  0.2844
20324W        W36218  15.836  10.361  11.412  0.3004  0.0323  0.0245
20325W        W36219  13.295  13.269  13.234  0.3304 -0.1315  0.0835
20326W        W36220   8.233   4.095  16.349  0.0789  0.1367 -0.4225
20327W        W36221   0.711   7.557  13.320  0.0194  0.2735 -0.0039
20328W        W36222  11.098  17.390  12.541 -0.0164  0.1063 -0.1252
20329W        W36223   2.073  12.717  13.263  0.0471 -0.0214 -0.3846
20330W        W36224   0.724   0.472   3.757  0.0226  0.1685 -0.1495
20331W        W36225   4.328  10.380   0.512 -0.0229 -0.0185  0.0044
20332W        W36226  12.683   5.160   4.179 -0.4423 -0.0790 -0.0702
20333W        W36227   4.940   6.272   3.871  0.0055  0.0609  0.0588
20334W        W36228   0.425  11.678   3.954 -0.2560  0.1079 -0.1649
20335W        W36229   0.873   8.639  15.353 -0.0097  0.0677  0.1853
20336W        W36230   5.012   1.965  14.565  0.0830 -0.2205 -0.1033
20337W        W36231   6.678   7.526   3.083  0.1927  0.2030 -0.0981
20338W        W36232   3.185   5.346  15.675  0.0564  0.1646 -0.0147
20339W        W36233  16.450  16.684  14.592  0.2133 -0.1803  0.1587
20340W        W36234   1.397   4.502  13.157 -0.1146  0.2951 -0.0897
20341W        W36235   4.245   8.259  17.184 -0.1092  0.1313  0.0973
20342W        W36236  14.840   3.497   5.049 -0.0080 -0.3392 -0.1500
20343W        W36237   6.591  17.352   3.415 -0.2683 -0.0548  0.1048
20344W        W36238  16.899   1.472   4.130  0.1052  0.0483  0.1626
20345W        W36239   0.021  12.457   0.252 -0.0557  0.0345 -0.1883
20346W        W36240   4.304  17.206  12.687  0.1152 -0.1550 -0.2358
20347W        W36241   9.463  12.313  14.549  0.0994  0.2924  0.2084
20348W        W36242   3.627   3.097  11.631  0.0587 -0.1671 -0.1370
20349W        W36243   7.269  17.031   2.659  0.2040 -0.0644 -0.3085
20350W        W36244   9.468   9.414  16.513 -0.0018 -0.0433  0.3151
20351W        W36245   5.474   7.210   1.453 -0.1781 -0.0227  0.2277
20352W        W36246  17.313   6.667   0.879  0.0799 -0.2022  0.0016
20353W        W36247  13.106  12.226   0.764  0.0606  0.2073  0.1415
20354W        W36248   1.770  11.320  15.527  0.3041  0.1927  0.1113
20355W        W36249  13.732  11.676  13.217  0.0521  0.1577  0.0396
20356W        W36250  13.129   3.281  17.184 -0.3250  0.0829 -0.1464
20357W        W36251   1.339  17.326  15.648 -0.0858 -0.1170  0.0329
20358W        W36252  10.033   2.793   3.613 -0.1012 -0.3775  0.3091
20359W        W36253   8.895  16.664   5.591 -0.1542 -0.0842  0.1384
20360W        W36254   8.769   9.542  13.676 -0.1092 -0.0589 -0.0787
20361W        W36255   7.979   1.338   2.244  0.0145 -0.0995  0.0176
20362W        W36256  12.156   3.983   1.580 -0.0986 -0.0083 -0.2298
20363W        W36257   4.220  17.541   5.130  0.0962  0.1510  0.2285
20364W        W36258   6.322   7.233  12.088  0.1497  0.0927  0.0985
20365W        W36259  16.406   3.942   1.099  0.3050 -0.2819 -0.2071
20366W        W36260   2.154  16.327   5.864  0.0970 -0.1944 -0.0412
20367W        W36261  10.485  14.264   4.840 -0.0300 -0.2670 -0.1856
20368W        W36262   4.195   7.429   2.580 -0.0917  0.2104  0.1430
20369W        W36263   1.650  17.310   4.244 -0.0951 -0.1564  0.0250
20370W        W36264   7.844   5.259  11.564  0.0598 -0.1352  0.0880
20371W        W36265   6.854  15.699  12.368 -0.1086 -0.1149  0.1398
20372W        W36266  15.783  13.166   0.517 -0.0253 -0.2928 -0.0592
20373W        W36267   4.123   9.058  17.029  0.0281 -0.2818  0.1584
20374W        W36268   5.735  10.547  15.869 -0.0886 -0.0353  0.2409
20375W        W36269   2.475   2.113   4.297 -0.1794  0.3071 -0.0743
20376W        W36270   3.375   7.435  15.410  0.0783  0.1320  0.1286
20377W        W36271  12.821  14.991   0.874  0.0109  0.1454  0.1287
20378W        W36272  11.955   6.149  12.581  0.0023 -0.0556  0.1671
20379W        W36273   5.109   1.520  12.298 -0.3863  0.4248 -0.2552
20380W        W36274   4.903  12.836  16.751  0.1948 -0.2136  0.2328
20381W        W36275  11.114  15.198   2.568 -0.0458  0.1819 -0.1746
20382W        W36276  15.369   9.531  15.988 -0.3382  0.2194 -0.0435
20383W        W36277   9.611   9.808  11.326  0.1773  0.0327  0.2063
20384W        W36278   6.575   5.574  15.861 -0.2030 -0.0653 -0.2236
20385W        W36279  16.448   6.695   4.828  0.1819 -0.0011 -0.2661
20386W        W36280  17.619  17.074   3.821 -0.0151  0.2391 -0.0313
20387W        W36281   0.016   5.184  15.804 -0.2777 -0.0068 -0.0307
20388W        W36282   4.199  10.985  14.790 -0.0305 -0.1473  0.0159
20389W        W36283  10.869   6.858  14.980 -0.0770 -0.0139  0.1756
20390W        W36284   0.532   0.276   4.219 -0.1819  0.3747  0.0040
20391W        W36285   9.804   4.640   0.550  0.3469  0.2030 -0.1399
20392W        W36286   1.728   3.692   0.431  0.1686 -0.2682 -0.0079
20393W        W36287  15.275   7.764   1.898 -0.0300 -0.0981  0.0121
20394W        W36288   8.909  16.166   1.827 -0.0143  0.0121  0.1562
20395W        W36289   8.070  12.753   1.205 -0.0581  0.0753 -0.0695
20396W        W36290  14.417   1.908   4.478 -0.0003  0.3572  0.3146
20397W        W36291  11.310   3.563  11.841  0.1935  0.0238  0.2921
20398W        W36292   7.714   6.738  17.003 -0.0291  0.1242 -0.1613
20399W        W36293  10.914   1.243   0.195 -0.1224 -0.3349  0.0172
20400W        W36294  14.596  11.546   4.850  0.0051 -0.2803 -0.0377
20401W        W36295   0.966   2.895   4.101  0.0171 -0.0648  0.2307
20402W        W36296   9.776   5.851   4.439 -0.0956 -0.2401 -0.3764
20403W        W36297  17.611  11.746  13.675 -0.1145 -0.0474 -0.0751
20404W        W36298  11.943  10.354  13.408  0.2062  0.0751  0.0483
20405W        W36299   4.447   4.608   0.520  0.2792  0.3212 -0.2793
20406W        W36300   5.026  16.330  15.778 -0.0165  0.2326  0.0634
20407W        W36301  15.540   6.283   5.747 -0.1166 -0.1792  0.0186
20408W        W36302  13.466  11.970   4.245 -0.5580  0.2254  0.1215
20409W        W36303  14.596  13.075   5.633 -0.0895  0.1080  0.1917
20410W        W36304  12.137  14.321  13.955  0.2457 -0.0350  0.1167
20411W        W36305  15.557  17.208   2.116  0.0867 -0.0145 -0.1097
20412W        W36306   1.550  10.634   4.386  0.3329  0.0826  0.3694
20413W        W36307  16.093   3.548   0.875 -0.2192  0.3078 -0.2754
20414W        W36308   8.458   0.816   4.805  0.1432  0.1651  0.0624
20415W        W36309   3.144   0.603  12.124  0.2370 -0.1613 -0.3016
20416W        W36310  11.200  12.902   2.739  0.0349  0.1180  0.0421
20417W        W36311   0.389  11.510   6.661  0.2928  0.0492  0.0157
20418W        W36312   7.801  14.541   4.900 -0.0859 -0.0605 -0.0314
20419W        W36313   7.193   1.346  15.984 -0.1744 -0.1186  0.1660
20420W        W36314   3.833   2.574   6.140  0.3863  0.1796  0.0585
20421W        W36315   4.057  10.678   3.408 -0.1871  0.0714  0.1876
20422W        W36316   6.869   0.861   5.905  0.3444  0.2243  0.3635
20423W        W36317  17.557   0.134  15.048 -0.0484  0.3437  0.1111
20424W        W36318  11.650  16.282  15.058 -0.1671 -0.1420  0.2239
20425W        W36319  16.520   9.902   0.992 -0.0947 -0.0815 -0.0970
20426W        W36320   7.436  16.747   5.552  0.3971  0.1584 -0.3169
20427W        W36321  13.806   0.263   0.632  0.0716  0.0940 -0.0061
20428W        W36322   8.896  13.251   2.930  0.1083 -0.0989 -0.2219
20429W        W36323   9.767   8.518   2.518 -0.2068 -0.3261 -0.0242
20430W        W36324  10.937   8.301  16.967  0.1435 -0.0803 -0.0376
20431W        W36325   0.893  12.116  15.949  0.3102 -0.2288  0.2836
20432W        W36326   3.502  12.927  13.187  0.0972  0.2584 -0.0818
20433W        W36327   3.041   6.492   3.424  0.2646 -0.0582 -0.1533
20434W        W36328   1.843  14.085   4.870 -0.2497  0.3341  0.4069
20435W        W36329   7.327   2.492   1.602 -0.0882 -0.4045 -0.1062
20436W        W36330  13.899  17.520   2.939 -0.2888  0.1135 -0.4529
20437W        W36331   0.753   9.004  16.619 -0.0197  0.1322 -0.2575
20438W        W36332   4.581   9.933   3.829  0.0503  0.2332 -0.3600
20439W        W36333  14.819  14.785   2.871  0.0391 -0.0034  0.0783
20440W        W36334  12.427   4.834  15.612  0.0110  0.1216 -0.1465
20441W        W36335   6.917   5.658   4.836 -0.1770  0.0217  0.1131
20442W        W36336   2.356   8.152   2.155 -0.2696 -0.0360  0.4116
20443W        W36337  16.415   0.734   3.963  0.0576  0.2025 -0.1926
20444W        W36338  10.655   7.880  13.480  0.0826  0.3093  0.0911
20445W        W36339   2.866   2.518   6.160  0.0172 -0.0104 -0.0153
20446W        W36340   0.393  12.644   5.313 -0.1602 -0.1842 -0.2188
20447W        W36341  13.835   4.049   2.776  0.0725  0.1094 -0.0493
20448W        W36342  13.455   2.042   0.892 -0.1491  0.0669 -0.3723
20449W        W36343   9.147  11.536  12.353  0.1762 -0.1976 -0.2061
20450W        W36344   5.905  15.877   6.252  0.0592  0.0996 -0.1295
20451W        W36345  15.673  13.044   5.477 -0.2806  0.1700  0.3925
20452W        W36346   5.640   0.517  14.078 -0.0558 -0.0931 -0.1741
20453W        W36347  14.895  15.353   1.020  0.0989  0.0611  0.0998
20454W        W36348  15.363  17.421  15.662  0.1056 -0.1124 -0.0755
20455W        W36349   9.787   4.042   3.937  0.2229  0.0122 -0.2286
20456W        W36350   2.382  11.651   2.113  0.1683 -0.2221  0.0768
20457W        W36351   3.706  12.655   1.580  0.1355  0.0654 -0.2487
20458W        W36352  15.820  10.278   3.813  0.2299  0.0507  0.1669
20459W        W36353  14.340   9.809   1.453  0.2396 -0.2084  0.0143
20460W        W36354  11.009  10.856  12.172  0.3641 -0.1023  0.2807
20461W        W36355   6.709   9.088   0.955  0.1794 -0.1402  0.1272
20462W        W36356  11.158   6.920   2.904  0.2771 -0.2713 -0.4150
20463W        W36357  10.478   0.005  11.880 -0.0953  0.1103 -0.0422
20464W        W36358  12.461   0.379   5.178 -0.1044  0.3210 -0.2228
20465W        W36359  10.033  11.825   5.471  0.0845 -0.2579  0.0466
20466W        W36360   8.890  10.515   5.627 -0.0614  0.0414  0.0365
20467W        W36361  10.104  13.308   3.231 -0.1596  0.0916  0.0134
20468W        W36362   9.747  13.589  13.942  0.0573 -0.1683 -0.0322
20469W        W36363  11.866  13.537   1.351  0.0012  0.3185  0.1271
20470W        W36364   9.171   6.347   0.061 -0.0273  0.1302 -0.1923
20471W        W36365   8.183   4.585  16.570  0.2434 -0.4088  0.1232
20472W        W36366   7.776  16.315  15.069  0.1259 -0.2045  0.1629
20473W        W36367  16.187   1.173  12.298 -0.1913  0.4419 -0.2590
20474W        W36368  16.526   4.467  14.039  0.0896 -0.0918  0.0112
20475W        W36369  13.536   8.674   2.538 -0.0330  0.2482  0.3781
20476W        W36370  13.208   7.473  14.892 -0.0555 -0.0541  0.0730
20477W        W36371   1.197   2.145   2.735  0.3278  0.0230  0.2601
20478W        W36372  14.195   7.548  16.781  0.2438  0.2189 -0.2770
20479W        W36373  13.446  15.526  12.175 -0.2182  0.1002  0.2616
20480W        W36374   2.870   8.078   2.141 -0.2542  0.1938 -0.1462
20481W        W36375  16.834   6.291  12.310 -0.0453  0.0879 -0.2042
20482W        W36376   0.952  10.684   5.163 -0.1002 -0.1657  0.1210
20483W        W36377   8.002   6.947  12.899 -0.2026 -0.3281  0.0868
20484W        W36378   5.339   3.584  16.393 -0.0148 -0.3174 -0.1799
20485W        W36379  16.233  17.461   5.602 -0.1854 -0.0595  0.0314
20486W        W36380   9.841  10.413   2.398 -0.0380  0.1084 -0.0917
20487W        W36381   6.011  13.061  15.989  0.1368 -0.3273  0.3131
20488W        W36382   2.617   7.168   4.096  0.0553 -0.1355  0.0259
20489W        W36383   7.868   1.699  12.174  0.1296  0.0575  0.2914
20490W        W36384  16.968   2.902   1.571 -0.0113 -0.3613  0.0772
20491W        W36385  14.537   4.480  15.414 -0.1100 -0.1948  0.1485
20492W        W36386   9.211   7.064  16.308  0.1279 -0.3938 -0.1929
20493W        W36387  16.286  12.394  13.784 -0.0165  0.0100  0.3284
20494W        W36388  16.470   8.902  11.648  0.2685 -0.2235  0.1318
20495W        W36389   4.088   4.978   4.613  0.1534  0.1702 -0.4291
20496W        W36390   0.269  16.657   2.474  0.0681 -0.0387  0.4028
20497W        W36391   5.447  12.782   2.473 -0.1792 -0.1429 -0.1687
20498W        W36392  12.966  12.585   0.489 -0.0149 -0.0612  0.1119
20499W        W36393   0.995  10.315  13.159  0.5241  0.0913  0.1557
20500W        W36394  16.708  15.765  15.341  0.3248 -0.0902  0.3630
20501W        W36395   7.139  12.155   2.678 -0.1063 -0.1952  0.1305
20502W        W36396  13.852  16.957  14.924 -0.1621  0.3736  0.2281
20503W        W36397   0.581   9.664   5.306 -0.0445 -0.1765  0.0159
20504W        W36398   7.701  10.013  16.145 -0.2333  0.3236  0.2297
20505W        W36399  10.484   4.110  13.341 -0.0639 -0.1589  0.1205
20506W        W36400  10.228   3.108  12.725  0.2550  0.1099  0.0707
20507W        W36401   1.474  11.900  14.592  0.0767  0.1752 -0.2224
20508W        W36402   6.942   0.379   5.945 -0.0457 -0.2791  0.1230
20509W        W36403   5.608  10.414  13.868  0.0353  0.0994  0.1004
20510W        W36404  13.569  12.692  16.008 -0.0839  0.2015  0.1723
20511W        W36405  14.825   4.414   0.665 -0.1161 -0.3773 -0.0738
20512W        W36406  15.475  13.650  11.946  0.0246  0.0287  0.0042
20513W        W36407  14.959  12.486   1.467  0.1090 -0.1897  0.3051
20514W        W36408   9.252   7.095   1.831  0.1085  0.2534  0.2761
20515W        W36409   8.136   0.347   5.491 -0.2452 -0.2363  0.0238
20516W        W36410   8.616   4.348  14.241  0.0145  0.0495  0.1298
20517W        W36411   5.367   7.988  16.628  0.1422  0.1975 -0.1494
20518W        W36412  10.991  15.606   5.257  0.1118 -0.0111  0.3279
20519W        W36413   8.018   2.309  16.544 -0.0365 -0.1015 -0.4337
20520W        W36414   8.936   6.828   2.150  0.0059  0.0477 -0.0944
20521W        W36415   3.939   2.913  16.549  0.1006  0.0825 -0.1324
20522W        W36416   2.896  13.509  13.510  0.0152  0.2073 -0.1932
20523W        W36417   5.769  11.009   0.045  0.2340  0.0496 -0.0769
20524W        W36418   0.623   3.286  14.211 -0.1973  0.1392 -0.1723
20525W        W36419  12.158  17.504   0.032  0.0043  0.2135  0.1089
20526W        W36420   0.684   1.640  13.685 -0.0070  0.0257 -0.0830
20527W        W36421   2.036   9.284   6.396 -0.0539 -0.3755  0.1050
20528W        W36422  14.522  14.760  13.522  0.3590 -0.1528  0.0608
20529W        W36423   6.331   6.821   4.846 -0.1175 -0.1894  0.1774
20530W        W36424  13.297   1.314  15.031 -0.2549 -0.0592 -0.2211
20531W        W36425  14.687   6.568   2.887 -0.0069  0.1299 -0.0698
20532W        W36426  10.328  10.292  16.765 -0.1480  0.1038  0.1425
20533W        W36427   7.192  17.375   1.243 -0.0596 -0.0773 -0.0453
20534W        W36428  15.723   8.180  12.476  0.0998 -0.1748 -0.2387
20535W        W36429  17.149   7.563  14.645 -0.2420  0.0761 -0.0377
20536W        W36430   1.296  11.300   0.258  0.1347  0.0720  0.0429
20537W        W36431   6.316  17.465  15.962  0.2295 -0.0083 -0.1281
20538W        W36432   7.015   6.357   3.337  0.2238  0.2257  0.0846
20539W        W36433   2.763   1.027  13.677 -0.2643  0.2159  0.1732
20540W        W36434  10.694   8.418  15.108 -0.0617  0.0353 -0.2525
20541W        W36435   0.365  16.586   5.066 -0.3216  0.2183 -0.0578
20542W        W36436   9.012   8.889   1.928  0.0370 -0.2693  0.2831
20543W        W36437  10.690   1.993   5.169 -0.0143  0.2385  0.2312
20544W        W36438   1.295  15.719   6.142 -0.0299  0.6013  0.0720
20545W        W36439  11.785  15.527   0.606  0.3053  0.0411 -0.3371
20546W        W36440  14.510   4.047   4.013  0.3812  0.2701  0.0372
20547W        W36441   3.076  17.593   4.679 -0.0332 -0.2164 -0.0703
20548W        W36442  17.563   7.568  13.637  0.2356 -0.2088  0.2039
20549W        W36443  10.984  10.879   3.600 -0.2273  0.1228 -0.0534
20550W        W36444   3.439   8.533   3.812  0.1728 -0.0718  0.0186
20551W        W36445   4.741   3.274   3.085  0.2423 -0.0693  0.2838
20552W        W36446  12.949   5.892  15.508 -0.0435  0.0344 -0.2703
20553W        W36447  15.868  14.767   1.781 -0.2778 -0.0860 -0.0317
20554W        W36448   3.079   5.885  16.820 -0.0898  0.0423  0.0544
20555W        W36449  11.127  13.610  12.685 -0.0886  0.5412  0.0807
20556W        W36450  11.777  12.801  13.636 -0.3821  0.0560 -0.2076
20557W        W36451   9.230   1.195   4.997 -0.0054  0.1303 -0.0292
20558W        W36452   8.580  11.908   0.840 -0.1129  0.0972 -0.0695
20559W        W36453   4.843  15.644   0.000  0.5558  0.0661 -0.0520
20560W        W36454  11.835   2.868   2.915 -0.5616  0.0148 -0.5383
20561W        W36455   9.909   2.770   5.828 -0.1528  0.0026 -0.1597
20562W        W36456   2.694  17.241   0.078  0.0219  0.0110  0.3625
20563W        W36457  17.484   3.916  14.931  0.0493 -0.2397  0.2331
20564W        W36458   9.639  16.939   3.224  0.3893 -0.0701  0.1217
20565W        W36459   1.895   2.206   2.246  0.1541  0.0899  0.0426
20566W        W36460  15.065  12.208  16.258 -0.1911  0.1173 -0.1052
20567W        W36461   9.540   8.178  16.439  0.4068  0.0505 -0.0416
20568W        W36462   0.598   9.073  15.421 -0.2271  0.1054 -0.2214
20569W        W36463   3.016   0.894   2.748  0.0889 -0.3219 -0.2514
20570W        W36464  17.025  15.031   3.553 -0.0291 -0.2238 -0.1204
20571W        W36465   2.217  17.207   3.349  0.2937  0.1496 -0.4343
20572W        W36466  15.322   1.516   3.144  0.0966  0.1101  0.1178
20573W        W36467   7.706   9.486  14.443  0.0358  0.4900  0.3766
20574W        W36468   5.360   6.499   3.907 -0.2815 -0.0392  0.0465
20575W        W36469   7.793  15.087   4.841  0.1134  0.0661  0.1600
20576W        W36470   7.812   9.392   1.655 -0.2550 -0.1330 -0.0349
20577W        W36471   9.408   4.826  16.980  0.4484 -0.0616 -0.1231
20578W        W36472   8.562  10.888  14.834  0.0993 -0.1384  0.0821
20579W        W36473   4.203   7.911   5.090 -0.1647  0.0804 -0.1472
20580W        W36474  10.665   8.413  11.712 -0.1550  0.1840  0.2380
20581W        W36475   1.798   5.743  17.044  0.3715  0.1361  0.0162
20582W        W36476  14.094  10.594   4.708  0.1081 -0.0924 -0.2144
20583W        W36477  15.916  14.180  11.611 -0.0260  0.1216 -0.1491
20584W        W36478  11.575   4.358   1.717 -0.0457 -0.1388  0.1260
20585W        W36479  17.454   5.048   2.732  0.1583  0.0080  0.1547
20586W        W36480  11.984  14.055   4.111  0.0385  0.2340  0.4001
20587W        W36481  10.205   4.440  17.270  0.2945  0.2242 -0.0814
20588W        W36482  13.451   4.170  12.578 -0.0545  0.1087 -0.0121
20589W        W36483  17.010  10.155   5.653  0.3858 -0.1732 -0.0946
20590W        W36484  13.381   3.551   4.368 -0.0473 -0.2776  0.0447
20591W        W36485   9.499  17.434   5.498 -0.0565  0.0797  0.2452
20592W        W36486   2.285   1.323  14.444  0.3233  0.0641 -0.1033
20593W        W36487   4.005  13.203   5.207 -0.0865  0.3256  0.0548
20594W        W36488   7.468   9.113  12.487 -0.2051 -0.2020  0.2874
20595W        W36489  10.980  12.226  17.140  0.0981 -0.2134 -0.0624
20596W        W36490  16.525  14.727  13.350 -0.0156 -0.0224  0.0130
20597W        W36491  14.417  12.566   3.775 -0.1560 -0.1874 -0.0455
20598W        W36492   4.318   0.262   6.197 -0.0221  0.2732  0.0264
20599W        W36493   1.854   0.621   4.200 -0.0605 -0.0095  0.3133
20600W        W36494  10.609   4.879   3.344  0.1289 -0.0002 -0.1964
20601W        W36495   6.172  16.117  16.434  0.1005  0.0282 -0.1636
20602W        W36496   9.719  10.705   2.869 -0.2396 -0.3607 -0.2071
20603W        W36497  14.511   3.340  13.778 -0.0793 -0.0700  0.3626
20604W        W36498  16.184   3.154   5.566 -0.0229  0.0237 -0.1239
20605W        W36499  13.445   0.697  11.632  0.2963 -0.0826 -0.1410
20606W        W36500   8.205   0.351   6.000  0.3383  0.0140  0.0416
20607W        W36501   5.761   4.338   3.240 -0.2632  0.1316 -0.1056
20608W        W36502  17.334   1.146  14.037 -0.0506 -0.2695  0.1070
20609W        W36503  10.129   2.104  14.331 -0.1972 -0.0620  0.2350
20610W        W36504   6.823   8.332   3.601 -0.1196 -0.1975 -0.2108
20611W        W36505   5.273   8.723  14.546 -0.0108  0.1127 -0.0662
20612W        W36506   9.837   2.008   1.951 -0.0284  0.0364  0.2377
20613W        W36507   0.002  12.689  16.652 -0.1680 -0.2509 -0.3462
20614W        W36508   7.567   9.924  14.163  0.2982 -0.1840  0.3800
20615W        W36509   3.094  10.210  17.261 -0.0614  0.0477  0.1943
20616W        W36510   4.420   0.981  13.172  0.1472  0.1879  0.1943
20617W        W36511   2.955   4.815   3.948 -0.2801 -0.2285  0.1008
20618W        W36512  11.276   2.367  14.840  0.2196  0.1742  0.2425
20619W        W36513   5.796   3.754   2.247 -0.0048 -0.0366 -0.0551
20620W        W36514  12.331  17.346   1.521 -0.1496  0.1719 -0.0902
20621W        W36515   7.750   9.810   3.297 -0.0051 -0.1582 -0.2131
20622W        W36516   6.900  16.787  13.030 -0.0976  0.1422 -0.2250
20623W        W36517   6.074  13.093  14.786  0.0003  0.1969  0.0645
20624W        W36518   3.028   4.143   1.159  0.2112 -0.0185 -0.2627
20625W        W36519  16.731   0.114  15.588 -0.0468 -0.1885 -0.0817
20626W        W36520  17.231   2.897   4.787 -0.2116 -0.0113 -0.1399
20627W        W36521  10.175   3.100  15.772 -0.0801  0.0751 -0.2065
20628W        W36522  13.966   0.149  13.404  0.2537 -0.0227  0.2213
20629W        W36523  10.234   4.611   1.799 -0.0800  0.0329 -0.0412
20630W        W36524  17.408   7.089  16.084  0.1654  0.0167  0.1042
20631W        W36525   9.966  12.033  12.191 -0.1620 -0.2934  0.1068
20632W        W36526  10.264   3.516  15.462  0.1599  0.1518  0.0459
20633W        W36527  14.831   0.447  12.294  0.1117  0.1652  0.0036
20634W        W36528  14.172   5.614   1.510 -0.1387 -0.0349 -0.1059
20635W        W36529   7.319   6.657   1.499  0.0151 -0.0049  0.0861
20636W        W36530  11.801   2.093   4.717 -0.2721  0.3531 -0.0275
20637W        W36531   9.297   5.250  11.908 -0.0092  0.0852 -0.1803
20638W        W36532  11.834   3.647   5.395 -0.2355  0.1260 -0.1910
20639W        W36533  10.530   8.612  12.721  0.0346 -0.2170  0.0498
20640W        W36534   2.216   6.414   5.632  0.0159  0.0730  0.2224
20641W        W36535  16.240   7.737  15.794 -0.1433  0.4335  0.2789
20642W        W36536  17.061  15.205  14.849  0.2065  0.1302  0.0123
20643W        W36537  15.629   0.977  15.971  0.3483 -0.3606 -0.3654
20644W        W36538   2.757  10.054  13.227  0.2524 -0.2353 -0.0935
20645W        W36539   1.050   1.479   1.280  0.2849  0.3261 -0.1165
20646W        W36540  13.471   0.984  17.047  0.1067 -0.1640  0.2477
20647W        W36541   5.685  11.975  16.889 -0.0654  0.1003 -0.0887
20648W        W36542  13.430  17.220  15.793  0.0181  0.1123  0.0365
20649W        W36543   5.564   8.272   2.083  0.2922  0.1179 -0.0967
20650W        W36544   1.950   5.092   2.712  0.2452 -0.2389 -0.0469
20651W        W36545   2.593   4.000   3.161  0.2080  0.0417  0.2804
20652W        W36546   2.509   9.611   6.494  0.1492  0.1394  0.0502
20653W        W36547  10.676   8.532   4.663 -0.1573 -0.2144  0.1537
20654W        W36548   2.137   5.408   1.069  0.4710 -0.0184  0.0407
20655W        W36549  11.326   2.924   2.797  0.0405 -0.4230 -0.1507
20656W        W36550  14.778   6.437  12.598 -0.1635  0.0644  0.0201
20657W        W36551   7.810   3.634   3.699  0.1445 -0.0750  0.3371
20658W        W36552   7.647  10.022  14.998  0.0873  0.2230 -0.1117
20659W        W36553  15.686   2.024  13.141  0.0229 -0.0721  0.2386
20660W        W36554   6.283   6.908  13.562 -0.0689 -0.2636  0.0420
20661W        W36555   8.405   4.044  15.900 -0.0680 -0.3298 -0.0288
20662W        W36556  10.342   8.093  12.066  0.0255 -0.3599 -0.1258
20663W        W36557   8.913   3.922  14.156  0.0420 -0.0063  0.1382
20664W        W36558   5.231   3.522  13.707  0.0444  0.0461 -0.0232
20665W        W36559  12.493  16.207  16.462 -0.0741 -0.0649 -0.1411
20666W        W36560   8.451   6.120   2.927  0.2000 -0.1219 -0.0916
20667W        W36561  16.106   0.708   1.182  0.3137 -0.0335  0.3252
20668W        W36562   5.442   2.018   0.557 -0.3091  0.0115 -0.0806
20669W        W36563   4.740   0.355   5.650  0.1457 -0.0487  0.1805
20670W        W36564  13.323  15.480  16.015  0.2081 -0.3176  0.1782
20671W        W36565   6.554   2.568   0.830 -0.2427  0.0202 -0.0400
20672W        W36566  13.886  12.863  15.174 -0.4330 -0.0875 -0.1653
20673W        W36567   2.066   3.178  12.244  0.3256 -0.0692 -0.0856
20674W        W36568   0.781  12.335  13.677 -0.1846 -0.2886 -0.1523
20675W        W36569   5.403  11.980   0.628 -0.2842  0.3596 -0.0527
20676W        W36570   0.041   5.746   0.952 -0.3184  0.1983 -0.2652
20677W        W36571   2.249   4.276   3.396  0.0778 -0.0216 -0.0850
20678W        W36572  16.475   0.711  12.317  0.0454  0.0245  0.1892
20679W        W36573  16.872   6.953  17.293  0.1856  0.0835  0.1991
20680W        W36574   1.949   6.368  15.237  0.3136  0.0392  0.0130
20681W        W36575   7.572   7.061   2.236 -0.1807 -0.1024  0.1737
20682W        W36576   8.836  14.515   0.798 -0.1171 -0.2078  0.1525
20683W        W36577  15.532  14.937  15.843 -0.0633  0.0824  0.0003
20684W        W36578   5.490  16.084   1.684  0.0959  0.2920  0.0486
20685W        W36579  15.906   2.049  16.975 -0.2845  0.2888 -0.0079
20686W        W36580   2.940   5.073  14.354 -0.0885  0.1565  0.0830
20687W        W36581  14.481   9.845  16.457 -0.2719  0.0907  0.1236
20688W        W36582   9.942   6.832  13.146  0.2485  0.0358  0.2793
20689W        W36583  15.727  15.457  12.420  0.0557  0.2696  0.0798
20690W        W36584   8.273   9.722  14.410 -0.0985 -0.0403 -0.1728
20691W        W36585  14.232   3.208   0.467  0.2305  0.2729  0.0007
20692W        W36586  17.395   1.462   1.479  0.0223 -0.0938 -0.1012
20693W        W36587  16.374   5.648   3.959 -0.2093 -0.0581 -0.1920
20694W        W36588  12.587   8.317  17.246 -0.1821  0.2328  0.0239
20695W        W36589   4.958   1.680  16.616 -0.3336 -0.2528  0.0062
20696W        W36590   4.866   7.824  14.813  0.1846  0.4673 -0.3089
20697W        W36591  11.057  11.802   3.934  0.1198  0.2013  0.1267
20698W        W36592  10.474   0.071   2.691 -0.3096 -0.2640  0.0294
20699W        W36593   3.560   3.296   0.416 -0.0667 -0.0453  0.1047
20700W        W36594  13.619   7.527   3.697 -0.4866 -0.1547  0.1031
20701W        W36595  12.381  16.664   2.904 -0.3920 -0.2619  0.2125
20702W        W36596   0.109  13.020  12.434  0.0873 -0.0563  0.3171
20703W        W36597  11.600  15.288  12.987  0.0407 -0.1062  0.0889
20704W        W36598   2.655   7.588  16.065 -0.3189 -0.3962 -0.0162
20705W        W36599   3.632   3.219   3.300  0.2573  0.3591 -0.1801
20706W        W36600  16.054   3.266   0.456  0.0044  0.0240 -0.0090
20707W        W36601  12.958  11.486  16.595 -0.0611 -0.1026  0.1051
20708W        W36602  14.995  14.944  15.698 -0.0670 -0.0976  0.1533
20709W        W36603  11.063  10.805   2.061  0.1697  0.1750 -0.2136
20710W        W36604   6.642  14.684   2.868  0.2431  0.0966  0.2288
20711W        W36605   1.420   4.918  15.278 -0.0562  0.2813 -0.0438
20712W        W36606  15.150   9.530   3.011  0.1182 -0.0649  0.3264
20713W        W36607   5.263   3.416  12.367 -0.0213  0.0005  0.2426
20714W        W36608  10.886  13.723  13.832 -0.2666  0.0603  0.1158
20715W        W36609  10.471   9.391  15.195  0.1571  0.1308 -0.0011
20716W        W36610   9.026  14.372  12.037 -0.0365  0.1132 -0.4081
20717W        W36611  15.077  10.778   3.640  0.6220 -0.0303  0.0818
20718W        W36612  16.292  15.037  14.970 -0.2543  0.1259  0.5178
20719W        W36613   3.892   3.878   5.513  0.0931  0.1452 -0.0316
20720W        W36614  14.502   8.301   5.120  0.0477  0.0551  0.0076
20721W        W36615   8.067   4.755  14.443 -0.2143  0.0670 -0.1559
20722W        W36616  14.144   5.205   4.148 -0.1165  0.0780 -0.0846
20723W        W36617   4.646   4.139  12.207  0.0725 -0.1605  0.1832
20724W        W36618  13.054  12.411  12.815  0.0070  0.1439  0.2057
20725W        W36619  15.292   4.569  13.380  0.0234 -0.2710  0.0749
20726W        W36620   4.325  15.283  13.580  0.1534  0.1705  0.0363
20727W        W36621  16.083  11.228  12.652 -0.1998  0.0289 -0.2570
20728W        W36622  12.954   2.307   2.267  0.3321  0.0011  0.1088
20729W        W36623  11.103  11.696   1.635  0.3033 -0.2431  0.2531
20730W        W36624  13.243   8.093   0.267 -0.0241 -0.1421  0.0867
20731W        W36625  11.695   0.506  15.563  0.1916 -0.4798  0.0248
20732W        W36626   4.495  11.144   2.022  0.0922 -0.1160  0.1543
20733W        W36627  13.206   2.949  14.953  0.1081  0.0578 -0.0543
20734W        W36628   6.818  13.594   0.647 -0.0564 -0.0191  0.2106
20735W        W36629  16.823   0.462   3.947 -0.0095  0.1889  0.1617
20736W        W36630  11.539  14.218   3.240  0.0391  0.1656  0.1756
20737W        W36631   2.702   7.606   1.326 -0.1603 -0.0342  0.2667
20738W        W36632  15.202   1.338  14.710 -0.3346  0.4002 -0.0125
20739W        W36633  16.824  15.186   3.960 -0.2255  0.0776 -0.0642
20740W        W36634   7.934   3.189  14.455 -0.2366  0.0943  0.3279
20741W        W36635   2.041  10.715  15.393  0.1254 -0.1460  0.1408
20742W        W36636  16.468  13.526  17.252 -0.1166  0.5392  0.0700
20743W        W36637   1.575   7.346  15.806 -0.0877 -0.3055 -0.1716
20744W        W36638  11.496   2.937   4.956 -0.0923  0.0134  0.2421
20745W        W36639   8.091  13.933   0.664  0.1580 -0.1148  0.1320
20746W        W36640  14.456  17.478   3.083  0.3955  0.0063 -0.0744
20747W        W36641  14.636  13.501  16.449 -0.2785 -0.1195  0.0546
20748W        W36642  14.557  17.489   1.208 -0.2180 -0.0541  0.0009
20749W        W36643   5.646   7.577  16.696  0.0492  0.0989 -0.3230
20750W        W36644  11.763  16.691  15.382 -0.1952 -0.3758 -0.0772
20751W        W36645   6.359  12.709   2.444  0.0674 -0.0970 -0.1524
20752W        W36646   9.586   1.453  16.567  0.0883 -0.1321  0.0814
20753W        W36647  17.103  16.562   0.871  0.0738 -0.0031  0.2316
20754W        W36648  14.384   8.716  14.700  0.0481 -0.1150  0.0446
20755W        W36649   7.398   1.891  17.022  0.3690  0.1300  0.0095
20756W        W36650  15.022   1.526  12.736  0.0076  0.0238 -0.0190
20757W        W36651  17.006   5.551   1.727 -0.0331  0.0974  0.2948
20758W        W36652   7.078   3.306  13.003 -0.0863  0.0315 -0.1099
20759W        W36653  12.397   5.166  14.196 -0.1716 -0.2899  0.0110
20760W        W36654   6.952  14.744   1.637 -0.2451 -0.0883 -0.2997
20761W        W36655   7.747   0.604   5.200  0.0171 -0.1368  0.1786
20762W        W36656   0.365  10.777   5.323 -0.0199  0.1335  0.0597
20763W        W36657  16.472  15.281   2.056 -0.1024  0.0255  0.0119
20764W        W36658   3.711   3.779  15.032 -0.2338 -0.1877  0.0135
20765W        W36659   9.849  11.325   0.108 -0.3504 -0.2683 -0.0298
20766W        W36660   9.467   1.123  12.999 -0.0611  0.5635  0.2231
20767W        W36661   1.241  10.291  12.671 -0.1601 -0.1031  0.0018
20768W        W36662  16.106   3.900   2.103  0.0591 -0.1456 -0.0093
20769W        W36663   9.754  11.094  15.872 -0.3415 -0.2851  0.4244
20770W        W36664   7.652   0.575  15.492 -0.2449 -0.1118  0.0587
20771W        W36665   6.200   3.459  12.323  0.1003 -0.0374  0.1692
20772W        W36666  13.321   4.463   6.363  0.4392 -0.1040  0.0269
20773W        W36667  14.802  12.795   5.294 -0.0146  0.0909 -0.0938
20774W        W36668   1.238   4.937   0.196 -0.2723 -0.0498 -0.1976
20775W        W36669  13.004   3.434  12.123  0.1246 -0.3700  0.2792
20776W        W36670   5.225   6.516  16.490  0.1179  0.0300 -0.0711
20777W        W36671  15.307  10.856  16.090  0.2136  0.1941 -0.0468
20778W        W36672  16.989   6.698   4.177 -0.4578  0.2039 -0.0441
20779W        W36673  14.405   1.071   3.288  0.1972 -0.1634  0.1481
20780W        W36674   1.025   3.279  14.750  0.0456  0.0616 -0.0657
20781W        W36675   6.982   4.940   0.445 -0.0785 -0.2595  0.1714
20782W        W36676  15.934  17.535   1.965 -0.2392  0.1284 -0.1191
20783W        W36677  16.691  15.906  11.892 -0.3189  0.2276 -0.0743
20784W        W36678   8.064   2.337  15.364  0.2950  0.3010 -0.0177
20785W        W36679   1.747   5.600  15.748 -0.0908  0.3965 -0.0241
20786W        W36680  10.359   8.319  13.446 -0.1028  0.4254  0.1550
20787W        W36681   0.151   9.949  14.991 -0.1204 -0.0693 -0.1661
20788W        W36682  14.202  15.445   3.095 -0.1803  0.2400 -0.2326
20789W        W36683   6.981   0.523  13.230  0.1274 -0.3885 -0.0973
20790W        W36684   9.342   8.280   0.096 -0.3490 -0.2061  0.0873
20791W        W36685   6.387   6.466  13.333  0.0450  0.0142  0.0674
20792W        W36686  11.769   5.821   4.035  0.2288  0.0432 -0.0088
20793W        W36687   2.442   4.209  15.465  0.2533  0.2010 -0.1710
20794W        W36688  11.640   3.097   0.383  0.0776  0.2691  0.3528
20795W        W36689   3.962  10.663  13.315  0.0116 -0.3159 -0.1967
20796W        W36690   4.402   5.724   5.087 -0.1778  0.0956 -0.1532
20797W        W36691  13.652  13.316   4.170  0.1602  0.2034  0.3852
20798W        W36692   4.535  12.922   4.099 -0.0937  0.1323  0.0978
20799W        W36693   3.585   0.116   3.632  0.1559 -0.3107  0.2653
20800W        W36694  11.163  14.083  14.758  0.0164  0.1131 -0.0014
20801W        W36695   1.813  11.980   6.393 -0.0543  0.2247  0.0659
20802W        W36696   1.404  15.580  12.250 -0.0410  0.0103 -0.3007
20803W        W36697  15.625   5.577   6.410  0.1605  0.0989  0.0646
20804W        W36698   8.101  14.130  12.891 -0.0130 -0.2420  0.2214
20805W        W36699   7.510  14.181  15.098  0.2751 -0.2164  0.0358
20806W        W36700   8.105  17.545  15.587  0.1053 -0.1051  0.1022
20807W        W36701   5.494   6.419   6.218 -0.1780 -0.0200  0.1059
20808W        W36702  14.880   4.908   3.751 -0.3818  0.0252 -0.0307
20809W        W36703  15.769   8.474  16.723 -0.0822 -0.2224 -0.1502
20810W        W36704   2.777  15.574  17.190 -0.0747 -0.0072 -0.1450
20811W        W36705   2.627  13.743   4.631 -0.0366 -0.0983 -0.2224
20812W        W36706  16.821   9.513   5.132  0.2214 -0.1547  0.1816
20813W        W36707  17.285   7.273   6.517  0.2135  0.0195  0.1058
20814W        W36708   1.910   6.446  13.016  0.0743  0.0478  0.0717
20815W        W36709   2.496  16.744   2.012  0.1538 -0.1348  0.2836
20816W        W36710   3.196  13.951   2.083  0.0321 -0.1077  0.1125
20817W        W36711  12.893  17.452  14.028  0.2337  0.1311 -0.0071
20818W        W36712   0.218   2.282  17.192  0.0842 -0.1028 -0.1304
20819W        W36713   2.606   5.688  16.797 -0.0044  0.2185 -0.1192
20820W        W36714   0.747  14.086  14.795  0.0157  0.4773 -0.2914
20821W        W36715   9.308   5.664   3.589 -0.1207  0.1371 -0.0664
20822W        W36716  16.875  11.088   1.458  0.1566  0.1218  0.3234
20823W        W36717  16.693   9.509  16.248  0.3069  0.6168  0.0539
20824W        W36718   5.076  10.198   1.065  0.0084 -0.0091 -0.1305
20825W        W36719  13.269  10.363   5.244 -0.0409 -0.1280 -0.2277
20826W        W36720   3.432  15.676  17.104 -0.0178  0.1176 -0.2200
20827W        W36721  13.864  13.870  14.265 -0.0448 -0.1143 -0.1203
20828W        W36722   6.797   2.918  16.534 -0.1175 -0.0740 -0.1969
20829W        W36723   3.292   5.015   3.346 -0.0302  0.1104  0.0270
20830W        W36724  13.714  12.835   1.990 -0.4631 -0.1240 -0.1685
20831W        W36725  11.959  13.733  13.114 -0.2983 -0.0170 -0.2707
20832W        W36726   6.340   5.529   0.958  0.2756  0.0696 -0.0244
20833W        W36727  10.716   0.832  14.276  0.0844  0.0867 -0.1859
20834W        W36728  15.457  12.628   4.079 -0.0636  0.1025 -0.2182
20835W        W36729  12.440   8.056   1.457 -0.0600 -0.1614  0.2047
20836W        W36730  15.981  11.613   3.262 -0.2133  0.0016  0.0050
20837W        W36731  12.103   5.798  10.918 -0.3042  0.0078  0.0394
20838W        W36732   4.243  11.222  15.729  0.0686  0.1595  0.3299
20839W        W36733  12.605   6.354   1.280 -0.1942  0.1639  0.0741
20840W        W36734  13.232  16.727   4.221 -0.4588 -0.1473 -0.3890
20841W        W36735   6.196   1.414   1.257  0.0067 -0.3540 -0.2132
20842W        W36736  12.456   0.528  14.465 -0.0047  0.1983 -0.0099
20843W        W36737  11.968  11.423  12.077  0.2656  0.1057 -0.0019
20844W        W36738   2.799   3.822   6.852 -0.0885 -0.0061  0.4490
20845W        W36739   9.902   5.144   5.416 -0.0858  0.2863  0.4394
20846W        W36740   4.625  17.282   0.198 -0.1718 -0.2748  0.0243
20847W        W36741   2.212  10.623  17.152  0.0746  0.3072  0.2737
20848W        W36742  10.387  14.849   5.733 -0.0935 -0.1877  0.2135
20849W        W36743   6.819   8.112   5.476  0.0012 -0.2147 -0.2021
20850W        W36744   3.536  14.131   3.158  0.0975  0.0747 -0.0729
20851W        W36745   7.244  17.632   0.081  0.0089  0.0471 -0.2977
20852W        W36746  12.420  17.322  14.925  0.1413 -0.2250 -0.0667
20853W        W36747   5.974   4.982  13.222  0.1662 -0.0330 -0.2421
20854W        W36748  13.302  11.117   1.543 -0.1049  0.1337 -0.2602
20855W        W36749  17.347  16.493  14.241  0.4170 -0.0466 -0.3238
20856W        W36750   7.901   8.042  15.725  0.3357 -0.3577 -0.2828
20857W        W36751  15.436   3.016   5.590  0.3077  0.0993  0.0563
20858W        W36752  11.565   4.894   0.086 -0.1084 -0.0436 -0.1648
20859W        W36753  14.352   6.681  12.624 -0.1330  0.0569 -0.1736
20860W        W36754   3.228  10.108   4.967  0.0014 -0.3635 -0.0120
20861W        W36755  14.302  17.281  12.238 -0.1103 -0.2381 -0.0717
20862W        W36756   8.684  16.597  16.484  0.0061 -0.1834 -0.0976
20863W        W36757  10.604   1.203  15.533 -0.0619 -0.3498 -0.1991
20864W        W36758   6.719  14.559  17.146  0.1001 -0.2024 -0.0386
20865W        W36759   8.568  14.978  16.654 -0.2090  0.0868  0.2921
20866W        W36760  11.022  13.945   1.465 -0.2218  0.2915 -0.0971
20867W        W36761   9.145   0.775  12.406  0.0193 -0.0465  0.1397
20868W        W36762  16.071  13.409   1.232  0.1703 -0.3091 -0.0529
20869W        W36763   3.398  17.215   5.832 -0.2632  0.2281 -0.2448
20870W        W36764   2.250  17.123   4.559  0.1372  0.0272 -0.1059
20871W        W36765  16.090   7.358   0.736 -0.0606  0.5439 -0.0185
20872W        W36766  14.812   1.620   5.843  0.1564 -0.0298 -0.0934
20873W        W36767   1.380  16.768   6.084 -0.0526  0.1290  0.2602
20874W        W36768   7.367  15.078  12.855  0.1437  0.2628  0.1579
20875W        W36769   8.833   5.353  16.558 -0.2012 -0.1240 -0.1458
20876W        W36770   9.829  13.678  16.406  0.0244 -0.0097  0.2575
20877W        W36771   2.759   4.849   5.246 -0.4374 -0.0124 -0.1397
20878W        W36772   9.888   3.295  14.148  0.1606  0.2741 -0.4744
20879W        W36773  12.684  13.113  15.035  0.1562 -0.2347  0.1946
20880W        W36774  11.793   4.355   2.196  0.0887 -0.4146  0.1382
20881W        W36775  17.076   7.557  13.967  0.2372  0.3006  0.0452
20882W        W36776  12.960   9.841   2.862  0.2231  0.0251  0.4824
20883W        W36777   6.727   8.695   2.733  0.1507  0.2698  0.2406
20884W        W36778   2.021   3.116   2.148 -0.0027  0.1830  0.0648
20885W        W36779  10.661   5.182   3.702  0.1732  0.0566  0.1055
20886W        W36780   5.370  16.081  14.099 -0.0066  0.0238 -0.1115
20887W        W36781   9.599   9.938   4.322 -0.0091  0.3028 -0.2414
20888W        W36782   2.018  11.390  16.031 -0.0913 -0.0171 -0.1706
20889W        W36783   9.477   7.087  10.914  0.1429 -0.0152  0.1609
20890W        W36784   7.804   3.789   5.879 -0.0733 -0.1392  0.0463
20891W        W36785   3.374   9.766  15.075 -0.2427 -0.2034 -0.4620
20892W        W36786   1.761  17.439   3.431  0.0449 -0.0300 -0.1612
20893W        W36787  14.758  16.826   5.051 -0.3073 -0.0917 -0.0084
20894W        W36788  17.607  13.025  15.773 -0.0477  0.1249  0.2987
20895W        W36789   2.684   0.394  16.410 -0.0306  0.1701 -0.1757
20896W        W36790  15.463   4.831   4.460 -0.0804  0.1309 -0.0361
20897W        W36791  16.662  16.600  16.539  0.0679  0.3573 -0.2330
20898W        W36792   3.773   4.021  14.531  0.0286  0.0104  0.0662
20899W        W36793  15.978  16.254   3.900 -0.2890  0.0022  0.1165
20900W        W36794   2.230   8.910  13.124  0.1001  0.0004  0.0841
20901W        W36795   4.093   4.944  14.614  0.1001 -0.2986  0.2097
20902W        W36796   3.595   1.412   6.319 -0.0029  0.1765  0.2079
20903W        W36797  16.414   7.391   2.605  0.1360  0.1298  0.3542
20904W        W36798   5.502   1.880  15.112 -0.0380 -0.2282 -0.0321
20905W        W36799   3.732   3.149   2.426 -0.1764 -0.1408 -0.2375
20906W        W36800   7.031   3.102   5.439  0.0170  0.0364  0.3297
20907W        W36801  13.360   7.975   3.645 -0.0034  0.0404 -0.3210
20908W        W36802  16.831   8.754   4.165 -0.1114  0.0771  0.0211
20909W        W36803  11.456   0.881  15.319  0.0935  0.2920  0.0506
20910W        W36804   6.850  15.056   5.788  0.1157 -0.2293 -0.0945
20911W        W36805   5.506  16.949  12.649 -0.1910 -0.0267  0.0188
20912W        W36806   8.674  13.387   4.163 -0.1051 -0.2927  0.0105
20913W        W36807  14.437   7.058  17.084  0.2140  0.0031 -0.1329
20914W        W36808  17.403  12.869   1.446  0.0754  0.0917  0.0625
20915W        W36809   4.316  10.024  15.511 -0.2599  0.1520  0.2750
20916W        W36810   4.970   3.868   5.884 -0.1942  0.0468 -0.0248
20917W        W36811  17.202  14.976   4.220  0.0507  0.1111 -0.1194
20918W        W36812  13.021  15.840   4.282  0.0001 -0.0433  0.2194
20919W        W36813   8.144  11.176  13.316 -0.2207 -0.1191 -0.3278
20920W        W36814  15.281   3.443   5.784  0.2560 -0.0886 -0.1682
20921W        W36815  10.220  16.127  16.993 -0.1731  0.1018  0.1509
20922W        W36816  15.317   7.391   4.806 -0.0154 -0.2546  0.1384
20923W        W36817   6.049   0.507   3.565  0.2217 -0.1010 -0.0549
20924W        W36818  15.590   9.978  12.842  0.3554 -0.0103  0.0103
20925W        W36819   4.815  13.240   3.659  0.1933  0.4223  0.2752
20926W        W36820  11.250   7.386  12.759 -0.0235 -0.0613  0.3168
20927W        W36821   7.351  10.538   0.685 -0.1696 -0.0460  0.0462
20928W        W36822   8.006   5.201   6.393  0.3575 -0.2656 -0.1771
20929W        W36823   6.656   0.651  14.441 -0.2616 -0.0899 -0.1481
20930W        W36824  11.599   6.104  14.578 -0.0441  0.0013  0.0780
20931W        W36825  15.338  11.733  15.329  0.3350  0.0541 -0.0897
20932W        W36826   7.529   8.742   5.717 -0.0406  0.1094  0.2068
20933W        W36827   6.922   9.237   4.083  0.1940  0.1944  0.1261
20934W        W36828   8.499   2.382   5.988 -0.4202  0.0123  0.1657
20935W        W36829   7.128  16.971   3.456  0.0405 -0.0153 -0.0601
20936W        W36830  16.835  12.647   5.673  0.1064 -0.0714 -0.0265
20937W        W36831   7.970   8.981   3.631  0.0886 -0.3810  0.1013
20938W        W36832   0.451  13.898   3.790  0.2341  0.1882 -0.1470
20939W        W36833  15.232   8.756   3.350  0.1921  0.0271  0.1618
20940W        W36834  15.001  17.499   1.026  0.1675  0.0757  0.1293
20941W        W36835   8.320  10.681  14.390  0.3499  0.1475  0.1427
20942W        W36836   5.489   2.674  15.658  0.0238  0.1072 -0.0931
20943W        W36837  13.510  13.907  12.081  0.1966  0.0955 -0.2776
20944W        W36838   2.899   6.558   0.673 -0.1360  0.1180  0.0514
20945W        W36839  11.516   4.643   5.772  0.3417  0.2779  0.2798
20946W        W36840   3.077   7.907   1.649  0.5389  0.3638  0.1341
20947W        W36841   6.392   2.698   0.091 -0.0609 -0.0303  0.0814
20948W        W36842  16.679  17.596   5.814  0.0268 -0.1039 -0.2666
20949W        W36843  16.790  10.837   4.541  0.3469  0.3388 -0.3868
20950W        W36844  11.463  11.235   3.401  0.0799  0.0587  0.0064
20951W        W36845  12.216   0.875   3.112 -0.1788  0.4356 -0.2871
20952W        W36846   2.415  14.993  15.236 -0.2294  0.1309 -0.1055
20953W        W36847   3.017   4.322   4.024 -0.0893 -0.1660 -0.1187
20954W        W36848  14.079   2.538   5.680  0.0772  0.0928  0.2562
20955W        W36849   9.483   8.631  15.481 -0.1019  0.2246  0.0553
20956W        W36850  10.965  12.564  11.756 -0.1990  0.0816 -0.1540
20957W        W36851  16.837  12.664   2.602 -0.2208  0.0501  0.1344
20958W        W36852   3.623   6.592   1.098  0.0619 -0.1366  0.1852
20959W        W36853   4.976   7.936  13.814 -0.2841 -0.1073 -0.2346
20960W        W36854  15.474  13.523  15.801 -0.1431  0.0017  0.2047
20961W        W36855  12.389  17.512   1.055  0.0296  0.0484 -0.0241
20962W        W36856  11.313   3.158   4.529  0.0156  0.2967 -0.2999
20963W        W36857   9.375   3.418   5.962 -0.1767  0.3511  0.0852
20964W        W36858   1.268  16.083  13.913 -0.1379 -0.1423 -0.1809
20965W        W36859  10.317   0.994   5.210  0.2372  0.1502 -0.1451
20966W        W36860  15.397  10.784   2.053 -0.1576  0.4255  0.2639
20967W        W36861   4.892  12.488   0.777 -0.2616 -0.1620  0.4181
20968W        W36862  16.475  16.082   5.120 -0.4796 -0.1551 -0.0344
20969W        W36863   7.482   2.180   3.417 -0.1918  0.1598 -0.0326
20970W        W36864  15.092   6.478   5.988 -0.1940  0.0008 -0.0405
20971W        W36865  15.614   9.024  12.744 -0.0594 -0.1654  0.0439
20972W        W36866   7.695   6.070   4.497  0.1850 -0.2597  0.2547
20973W        W36867  14.259  16.515   2.369 -0.0086 -0.1104  0.3740
20974W        W36868  15.914  15.584   0.854  0.0978  0.0410  0.4223
20975W        W36869  12.507   2.573  15.603  0.0117  0.2296 -0.1994
20976W        W36870  14.631   4.016  17.048 -0.4259 -0.5137  0.3909
20977W        W36871   2.287  16.281  15.831 -0.2885  0.0248  0.0623
20978W        W36872  16.361  14.284   5.096 -0.2032 -0.0032  0.1421
20979W        W36873  16.154   1.037   2.606 -0.0806 -0.0343 -0.0277
20980W        W36874  12.228  10.659   0.793  0.2504 -0.1449  0.0979
20981W        W36875  13.084  16.229   5.128 -0.1036 -0.1383  0.0297
20982W        W36876   0.188   6.136  15.787 -0.1578 -0.1723  0.3766
20983W        W36877   2.485   2.780  15.365 -0.0819 -0.4230 -0.0838
20984W        W36878   7.117  13.483   3.681  0.0349 -0.1527 -0.1324
20985W        W36879  16.445   0.892  17.100 -0.0972  0.2288 -0.0125
20986W        W36880  15.546  16.068   3.619 -0.0983  0.3492 -0.1662
20987W        W36881  13.252   3.568  16.190 -0.1991 -0.0526  0.1006
20988W        W36882  13.194   9.328  14.106  0.2002  0.1261  0.0490
20989W        W36883   4.912  13.251  16.012 -0.0873  0.0505  0.0947
20990W        W36884   5.323  10.179  15.664  0.0495  0.2499  0.1037
20991W        W36885   8.378   2.481   5.419 -0.0790  0.2540  0.0265
20992W        W36886  14.848  17.482  13.869  0.0096 -0.0347  0.1865
20993W        W36887  10.816   1.174  17.020  0.0741  0.2756  0.0243
20994W        W36888  11.889  11.280   0.153  0.0908  0.1520  0.3883
20995W        W36889   9.301   2.829  12.492 -0.0110  0.0305 -0.3578
20996W        W36890   7.086  15.965   5.518 -0.0892 -0.1050 -0.1343
20997W        W36891  17.375  13.862  16.594  0.3064  0.0168  0.0464
20998W        W36892   9.317   8.754   0.726 -0.0167 -0.0514 -0.2849
20999W        W36893   5.685  13.139  11.941 -0.3212 -0.0864  0.0289
21000W        W36894   6.124  14.050   3.053  0.0458  0.0345 -0.1114
21001W        W36895   8.506   3.770  13.358  0.0860  0.0542  0.1430
21002W        W36896   8.677   5.529  13.262  0.2094  0.2813  0.0445
21003W        W36897   1.031   0.646   0.808 -0.0791 -0.1212 -0.0587
21004W        W36898   7.221  13.590  15.993 -0.1312 -0.1329  0.2440
21005W        W36899   9.845   1.556   2.226  0.0078 -0.1209  0.0084
21006W        W36900  10.899  15.296   3.848 -0.2486 -0.1430 -0.1940
21007W        W36901   0.261   0.650   5.563  0.0998  0.1283  0.2250
21008W        W36902   1.268  12.401   2.632  0.3103 -0.4316  0.0422
21009W        W36903  15.208   1.325  16.716 -0.0413  0.1957 -0.1507
21010W        W36904   5.990  14.452   5.915  0.0014  0.1352  0.0610
21011W        W36905  15.610   9.653  15.466  0.2703  0.0912 -0.2057
21012W        W36906   8.338   4.369   0.952 -0.2415 -0.0354  0.1934
21013W        W36907   8.574  14.453   3.102 -0.1189  0.0752 -0.0097
21014W        W36908  15.905  10.575  15.090 -0.1249 -0.0887  0.1775
21015W        W36909   9.449   5.845   4.860  0.0423  0.4131 -0.3086
21016W        W36910  14.290   3.744  12.174 -0.0414  0.2559 -0.0429
21017W        W36911   4.445  15.616  14.630  0.0754 -0.0812  0.3979
21018W        W36912  10.042   9.445   3.530 -0.2333  0.1828 -0.2519
21019W        W36913   4.021   5.888   5.659 -0.0951 -0.3239 -0.0961
21020W        W36914  14.232   8.572  16.373  0.2210  0.0749 -0.0787
21021W        W36915   1.133  11.174  12.456  0.2390  0.0317  0.1872
21022W        W36916  11.818   1.140  12.379  0.2741  0.0083  0.1136
21023W        W36917  13.483   1.244  16.178  0.5553  0.0297 -0.0902
21024W        W36918   7.302  11.606   0.577 -0.2407  0.1222  0.0760
21025W        W36919  13.516  14.720  14.015 -0.2127 -0.0860  0.0342
21026W        W36920  12.252   8.632   5.313 -0.1987  0.2665  0.1086
21027W        W36921   9.743   0.012   1.981 -0.0758 -0.4089 -0.2815
21028W        W36922   2.711   7.797  11.214  0.0569  0.0351  0.0353
21029W        W36923   3.041   8.418   4.111 -0.1170 -0.2578  0.0128
21030W        W36924   2.254   0.736  15.123  0.0461 -0.1381  0.2086
21031W        W36925   3.232  10.043   1.927  0.0855  0.1060 -0.0625
21032W        W36926  16.410   1.724   4.105 -0.4128  0.1350  0.0770
21033W        W36927   0.222   4.248  16.448  0.0833 -0.2666 -0.1074
21034W        W36928   4.360   8.732   4.334 -0.1036 -0.0718 -0.0623
21035W        W36929   8.785   3.717  14.745  0.3466  0.0657  0.0654
21036W        W36930   2.518  14.729   1.520  0.0729  0.0332  0.1823
21037W        W36931  16.693  10.939  15.647 -0.0411 -0.0657 -0.0487
21038W        W36932   7.607   8.679  13.142 -0.0734  0.0313 -0.2851
21039W        W36933   2.543   2.188   1.418 -0.1405  0.4631  0.1722
21040W        W36934  16.110   8.995   5.313 -0.1750 -0.1958 -0.0648
21041W        W36935   4.895  11.015  16.331  0.0835 -0.0641  0.3541
21042W        W36936   8.505  15.408  17.262  0.0746  0.0162  0.0302
21043W        W36937   0.766   7.043  17.152  0.2020  0.1603  0.3299
21044W        W36938  16.068  12.147  17.045  0.1266  0.0941 -0.3133
21045W        W36939  10.538   1.473  16.768  0.0211 -0.0830 -0.5853
21046W        W36940  16.829  13.637   5.286  0.1703 -0.0377 -0.2219
21047W        W36941  11.368   4.954  11.593  0.0230  0.2620 -0.1626
21048W        W36942  13.167   4.068  16.526  0.1970  0.0905 -0.3945
21049W        W36943   1.810   6.168   2.225  0.1805  0.2622 -0.3888
21050W        W36944   2.927   1.134  16.673 -0.0409  0.1281 -0.1840
21051W        W36945  13.013   6.214   4.687  0.1028 -0.0996 -0.2432
21052W        W36946  10.082  12.420  12.535  0.3002 -0.0501  0.0168
21053W        W36947  14.276  13.535   2.966  0.0914 -0.0810  0.1019
21054W        W36948  17.088   7.937   5.834  0.0090 -0.0331  0.2152
21055W        W36949  10.515   3.004  15.441 -0.2210  0.0648 -0.1712
21056W        W36950   8.298   5.450   6.039 -0.4026 -0.2904 -0.3794
21057W        W36951  15.788  10.888   0.158  0.1928 -0.4633  0.1184
21058W        W36952  14.016   4.799  16.611 -0.0566  0.3231 -0.1349
21059W        W36953   8.307  16.387  15.331  0.0677  0.1299  0.1058
21060W        W36954  11.561  13.326  12.482  0.2079  0.1184  0.1018
21061W        W36955   5.079  14.111   3.671 -0.1439  0.4005  0.1972
21062W        W36956   4.446  13.903   5.593  0.0144 -0.1643  0.2513
21063W        W36957   5.045   2.162   0.331  0.3793 -0.0429  0.0530
21064W        W36958   7.123   8.137  16.031  0.0148  0.0333  0.1492
21065W        W36959  14.696  16.654  13.638 -0.0080  0.1515  0.0886
21066W        W36960  10.502   6.981  16.878 -0.2351 -0.0010  0.3040
21067W        W36961   6.227  12.093  16.995  0.2773  0.3737  0.0266
21068W        W36962   6.788  17.181  15.966  0.2693 -0.1409  0.0669
21069W        W36963  16.915  17.627   6.231  0.1797  0.1504 -0.3059
21070W        W36964  10.722   2.907  15.890 -0.1925 -0.0294  0.0856
21071W        W36965  13.750   0.213   2.628 -0.3547 -0.3930  0.2050
21072W        W36966   3.208  14.231  13.158  0.0188  0.1433  0.1458
21073W        W36967   2.554   4.137   6.539  0.0933 -0.0052  0.0250
21074W        W36968   4.781  13.148   1.477  0.0785  0.2380  0.2367
21075W        W36969  14.371   1.124  14.531  0.1216  0.0846 -0.0355
21076W        W36970   1.823  12.966   0.507  0.0163 -0.2124  0.0674
21077W        W36971  12.049  16.034   1.671 -0.1001 -0.1071  0.0955
21078W        W36972   1.249  10.790  12.749 -0.0782  0.1437  0.3295
21079W        W36973   6.547   8.568   5.366 -0.3002  0.0464  0.1346
21080W        W36974   4.503   5.486   0.671  0.0295 -0.3463  0.0216
21081W        W36975   6.079  15.113  13.054  0.1117  0.0483  0.3667
21082W        W36976   8.942  11.632  16.073  0.0662 -0.1107  0.2503
21083W        W36977   4.427   4.176   1.849 -0.0539  0.0911 -0.1797
21084W        W36978  15.616  12.868  16.095 -0.1392 -0.1990 -0.1088
21085W        W36979  14.303  14.172  12.816 -0.0731  0.2180 -0.1852
21086W        W36980   5.353  10.509   4.959 -0.0833 -0.2993 -0.0518
21087W        W36981  14.884  11.236  15.785  0.1423  0.1039 -0.1029
21088W        W36982  15.736  12.866  14.475  0.1464 -0.4799  0.0354
21089W        W36983   2.457   0.492  13.513 -0.1243 -0.3357  0.0318
21090W        W36984   1.390  11.107   6.013  0.1073  0.1449 -0.0395
21091W        W36985  11.444  14.146  14.274 -0.0874  0.1781  0.0084
21092W        W36986  17.383   5.279  12.599  0.0139 -0.3035 -0.0130
21093W        W36987  13.791   5.974   4.863  0.1517 -0.0943 -0.1243
21094W        W36988  10.694   9.626  11.550  0.3188  0.3123  0.2265
21095W        W36989   9.527  14.592   0.745 -0.1713 -0.3560 -0.4332
21096W        W36990  11.982  15.018   2.282 -0.1699  0.4208  0.0177
21097W        W36991   6.838  14.316  15.009  0.0524  0.0434  0.1412
21098W        W36992   0.462   2.124  15.504 -0.2636  0.1650 -0.0671
21099W        W36993  13.861  14.528  15.324 -0.2016  0.3705 -0.0126
21100W        W36994   6.341   4.081  13.789  0.0094 -0.0696 -0.1192
21101W        W36995  14.086  10.811   2.624 -0.3134  0.0621 -0.1078
21102W        W36996   6.772   5.665   6.280  0.1596  0.2165  0.0608
21103W        W36997  15.877  15.795   3.397 -0.0914  0.2253  0.0189
21104W        W36998  17.259  15.187  15.352  0.3075  0.3647  0.1033
21105W        W36999   9.024   5.332   4.498  0.2350  0.2789  0.0645
21106W        W37000   1.955  15.281  15.051  0.0790  0.1129  0.0962
21107W        W37001   7.540   4.932  13.696  0.0481  0.2572 -0.1096
21108W        W37002   3.949   9.426  16.742 -0.2381 -0.1626  0.0479
21109W        W37003   4.063   0.388  16.301 -0.0776  0.2795  0.1837
21110W        W37004   5.687   2.172  13.641  0.3663  0.1098 -0.1158
21111W        W37005   2.793   6.329   5.974  0.2788  0.1887 -0.3741
21112W        W37006   8.413  17.594  12.407 -0.0533 -0.1501  0.2101
21113W        W37007   0.669   5.207   1.568  0.0810 -0.1791  0.1391
21114W        W37008  12.953   7.923  17.116 -0.0317 -0.1091 -0.1688
21115W        W37009   5.667   9.330   0.048  0.1617  0.1334  0.1419
21116W        W37010  13.339   9.394   3.431  0.4223 -0.1111  0.0786
21117W        W37011   4.299  11.246   0.282 -0.0360  0.1493  0.2185
21118W        W37012   6.328   5.668  16.297  0.1133 -0.0092 -0.0729
21119W        W37013  12.803  11.351   0.703 -0.2943  0.0624  0.0666
21120W        W37014  17.317  16.596  15.421  0.0490  0.2013  0.1736
21121W        W37015   4.150   4.714   1.498 -0.0014  0.0981 -0.2676
21122W        W37016  15.584  10.880   2.564  0.3510  0.2156 -0.0095
21123W        W37017  15.656   1.556   0.440 -0.1886 -0.4585 -0.2260
21124W        W37018   6.528  15.260  16.197  0.0130  0.0161 -0.0177
21125W        W37019   3.400   6.319  14.748 -0.0936  0.4099  0.1248
21126W        W37020  16.809   2.018   4.223  0.1796  0.0400 -0.0648
21127W        W37021  14.600  10.819   4.904 -0.1959  0.0635  0.0519
21128W        W37022   6.154   9.304  16.139  0.2140 -0.0273 -0.1334
21129W        W37023   3.256   8.295   1.934  0.0281  0.3389  0.0646
21130W        W37024   2.557  13.055  17.031  0.0296  0.4372 -0.0272
21131W        W37025  15.600  10.272  14.852 -0.2198  0.2933  0.1205
21132W        W37026   9.793   6.983   0.193  0.2683  0.0634 -0.2665
21133W        W37027  15.075   7.669  14.449  0.1321 -0.0030  0.0914
21134W        W37028   3.306  12.424  13.042 -0.1056  0.0978  0.2483
21135W        W37029  12.216  11.911  12.089  0.1246  0.6160 -0.1419
21136W        W37030   8.506  10.952   5.452 -0.1548 -0.1543 -0.0021
21137W        W37031  13.387   3.887  13.835  0.0706  0.3184  0.1073
21138W        W37032   0.293   0.534  13.413 -0.0837  0.1910 -0.1880
21139W        W37033   4.814   6.691  14.265  0.0445 -0.2218 -0.3883
21140W        W37034   6.246  13.867  14.427  0.0221  0.0550  0.1820
21141W        W37035   7.442   6.234   4.111  0.0880 -0.2804  0.3182
21142W        W37036   2.772  15.669  14.211  0.3879  0.2751 -0.3138
21143W        W37037  14.245   0.153   2.008 -0.3911  0.2734 -0.3038
21144W        W37038  15.112   2.074   5.372  0.1806 -0.2010  0.2086
21145W        W37039   9.561   6.155   1.125 -0.3368 -0.1638 -0.0967
21146W        W37040  15.298  10.388  15.311 -0.3745  0.0913 -0.3643
21147W        W37041   2.993  14.823   1.304  0.4640 -0.0990 -0.1984
21148W        W37042   6.880   5.973   3.119 -0.0800  0.3493  0.3130
21149W        W37043  11.202   2.602  17.035 -0.3066  0.1718  0.0297
21150W        W37044  13.783  10.211   0.124  0.1558 -0.1157 -0.1228
21151W        W37045   6.035   0.028   2.061  0.0935  0.1380  0.0474
21152W        W37046   2.758  13.910  12.168 -0.2886  0.0680  0.1281
21153W        W37047  11.690   1.903   2.197  0.1553  0.4176  0.0673
21154W        W37048   2.317   0.010   5.293 -0.2034  0.0236  0.1112
21155W        W37049   0.911   7.874   1.140  0.1643  0.0447  0.0487
21156W        W37050  13.475  17.251   3.954 -0.1604  0.2110  0.0581
21157W        W37051   7.178   7.206   0.360 -0.1807  0.2232 -0.2111
21158W        W37052   4.507   8.280   6.513  0.5835  0.2605 -0.2228
21159W        W37053  10.388   8.947   4.351 -0.2047  0.2061 -0.2075
21160W        W37054  14.330  11.620   5.628  0.1287 -0.3592  0.2023
21161W        W37055   0.417   8.386  15.341 -0.0241 -0.1574  0.0780
21162W        W37056   3.173   5.271   4.563  0.1036  0.1628  0.3537
21163W        W37057  12.824  13.025   1.074  0.0784  0.0146 -0.0212
21164W        W37058  11.902   6.607   3.386 -0.0484  0.1974 -0.1034
21165W        W37059  13.734  17.411  15.045  0.3827 -0.3093 -0.0518
21166W        W37060  13.854  12.736  16.422 -0.0609 -0.1686 -0.2273
21167W        W37061   7.899  16.626  15.911 -0.2737 -0.1474 -0.0226
21168W        W37062   6.556  14.509  12.841 -0.0330 -0.0955  0.0261
21169W        W37063   7.249  17.175  15.642 -0.1163  0.1882 -0.0147
21170W        W37064   4.942  15.840   3.960 -0.3975 -0.0378  0.1671
21171W        W37065   9.861   8.164  13.350 -0.0087 -0.2219  0.1989
21172W        W37066   9.790   4.224   5.902 -0.0683 -0.0297 -0.0952
21173W        W37067  17.182   0.483  14.900  0.0563 -0.1554 -0.0157
21174W        W37068  12.603   1.424   1.770 -0.1684  0.1461 -0.1637
21175W        W37069  13.530   2.712  12.288  0.3260  0.0054 -0.1689
21176W        W37070  16.166  12.040   3.449 -0.2149  0.2385  0.2061
21177W        W37071   7.016   9.981   2.519 -0.2771 -0.0182 -0.5297
21178W        W37072  16.155   6.403  16.697  0.2348  0.2323 -0.0768
21179W        W37073   0.952   4.701   3.034 -0.1539 -0.3290  0.2143
21180W        W37074  13.949   4.589   1.114 -0.1373 -0.2884 -0.0526
21181W        W37075   9.120  10.976   4.910 -0.1333 -0.2544 -0.3318
21182W        W37076  12.012   6.951  13.162 -0.0195 -0.0543  0.0570
21183W        W37077  15.970   1.127   4.352  0.0307 -0.2637 -0.1636
21184W        W37078  11.950   8.630  12.957  0.0083  0.0841  0.2400
21185W        W37079  12.590   3.291   2.282  0.1939  0.2250  0.0937
21186W        W37080   7.552   7.821  11.737  0.4128 -0.1617 -0.1389
21187W        W37081  10.635  12.568   0.551  0.2717 -0.1186 -0.2156
21188W        W37082  11.626  14.155  13.807 -0.1096 -0.0807 -0.1220
21189W        W37083   2.574   7.785  14.414  0.0142 -0.1878  0.0040
21190W        W37084  11.722   0.139   5.241  0.0532  0.3018 -0.2105
21191W        W37085   0.725   5.219   0.395 -0.2765 -0.0581  0.0648
21192W        W37086  16.448   0.789  13.844  0.4371 -0.0119  0.0532
21193W        W37087   7.402  12.507  14.962 -0.0351  0.1676 -0.0122
21194W        W37088  15.151  12.565  15.874  0.2620  0.2777  0.3507
21195W        W37089  12.189   6.798  11.173 -0.0527  0.0004 -0.3332
21196W        W37090   0.258  16.405   3.692 -0.2486  0.2566 -0.2020
21197W        W37091   6.191   3.429   2.462 -0.2090 -0.0502  0.0461
21198W        W37092  15.029  11.259   4.700 -0.0340 -0.0558 -0.0841
21199W        W37093   3.011   8.772  16.908  0.1311 -0.0055 -0.4657
21200W        W37094   7.049   0.654   4.358  0.1235  0.1664  0.1731
21201W        W37095   3.584  11.037   3.148  0.2648 -0.0213 -0.1847
21202W        W37096   6.629   9.173  15.335  0.2472 -0.4480 -0.2207
21203W        W37097   7.945   9.975   4.124  0.0120 -0.3046 -0.1957
21204W        W37098  10.829  11.090   1.732 -0.1701  0.2000  0.1326
21205W        W37099   6.547   6.888   0.724 -0.1079  0.4018 -0.0593
21206W        W37100   1.504  11.261  17.083  0.1490 -0.1030 -0.0628
21207W        W37101   7.558  11.443  15.879  0.2600 -0.0338  0.0169
21208W        W37102  12.178  15.763  14.266  0.1612 -0.1648  0.0542
21209W        W37103  13.989   6.372   0.806  0.2200  0.1953 -0.1119
21210W        W37104   6.478  17.151   4.498 -0.1331  0.1546  0.1132
21211W        W37105   4.244   1.068  16.898 -0.2553 -0.0145 -0.1778
21212W        W37106   2.545   2.914  13.551  0.0466 -0.0950  0.1015
21213W        W37107   9.163   0.029   0.235 -0.1034  0.0971  0.1471
21214W        W37108   5.741   2.679   1.457 -0.0190  0.0425 -0.0172
21215W        W37109  14.986   1.306   3.495 -0.0804  0.0680  0.0420
21216W        W37110   0.066   8.272  12.465 -0.0229  0.1201  0.0125
21217W        W37111  13.605  12.343   2.271 -0.0756 -0.3672  0.2215
21218W        W37112   0.566   1.706   3.133 -0.0005 -0.2846  0.0589
21219W        W37113   1.834   0.277   3.254 -0.2767  0.0121 -0.1631
21220W        W37114   7.883  12.508   1.665 -0.2366 -0.1699  0.2843
21221W        W37115  13.562   7.759   4.111 -0.3127  0.1050  0.0565
21222W        W37116  16.147   6.941  12.027  0.0742 -0.0692 -0.0981
21223W        W37117  12.240   8.245   4.375  0.2228 -0.0463  0.0161
21224W        W37118   9.854   9.342  15.565  0.1357  0.0013 -0.1261
21225W        W37119   2.817   3.246   5.484  0.0474  0.2549 -0.0555
21226W        W37120  12.513   5.251  12.330  0.1285  0.0595 -0.2822
21227W        W37121   9.587   8.493  12.575 -0.3122  0.1095 -0.1136
21228W        W37122   9.371  12.717   1.966 -0.0164  0.0808 -0.2160
21229W        W37123   2.014   7.093  16.808  0.2096 -0.2055 -0.0379
21230W        W37124  14.248   3.059  12.928  0.0252  0.0444 -0.2515
21231W        W37125   7.898   5.124  16.268  0.3163  0.1376  0.0736
21232W        W37126   4.544   8.158   1.641  0.1510  0.1052  0.1025
21233W        W37127  13.777  15.323  12.545 -0.1974 -0.1971  0.1502
21234W        W37128   5.971   9.231  16.595 -0.1338 -0.0669  0.1740
21235W        W37129  16.607  16.319   3.053  0.1326 -0.1188 -0.2490
21236W        W37130   4.210  11.766   5.276  0.0262 -0.2333  0.1301
21237W        W37131   1.775  16.085  16.184 -0.0354  0.0803 -0.3182
21238W        W37132   4.946  11.126   5.260 -0.0985  0.2060 -0.0760
21239W        W37133  10.727   9.960   1.438  0.2134  0.1543  0.3126
21240W        W37134   5.929   8.074   1.843  0.2630  0.0880  0.2350
21241W        W37135  11.896   0.094  13.173  0.0076 -0.1896 -0.0744
21242W        W37136   7.876  17.559   4.357 -0.0074  0.3365  0.0125
21243W        W37137  15.117  13.627  16.488 -0.0253  0.0676  0.1975
21244W        W37138   0.179  14.243   6.208 -0.2960 -0.3294  0.2150
21245W        W37139  10.892   0.207  13.624  0.0396  0.1662 -0.0500
21246W        W37140  11.684  10.575   4.562  0.0087  0.2741  0.2061
21247W        W37141   7.032  13.576   5.193 -0.2890  0.2433  0.1298
21248W        W37142  11.095   1.656  14.891  0.3834  0.1875 -0.1705
21249W        W37143  17.011  11.792   0.661 -0.2129 -0.0113 -0.0586
21250W        W37144   9.396   1.448  14.628 -0.1530  0.1255 -0.1556
21251W        W37145  10.535  16.402  16.159  0.2499  0.0286  0.1354
21252W        W37146   7.931   2.521   6.577 -0.0409  0.1661 -0.0668
21253W        W37147   8.808   5.266  12.799  0.0619 -0.1628  0.1006
21254W        W37148   2.583   5.940  13.797 -0.2883 -0.5378 -0.3324
21255W        W37149   0.061   7.390   3.560 -0.1970  0.2666 -0.1068
21256W        W37150   7.937   7.881   1.094 -0.0987 -0.0010  0.1722
21257W        W37151  10.939   2.012   1.023 -0.0530 -0.1854 -0.1209
21258W        W37152  10.963   7.366  14.945 -0.0129 -0.2666 -0.2172
21259W        W37153   8.464   7.499  14.931  0.1616  0.0433  0.1792
21260W        W37154   5.724   4.650  16.344  0.0011  0.2045 -0.0098
21261W        W37155   1.366   7.016   1.292  0.1807 -0.1898  0.0204
21262W        W37156  13.854   0.718   3.958 -0.2286  0.0348  0.1184
21263W        W37157   6.036   5.544   5.378 -0.0307  0.0649  0.0383
21264W        W37158  16.531   0.163   3.641  0.0276 -0.0655  0.4073
21265W        W37159   8.907  13.007   1.837 -0.4743 -0.2194  0.1076
21266W        W37160  13.908   8.985  16.888 -0.1066  0.3922 -0.0709
21267W        W37161   3.392  13.196   2.209  0.1387 -0.0600 -0.1593
21268W        W37162   9.304   3.377   5.444 -0.1691  0.2807 -0.1113
21269W        W37163   0.931  11.619  17.147 -0.3507  0.2029 -0.0753
21270W        W37164   9.385   4.232  13.307  0.0552 -0.1146  0.1488
21271W        W37165  15.599  15.496   3.829 -0.1949  0.1700  0.2336
21272W        W37166   6.575   7.365  13.517  0.1438  0.3078  0.1812
21273W        W37167  13.476  17.043  16.838 -0.1588 -0.1761  0.2060
21274W        W37168  14.601   3.627  13.267 -0.1466 -0.0281  0.4200
21275W        W37169   3.710  10.282   2.639 -0.0609  0.0535  0.1752
21276W        W37170  14.426  13.925   4.796 -0.1705 -0.3418  0.0561
21277W        W37171   7.671   1.099   2.727  0.0894  0.1503  0.0968
21278W        W37172   0.398  17.150  14.517  0.0603 -0.2012 -0.2261
21279W        W37173   8.386   1.277   5.357 -0.2988  0.3031 -0.2980
21280W        W37174  12.388  15.137   3.978 -0.2284  0.5526  0.0546
21281W        W37175   2.888   9.941   2.305 -0.0270 -0.4020 -0.2798
21282W        W37176  14.947  16.453   2.501 -0.0897 -0.3395 -0.0868
21283W        W37177  15.217   6.820   5.613 -0.0745 -0.0533  0.1238
21284W        W37178  16.370  15.193   3.160 -0.2309  0.2006  0.0495
21285W        W37179  10.916  10.024  16.866 -0.0740 -0.1510 -0.0032
21286W        W37180  11.217   3.628  17.133 -0.2223  0.0849  0.1954
21287W        W37181   0.567   9.069   5.772 -0.2102 -0.0444  0.1356
21288W        W37182  10.255   3.081   0.916  0.0720 -0.0754 -0.1476
21289W        W37183   5.767   8.705  12.202  0.2140  0.1868 -0.2058
21290W        W37184  14.281   3.010   1.815  0.1324  0.2431  0.5101
21291W        W37185  10.452  11.022   2.018  0.4224  0.1020 -0.1117
21292W        W37186  13.007  17.133  15.495  0.1416  0.0464  0.1580
21293W        W37187  14.749  12.436   3.038 -0.2057 -0.0054 -0.0066
21294W        W37188   1.785   6.406   5.800  0.0598 -0.1892  0.0269
21295W        W37189   3.051   8.200  16.076  0.5563 -0.2264 -0.0488
21296W        W37190  14.943  14.749   1.449 -0.0410  0.1294 -0.1350
21297W        W37191   1.485   0.804  14.648 -0.0871 -0.1138 -0.1485
21298W        W37192   6.353  10.004  14.744 -0.1268  0.0789 -0.2002
21299W        W37193   2.625  10.724  16.416  0.2849  0.1774  0.0330
21300W        W37194   9.306  10.395   2.087  0.2920 -0.0333  0.1723
21301W        W37195  17.606   2.418   0.399  0.1110 -0.0922 -0.1048
21302W        W37196  11.239   5.323  11.952  0.1260 -0.0279  0.0265
21303W        W37197   0.485   9.755  14.074 -0.0346  0.1030  0.1489
21304W        W37198   1.657   9.355   4.935 -0.2052 -0.0978  0.1576
21305W        W37199   6.219   5.435   2.146  0.2964  0.1190 -0.0781
21306W        W37200   3.309  16.940  14.869  0.1945  0.0021 -0.1416
21307W        W37201  13.832   5.261   0.260  0.0039  0.1551 -0.1798
21308W        W37202   0.261  12.526   3.779 -0.1898 -0.3043 -0.0797
21309W        W37203   9.653   6.007  10.942  0.0698 -0.4510 -0.1831
21310W        W37204  17.052   4.065  15.176  0.0325  0.0815  0.0911
21311W        W37205  16.907  15.919  13.562  0.2481 -0.0804  0.0281
21312W        W37206   3.499   8.131   4.267  0.0919 -0.1818  0.0321
21313W        W37207  12.548   4.265  14.447  0.1936 -0.3323  0.2338
21314W        W37208  15.464  10.982  12.902 -0.1943  0.1777  0.1517
21315W        W37209   7.512   6.055   3.503 -0.0998  0.1107  0.1611
21316W        W37210   7.592   8.053   5.279  0.0680 -0.1195  0.1456
21317W        W37211  17.160   4.268   1.668  0.0109 -0.1994 -0.1010
21318W        W37212   2.591  17.357   4.912  0.1682 -0.1135  0.1080
21319W        W37213   7.926  10.723   4.555  0.2940  0.1029  0.1130
21320W        W37214   1.252  17.288   5.961 -0.1618 -0.2415  0.2287
21321W        W37215  15.497  14.487   3.913  0.2029 -0.1120 -0.1389
21322W        W37216   2.940   3.664   0.925  0.1241 -0.1587  0.1203
21323W        W37217  13.085   1.340   4.866 -0.4172 -0.1676  0.0469
21324W        W37218  12.351   4.084   2.769 -0.3469 -0.1386  0.1037
21325W        W37219  13.514   6.518   1.263  0.1323  0.3947  0.0495
21326W        W37220   3.095  13.537  15.518 -0.0529 -0.1583  0.0884
21327W        W37221   3.498   2.221   4.196  0.1534 -0.2449 -0.0666
21328W        W37222   6.691   4.914  12.408  0.0343 -0.0752  0.0709
21329W        W37223   5.640   1.686   5.814  0.3177  0.1079 -0.1426
21330W        W37224   4.469   8.208  15.219  0.1820  0.2546 -0.0545
21331W        W37225  16.290  11.131  13.702  0.0098  0.2879 -0.2425
21332W        W37226  11.034   8.260  12.714  0.0077 -0.1224  0.0227
21333W        W37227   3.350  12.485   2.012  0.0727  0.0226 -0.1589
21334W        W37228   9.656   0.212  11.851 -0.3736 -0.0615  0.1382
21335W        W37229   2.167  11.694  15.373 -0.0062  0.0505  0.1703
21336W        W37230  12.749  11.001  14.625  0.1603 -0.3148 -0.0399
21337W        W37231  17.427   4.462  15.113  0.1677  0.4489  0.1127
21338W        W37232   3.383  16.441  14.791 -0.1503  0.0048  0.0438
21339W        W37233  16.923  16.217   1.213  0.1265 -0.3483  0.0807
21340W        W37234   9.453   6.623  14.902 -0.3351  0.0339  0.1470
21341W        W37235   8.442   7.852  14.477  0.2070  0.0212  0.0211
21342W        W37236  10.763   3.749   2.666 -0.0281 -0.3117  0.0476
21343W        W37237  13.010   0.380  15.372  0.1305 -0.0678  0.1170
21344W        W37238  10.977   7.464  10.804  0.0583  0.0323  0.1692
21345W        W37239  13.700   8.264   3.905 -0.1953  0.0316  0.2930
21346W        W37240   4.668   3.883   1.301 -0.1652  0.1733 -0.1837
21347W        W37241   6.792   4.222   5.337  0.0456 -0.4817  0.0806
21348W        W37242   0.671   9.771  16.091  0.1323  0.2194  0.1076
21349W        W37243  15.389   2.093  16.381 -0.0241  0.4893 -0.1447
21350W        W37244   7.729   4.022  16.170  0.0051 -0.1167  0.0215
21351W        W37245   0.124  14.958  12.188  0.1985  0.0060 -0.1279
21352W        W37246   1.587  12.735  13.404 -0.0331  0.0781  0.0325
21353W        W37247   1.295  11.664   3.228 -0.0456  0.0232  0.1184
21354W        W37248  13.946   6.019   1.806 -0.2889  0.1036 -0.2877
21355W        W37249   3.143   9.466   0.544 -0.2839 -0.1252  0.0376
21356W        W37250   1.830  12.791  14.810 -0.0228  0.0541  0.0096
21357W        W37251  10.317  14.443   3.851  0.1496 -0.1083 -0.1041
21358W        W37252  13.998  15.559  12.157 -0.0626  0.0011  0.0758
21359W        W37253   3.225   5.692  14.867 -0.0047  0.2590 -0.0357
21360W        W37254  11.705  17.182   3.023  0.2804  0.1546  0.0503
21361W        W37255  13.121   2.797   3.047 -0.0692  0.2732  0.0174
21362W        W37256  12.481   4.069  17.277  0.4310 -0.0496 -0.1465
21363W        W37257   3.797   4.160  13.737  0.1000  0.0155 -0.2067
21364W        W37258   5.962  13.797  14.829  0.0461 -0.0668  0.2242
21365W        W37259  10.015   7.949  11.138  0.1606 -0.0848 -0.0876
21366W        W37260   5.554  17.282  14.723  0.0487  0.0095 -0.4765
21367W        W37261   2.410  10.541   2.944  0.0812 -0.0254 -0.1788
21368W        W37262   9.848   6.527  15.701 -0.2681  0.1078 -0.5611
21369W        W37263  12.613   0.169   3.546  0.0538 -0.1454  0.1751
21370W        W37264   9.268  10.426   2.645  0.1744 -0.0696 -0.0007
21371W        W37265  16.706   3.919   6.014 -0.4775  0.0735  0.1077
21372W        W37266   8.593   0.401   5.244  0.2900 -0.2273  0.0050
21373W        W37267  11.153  16.008  17.242  0.0505 -0.1833  0.4507
21374W        W37268  10.188   0.211   1.029  0.0619 -0.0740  0.0305
21375W        W37269   9.807   9.772  10.828 -0.0896  0.0926  0.0840
21376W        W37270   7.316   9.594  15.086 -0.0221 -0.2297 -0.3223
21377W        W37271  10.918   2.413   1.302 -0.0221  0.2725 -0.0572
21378W        W37272   6.873   2.411  16.406  0.0459  0.0745 -0.0016
21379W        W37273   5.354   4.133  14.362  0.3122 -0.0105  0.0552
21380W        W37274   6.332  12.731   3.429 -0.1717 -0.2653  0.1101
21381W        W37275  10.499  11.200   4.482 -0.0907 -0.1037  0.0586
21382W        W37276   2.364  14.661  17.295 -0.2426 -0.1150  0.1408
21383W        W37277  13.995   4.822   1.533  0.0544 -0.0980  0.0191
21384W        W37278   8.103  16.685  11.962 -0.0701  0.2365 -0.3276
21385W        W37279   5.833  16.442   1.369  0.0477 -0.1877  0.2467
21386W        W37280   1.927  13.652   3.503  0.1407  0.0633  0.1278
21387W        W37281  14.677   0.852  13.304 -0.0272 -0.1842  0.0083
21388W        W37282   8.036   2.171  12.404  0.4080 -0.0876 -0.0142
21389W        W37283   0.916   6.176   3.607 -0.1797  0.1426 -0.3204
21390W        W37284   7.954  14.657   1.852  0.1771  0.2085 -0.1979
21391W        W37285   4.397   8.807  15.524  0.1874  0.1585  0.0431
21392W        W37286   0.531   2.947   1.394  0.0818  0.0955 -0.4432
21393W        W37287   4.405  12.443   6.240 -0.1918 -0.3784  0.0104
21394W        W37288  10.718  15.615   4.644  0.0168 -0.2913 -0.1546
21395W        W37289   9.264   9.361  14.711  0.1477 -0.1311  0.1530
21396W        W37290   0.066  15.142   4.178  0.0726  0.1042  0.1188
21397W        W37291  12.371   1.766   2.183  0.2665 -0.0382 -0.0693
21398W        W37292  10.714   6.421  16.004  0.1261 -0.1313  0.0940
21399W        W37293  13.992   6.733   1.225 -0.0559  0.1408  0.3587
21400W        W37294   0.948   0.910   6.349  0.1141 -0.1053 -0.1352
21401W        W37295  13.684   3.617  15.915  0.2953  0.0504 -0.0816
21402W        W37296   7.903   2.675   4.082 -0.1131  0.0034 -0.0711
21403W        W37297   1.647   6.157   4.318  0.1093  0.1522 -0.2197
21404W        W37298  10.040   0.012  12.168 -0.0751  0.0649  0.0184
21405W        W37299  14.073  11.455  16.091 -0.2405  0.5023 -0.0751
21406W        W37300   8.786   0.035  15.017  0.3563 -0.2276  0.1656
21407W        W37301  10.645  15.534  15.010 -0.1286  0.0152 -0.0312
21408W        W37302   0.029  13.302   5.734  0.2925  0.1532  0.1903
21409W        W37303  15.004   2.986   4.923 -0.1832 -0.0504 -0.2240
21410W        W37304  16.267   3.939   1.606 -0.0043 -0.0044 -0.0680
21411W        W37305  16.579  12.821   3.040  0.1746  0.2659 -0.0423
21412W        W37306   2.302   8.451  16.555  0.0028  0.1469 -0.1361
21413W        W37307  13.600   5.761   0.387 -0.0552  0.0333  0.1604
21414W        W37308  15.255  13.347  12.626  0.0214  0.2117 -0.3032
21415W        W37309   5.562  13.525  13.211  0.2148 -0.0547 -0.2364
21416W        W37310  14.022   1.295   1.728  0.0127  0.2483 -0.1956
21417W        W37311  16.774   2.430  12.318 -0.0835  0.0016 -0.1569
21418W        W37312   3.757  15.187   6.936  0.0593  0.0654  0.2528
21419W        W37313   6.292   6.100  12.951 -0.1345  0.0284 -0.0910
21420W        W37314  13.624   3.920  14.405  0.0467  0.2753 -0.1174
21421W        W37315  11.824  16.398   2.457 -0.2279 -0.1211  0.2074
21422W        W37316   8.026   3.113   2.590  0.1728 -0.0845  0.0240
21423W        W37317   8.662   7.043   0.363 -0.3711  0.3374  0.1726
21424W        W37318  15.600  12.281  13.320  0.0577 -0.2218  0.1304
21425W        W37319  14.055  14.367  16.161 -0.1484 -0.3737  0.0004
21426W        W37320  11.109  15.284  15.934  0.2173 -0.0062  0.2931
21427W        W37321   1.141   8.387  13.826 -0.0309  0.0971  0.2017
21428W        W37322   2.586   6.975   2.771  0.0224  0.0760 -0.0179
21429W        W37323   3.641   9.855  16.635  0.0676 -0.0404  0.0307
21430W        W37324   0.978   4.769  14.177 -0.1222  0.0113  0.1349
21431W        W37325  12.247   6.210  15.121 -0.1691  0.2144  0.0865
21432W        W37326   8.303  10.698  12.787 -0.2260 -0.1117 -0.0388
21433W        W37327  17.022   7.841  16.217  0.3348  0.1887  0.0095
21434W        W37328   5.426  13.483  14.164  0.2290 -0.1156  0.1499
21435W        W37329   0.999   9.484  14.797 -0.0765  0.3651  0.1888
21436W        W37330   0.409   5.472  14.403 -0.0178 -0.0237  0.1103
21437W        W37331   3.997   2.285   4.054 -0.0905 -0.2036 -0.0973
21438W        W37332   4.490   5.560  12.211 -0.3687  0.2752  0.2931
21439W        W37333  11.457   6.539   0.269 -0.0393 -0.0540 -0.2135
21440W        W37334  16.502   7.512   1.735 -0.1287  0.1322  0.2159
21441W        W37335   5.923   5.119   1.154  0.0330  0.0912 -0.0967
21442W        W37336  13.530  16.529   5.098 -0.0177  0.0105 -0.1785
21443W        W37337  11.075  14.224   4.308  0.2467  0.0343  0.2871
21444W        W37338  11.396  15.839   5.000  0.0592  0.3481  0.0060
21445W        W37339   5.832  13.110   5.167  0.0814  0.0112 -0.0245
21446W        W37340   1.530  11.795   1.667 -0.0802  0.4006 -0.0136
21447W        W37341   4.156  17.072  15.901  0.0455  0.0024  0.0806
21448W        W37342  17.394   1.347  13.516  0.0289 -0.1188  0.1192
21449W        W37343  14.548   7.280   3.934 -0.2572  0.0683 -0.1276
21450W        W37344   4.625  16.710  15.870 -0.1103  0.1068 -0.1148
21451W        W37345   5.061   5.816  15.949 -0.2179 -0.0184 -0.1498
21452W        W37346  10.468   4.822   0.674 -0.0867 -0.0360  0.0060
21453W        W37347   2.732  16.148  13.950  0.2557  0.0266  0.0835
21454W        W37348   3.292  13.291  15.931  0.0975  0.1010 -0.0227
21455W        W37349   4.640  12.321  13.655  0.1717  0.1830 -0.1335
21456W        W37350   2.915  10.201  16.431 -0.0303  0.0482  0.1843
21457W        W37351  14.942  15.248   2.468 -0.0485  0.1915 -0.1031
21458W        W37352   5.221   0.726   2.549 -0.1021  0.1914  0.0464
21459W        W37353  15.162   5.663   1.004  0.4046  0.2944  0.0404
21460W        W37354  11.883  16.585   3.049 -0.1464 -0.1134  0.0495
21461W        W37355   9.205   5.741   5.581 -0.1121  0.0983 -0.0892
21462W        W37356  12.792  14.742  16.753 -0.2874  0.1903 -0.1755
21463W        W37357   2.780  11.754  12.926 -0.2253 -0.5258  0.2940
21464W        W37358   8.765   4.826  15.889 -0.3273  0.0216  0.0322
21465W        W37359  12.318   6.310  14.637 -0.0628  0.0697  0.1984
21466W        W37360  11.826   9.859  12.049 -0.0518 -0.1259  0.0959
21467W        W37361   3.121   7.765  13.262 -0.3216 -0.0522 -0.0109
21468W        W37362  12.161  13.973  14.777  0.2146  0.2015 -0.0525
21469W        W37363   7.645  11.327  13.579 -0.0394 -0.0225 -0.1524
21470W        W37364  14.370   6.395  14.405  0.1644 -0.1535  0.3160
21471W        W37365   8.729   4.375  12.082  0.1435  0.2262  0.2000
21472W        W37366  13.979  14.021  16.693 -0.0032  0.4664  0.1656
21473W        W37367   2.503  14.854  12.846 -0.2009 -0.1766 -0.0713
21474W        W37368   2.385   4.796   0.269  0.2264 -0.1005  0.3058
21475W        W37369   9.793   2.695  13.949 -0.0067  0.1618 -0.1170
21476W        W37370  10.146  12.899   4.542 -0.0088 -0.2175  0.0516
21477W        W37371  14.006  12.012  12.833 -0.0501 -0.0625  0.1393
21478W        W37372  10.496   0.836  11.818  0.2234  0.3426  0.0542
21479W        W37373  17.439  17.231   0.459 -0.1700 -0.0336  0.2760
21480W        W37374   6.829   3.431   2.140  0.0593 -0.3298  0.0709
21481W        W37375   6.546   5.257   1.848 -0.1107 -0.1332  0.0749
21482W        W37376   9.473  15.521  17.097 -0.1482 -0.1276 -0.2348
21483W        W37377   7.441   4.748   5.908  0.1381 -0.2414  0.0865
21484W        W37378  16.696   0.353  14.106  0.1947 -0.2067  0.1861
21485W        W37379   0.501  13.757  12.473 -0.1095  0.1907 -0.0145
21486W        W37380   1.480   6.316   0.428  0.0119 -0.0668 -0.0978
21487W        W37381  13.840   7.468  17.155  0.0482  0.0005  0.0603
21488W        W37382   7.496   7.244  12.700  0.1324  0.3200  0.1859
21489W        W37383  13.605  13.730  13.107  0.1607  0.1893  0.1276
21490W        W37384   4.042   0.162   1.557  0.0590 -0.0049  0.1194
21491W        W37385   4.150  13.203   6.021  0.0010 -0.0923  0.0301
21492W        W37386  14.957   4.570  16.197 -0.1176  0.1992 -0.2507
21493W        W37387   8.946   6.005  13.714  0.3163  0.1075 -0.3560
21494W        W37388  16.567   1.453   1.568 -0.0298  0.0748  0.2792
21495W        W37389  15.609   1.465   5.619 -0.0871  0.0669  0.0424
21496W        W37390   5.974  13.176   4.237 -0.2485 -0.1818 -0.2381
21497W        W37391   1.226   2.680   1.645 -0.0674 -0.2788 -0.1738
21498W        W37392   2.771  12.252   2.749 -0.1494  0.1031  0.0095
21499W        W37393  12.534   0.740  16.006 -0.0843 -0.1519  0.0029
21500W        W37394   9.303   3.077   0.226 -0.0943  0.0066 -0.0715
21501W        W37395  11.271   0.614  11.978 -0.1677  0.0848  0.1283
21502W        W37396  14.783   5.828   2.970  0.2326 -0.1280  0.0431
21503W        W37397  13.218   2.978   4.315 -0.0011  0.1011  0.1215
21504W        W37398   8.193  12.273  14.632  0.1243 -0.0930  0.1781
21505W        W37399   6.813  14.021   2.627  0.3278  0.1023 -0.2212
21506W        W37400   3.059  12.315  16.969 -0.1471 -0.3374  0.0988
21507W        W37401   7.763   4.247  14.319  0.0786  0.2633 -0.2989
21508W        W37402   7.628   9.127   6.004  0.0618  0.0593 -0.2785
21509W        W37403  16.252  16.024   4.714  0.1756  0.0178  0.3741
21510W        W37404   1.962  12.789   4.281 -0.4374  0.1810  0.1072
21511W        W37405  13.046  14.267   2.651  0.0047  0.0782  0.0086
21512W        W37406   4.091  15.920  16.310 -0.2468 -0.1160 -0.0682
21513W        W37407   4.641  10.073   4.424  0.0702 -0.0287  0.1424
21514W        W37408  10.647   5.689  16.562 -0.2518 -0.1853 -0.2424
21515W        W37409   3.433  10.500   4.200  0.0798  0.1097 -0.1869
21516W        W37410  13.147  12.172  15.083  0.0421 -0.1534 -0.1185
21517W        W37411   8.134   0.639   0.305 -0.2097 -0.0632 -0.0179
21518W        W37412   2.286   8.018   0.896 -0.1461  0.0097 -0.1953
21519W        W37413   7.103   4.233  16.485 -0.0683 -0.2196 -0.1820
21520W        W37414  16.481   3.909  16.660 -0.0227  0.0793 -0.3420
21521W        W37415  16.302   5.073   0.574 -0.1785 -0.1986 -0.2529
21522W        W37416  10.139   2.048   1.108  0.0028 -0.0146  0.0996
21523W        W37417   7.330   1.978  13.278 -0.2460 -0.0584 -0.0639
21524W        W37418   1.221   8.093  15.632  0.4394  0.0441 -0.0206
21525W        W37419   9.537  10.253  15.269 -0.1341  0.0818 -0.1210
21526W        W37420   8.961   0.447   3.948 -0.1451 -0.0370 -0.0782
21527W        W37421   5.354   1.693   0.234  0.1408  0.0671  0.0148
21528W        W37422   2.528   8.756  12.713  0.1567 -0.1165  0.0200
21529W        W37423   9.264  11.426   5.205 -0.1340  0.1094  0.0835
21530W        W37424   4.812   7.771   5.951  0.0134  0.0719 -0.0218
21531W        W37425   8.594   1.610   2.471  0.0384 -0.1953  0.0027
21532W        W37426   9.432   9.666  13.153 -0.4415  0.0579  0.3557
21533W        W37427   7.323  11.908  16.554 -0.1495  0.1267  0.1887
21534W        W37428   0.005  14.256  13.052 -0.0901 -0.1729 -0.1496
21535W        W37429   8.834   1.774   0.660 -0.3888 -0.0181 -0.2566
21536W        W37430   2.749  14.940  12.073  0.0624 -0.1203 -0.1699
21537W        W37431   5.754   1.889   5.394  0.1527 -0.0369  0.3199
21538W        W37432  12.081  15.619   4.365 -0.0589 -0.0097 -0.0548
21539W        W37433   1.901   1.127   2.032  0.1106  0.0000  0.0918
21540W        W37434   7.762   7.389   1.269  0.1003 -0.1227 -0.1512
21541W        W37435  12.287   8.416  14.679  0.0551 -0.3541 -0.1695
21542W        W37436   5.575  11.776   3.879  0.0649  0.2093 -0.0181
21543W        W37437  15.166   0.203  12.975  0.2484  0.0562  0.0067
21544W        W37438  10.236   3.605   3.282  0.1814  0.0392  0.4085
21545W        W37439  12.756   4.961   3.636  0.0236 -0.1347  0.1891
21546W        W37440   0.110  12.524   0.803  0.0575  0.2394 -0.0008
21547W        W37441   7.696   0.565   2.709 -0.1952 -0.0794 -0.0739
21548W        W37442   3.292  12.995   4.299 -0.1222  0.0593  0.1376
21549W        W37443   1.631   0.080  13.946  0.1489  0.2854  0.0623
21550W        W37444   4.323  15.505   3.949  0.2304  0.0920 -0.0863
21551W        W37445   6.000  11.189   0.944 -0.0275  0.2084 -0.3226
21552W        W37446   4.893   2.253  16.513 -0.2273 -0.1464  0.2462
21553W        W37447   3.152  13.352  13.070 -0.0134 -0.0308  0.0393
21554W        W37448   3.033   9.762  12.846  0.0316  0.0607 -0.0559
21555W        W37449  14.686   9.360   5.044  0.2890  0.1652 -0.0945
21556W        W37450  17.158  10.624  17.095 -0.0078 -0.2305 -0.1606
21557W        W37451  16.323   4.586  11.973 -0.0998  0.0062  0.2616
21558W        W37452   9.033  10.313  13.611 -0.1126  0.0755 -0.0914
21559W        W37453   7.579  15.736   5.561  0.2141  0.0257 -0.0519
21560W        W37454   0.621  16.135   5.022 -0.1272  0.2769 -0.3554
21561W        W37455   9.530   0.495   2.245 -0.1164 -0.2226  0.2426
21562W        W37456  13.866   7.914   3.509 -0.0124 -0.0770  0.1248
21563W        W37457  11.160  13.691  15.139  0.1524 -0.1434  0.1115
21564W        W37458  12.415   0.222   5.686 -0.1173  0.0992  0.5104
21565W        W37459   3.054   5.848  13.116 -0.0208 -0.0062  0.3978
21566W        W37460   2.521  17.588  16.417 -0.2572 -0.3993 -0.1316
21567W        W37461   9.392  10.014   3.832 -0.2316 -0.1352  0.0475
21568W        W37462   6.885   5.653   5.766  0.0825 -0.0637 -0.0504
21569W        W37463  14.770   5.182   2.454 -0.0040  0.1595 -0.0135
21570W        W37464  12.423   1.735   2.857  0.2691  0.1063  0.3715
21571W        W37465  15.793  16.878   0.302  0.1213  0.2753  0.2390
21572W        W37466  12.498   2.495  14.301  0.1842  0.0747 -0.1816
21573W        W37467   0.133  10.349   0.357  0.1228  0.0315 -0.0181
21574W        W37468  11.405  17.335   6.249 -0.0973 -0.1507  0.0970
21575W        W37469  13.432  12.177  15.810 -0.0367 -0.0464 -0.0207
21576W        W37470   9.898   2.357   1.588  0.1120 -0.3967 -0.1073
21577W        W37471   7.028  13.209   0.880  0.2387 -0.1306  0.0793
21578W        W37472  15.518  12.806  12.450 -0.0458  0.1078  0.0381
21579W        W37473   7.750  15.526   3.150  0.0960 -0.1721  0.0037
21580W        W37474  10.953  17.155  15.876 -0.1910 -0.2778 -0.0177
21581W        W37475   7.995   3.128  13.304  0.0696 -0.1298 -0.1616
21582W        W37476   4.566   8.114   0.726 -0.0672  0.3431 -0.1052
21583W        W37477   6.610  14.943  14.522  0.1524 -0.1872 -0.1070
21584W        W37478  11.098   5.137   0.073  0.1055  0.0028 -0.2678
21585W        W37479  10.390   5.599   1.277  0.0525  0.1461 -0.0254
21586W        W37480  10.425   0.580   5.527  0.0530  0.0239  0.0392
21587W        W37481  11.436   9.240   3.241  0.1047 -0.0618  0.1422
21588W        W37482   3.134   0.220  15.137 -0.0204  0.1399  0.1564
21589W        W37483   2.414  16.383  11.931  0.3360 -0.0290 -0.3429
21590W        W37484   7.227   6.582  13.850 -0.0641 -0.0605 -0.0883
21591W        W37485   3.276  14.029  15.457  0.0513 -0.2482 -0.0252
21592W        W37486  16.505  15.451  11.866 -0.1025 -0.1273  0.1045
21593W        W37487  12.339   5.146   5.087 -0.0837 -0.1065 -0.0356
21594W        W37488   7.293   2.745  16.329 -0.0192  0.1102 -0.0060
21595W        W37489   6.745   2.948  13.056  0.1869 -0.1961  0.2367
21596W        W37490   7.600   8.054  13.876 -0.0002  0.0186  0.0033
21597W        W37491   4.837  16.571  12.201  0.5486  0.0521 -0.0511
21598W        W37492   2.352  11.779  13.271 -0.0270 -0.0263 -0.0910
21599W        W37493   5.073  16.389  12.644  0.1189  0.3696  0.1631
21600W        W37494  13.554   6.111   0.016 -0.0705  0.0809  0.0394
21601W        W37495   9.553   7.441  12.658  0.1975  0.1945 -0.0382
21602W        W37496   7.958   2.444   4.598  0.2431 -0.2735 -0.2176
21603W        W37497  17.148  16.810   2.710 -0.0571  0.1384 -0.0315
21604W        W37498  14.230  11.640   0.431 -0.0641  0.1967  0.0085
21605W        W37499  11.732  15.953  12.439  0.2228  0.1552 -0.2056
21606W        W37500   8.937  13.725   1.176 -0.2381 -0.0113  0.1383
21607W        W37501  10.518   8.242  16.171 -0.0578  0.1674 -0.0442
21608W        W37502   0.658  11.598  13.562  0.1076 -0.0248 -0.1201
21609W        W37503   2.896   4.148   5.546 -0.0784 -0.1982 -0.0634
21610W        W37504  15.856   1.066  12.778  0.2321 -0.0507  0.0742
21611W        W37505  10.477   7.497   0.122  0.1983  0.1237  0.0222
21612W        W37506   1.130   9.871   1.440 -0.0668 -0.0290  0.2101
21613W        W37507   8.136   3.496  14.114  0.3090 -0.0908 -0.1544
21614W        W37508   2.932   9.938   1.438  0.1030  0.1686  0.3365
21615W        W37509  13.342   4.236   5.951  0.0336  0.1332  0.2545
21616W        W37510  11.951  11.395  16.977 -0.1643  0.1456  0.2000
21617W        W37511   0.120   4.552   2.619  0.1596 -0.3675 -0.0083
21618W        W37512   0.195   4.151  15.151  0.0205 -0.1605 -0.2439
21619W        W37513   9.338  17.629   4.196 -0.1253 -0.2711 -0.0514
21620W        W37514   8.097   0.155  14.124 -0.2026  0.3535  0.2234
21621W        W37515  10.673  10.926  16.038 -0.2163 -0.0261  0.1871
21622W        W37516  11.510  14.773   5.002  0.0413 -0.2349  0.0265
21623W        W37517  16.291   9.451   2.902  0.2597  0.2114 -0.2506
21624W        W37518   4.604  14.237   2.264 -0.1068 -0.3104  0.0233
21625W        W37519  13.878   2.812  14.333 -0.3722 -0.0552 -0.0930
21626W        W37520  11.299  14.967  12.652 -0.0054 -0.2648  0.3817
21627W        W37521  11.548  14.206   4.888 -0.3025 -0.1307  0.2333
21628W        W37522   2.466  13.907   6.405 -0.2504 -0.2047  0.3959
21629W        W37523  14.847   6.802   4.285 -0.0704  0.2868 -0.0594
21630W        W37524   7.255   7.681  12.879 -0.1223  0.2115  0.0670
21631W        W37525   7.686   0.801   0.004  0.0616 -0.1498 -0.1614
21632W        W37526   4.053   8.544   6.100 -0.0806  0.0452  0.2292
21633W        W37527  14.715  16.053   0.529 -0.0694  0.0650 -0.0690
21634W        W37528  11.252   5.679   2.624  0.1187 -0.0377 -0.0599
21635W        W37529   4.792  12.332   5.943  0.3542  0.2358  0.0999
21636W        W37530   5.973   4.140  14.237  0.0493  0.4066  0.2065
21637W        W37531   4.257   5.605  12.753 -0.0703 -0.0819 -0.1719
21638W        W37532   2.974   2.320   1.701 -0.0264  0.0279  0.3603
21639W        W37533   8.969  14.037  16.642 -0.0106  0.3296 -0.3970
21640W        W37534   2.329  12.643  14.839 -0.4189  0.0270 -0.1488
21641W        W37535  10.569  15.161  12.789  0.1616 -0.0491 -0.1166
21642W        W37536   3.441   4.466   1.040  0.0155 -0.3425  0.3494
21643W        W37537   4.862  14.576  16.097  0.0680  0.3559 -0.1740
21644W        W37538   8.396   4.716  14.985  0.0490 -0.0805  0.0478
21645W        W37539  12.456   9.434   1.589  0.2675 -0.2031 -0.2940
21646W        W37540  14.045   7.899   4.051  0.1655 -0.0540  0.0847
21647W        W37541   9.028  11.677  14.846 -0.0368  0.2009 -0.3512
21648W        W37542  14.320  16.202  11.682 -0.2363  0.3615  0.0091
21649W        W37543  12.734  12.425   4.231 -0.1400  0.2941 -0.3200
21650W        W37544   8.722   2.809  16.326 -0.0717  0.0183  0.0091
21651W        W37545   6.617   3.421  15.128  0.2762 -0.2230 -0.1963
21652W        W37546   0.604  15.666  15.917 -0.0217 -0.0347  0.1270
21653W        W37547   5.143   2.911  16.929 -0.2036 -0.2158 -0.3110
21654W        W37548  11.565   0.447  16.881  0.3725 -0.0312 -0.1187
21655W        W37549  12.095  14.260   2.873  0.1113 -0.1691 -0.0532
21656W        W37550  11.728   5.588  14.334  0.0221  0.2977  0.2368
21657W        W37551   1.703  13.033   3.857 -0.0097  0.2306 -0.1169
21658W        W37552   9.045   2.071  13.219  0.0243  0.0262 -0.5655
21659W        W37553  13.993  17.382  15.931 -0.0385 -0.0465  0.1240
21660W        W37554  14.448   5.893   4.841 -0.0573 -0.1080 -0.0058
21661W        W37555   0.095   1.587   3.284  0.2290 -0.1639 -0.0649
21662W        W37556   3.348   7.054   4.928 -0.0636  0.2472  0.1153
21663W        W37557   4.007   7.559  15.984 -0.1702  0.0897 -0.0524
21664W        W37558  14.884   4.129   5.271  0.0794 -0.0660  0.1024
21665W        W37559   2.931  11.693   2.996  0.1611 -0.2581  0.1162
21666W        W37560  11.339  12.990  13.463 -0.0917 -0.1970 -0.3892
21667W        W37561   2.683  13.056   3.492 -0.0159  0.1832  0.1533
21668W        W37562   6.843  15.958  13.894 -0.4319 -0.1423  0.2388
21669W        W37563  11.033  14.369   3.437 -0.1096  0.1880 -0.0835
21670W        W37564   9.656   5.928   0.644 -0.0951  0.4116  0.1744
21671W        W37565  11.874  15.196  11.855  0.0111 -0.1211  0.1654
21672W        W37566   6.469  15.416   5.991 -0.2826 -0.0749  0.2458
21673W        W37567  14.164   8.973   3.815 -0.1160 -0.1102  0.0822
21674W        W37568   2.567   0.815   5.891  0.1101 -0.1097  0.2578
21675W        W37569   8.136   4.800   1.971  0.0349  0.1040 -0.1029
21676W        W37570   2.313   1.025   4.437 -0.2012 -0.0953 -0.3069
21677W        W37571  14.100   7.888  12.320 -0.1881  0.0459 -0.1064
21678W        W37572   2.792   7.862   3.319 -0.0802 -0.0755  0.1076
21679W        W37573   4.636   7.370   2.287 -0.0677 -0.2375  0.0977
21680W        W37574  10.284  17.582   0.594  0.0194  0.1307 -0.2590
21681W        W37575   0.962  16.461   2.137 -0.1243 -0.1423  0.1042
21682W        W37576  16.256   5.429  12.021 -0.0097 -0.2616 -0.0595
21683W        W37577   9.549   2.257  13.881 -0.2798  0.1327 -0.1284
21684W        W37578   5.845   1.557   1.961  0.0814 -0.1227 -0.1697
21685W        W37579  11.526   7.323  11.480 -0.3111  0.1521  0.3044
21686W        W37580   7.829  17.390   1.429  0.0567 -0.1005  0.0550
21687W        W37581   1.475  12.329  14.987 -0.1251 -0.0173 -0.1495
21688W        W37582   7.401   8.959   0.052  0.1214 -0.1051 -0.0372
21689W        W37583  17.082  15.585  16.240 -0.4703 -0.1738 -0.0132
21690W        W37584  16.383   9.629  12.455 -0.4532  0.1313  0.0436
21691W        W37585   4.887  10.161  12.226  0.1978 -0.1187 -0.1617
21692W        W37586  13.434   2.522   2.753 -0.1586 -0.1418 -0.0937
21693W        W37587   5.341  12.449   2.045 -0.1762  0.0668 -0.0240
21694W        W37588  13.512   9.496   1.784 -0.1002 -0.0098  0.1651
21695W        W37589  11.012   5.091   4.915  0.1078 -0.3489 -0.1641
21696W        W37590  12.821  14.087  13.143  0.1728 -0.4580  0.0144
21697W        W37591  11.311  15.404   1.726 -0.1762 -0.0402  0.0906
21698W        W37592  10.337  13.711   6.121  0.1109  0.2037 -0.1184
21699W        W37593   1.540   8.835   5.160  0.1189 -0.2739 -0.3590
21700W        W37594  17.242  13.473  16.977  0.1892 -0.2033 -0.0749
21701W        W37595   4.251   8.846  11.932 -0.0784 -0.0834  0.3285
21702W        W37596  11.835  10.175   4.240  0.1231 -0.0723 -0.0366
21703W        W37597   2.659   0.814  13.174 -0.3584  0.2390  0.1404
21704W        W37598  11.826   6.004   5.303 -0.2964  0.1008 -0.0743
21705W        W37599  17.386   6.909   4.898 -0.2010 -0.0394 -0.1862
21706W        W37600   0.694   9.549  16.653  0.0693  0.0207  0.3058
21707W        W37601   0.152   1.737  15.260  0.2133 -0.2257 -0.2982
21708W        W37602  13.697  12.884   5.892 -0.0373  0.0172 -0.0155
21709W        W37603  15.650   8.903   3.027 -0.0778  0.0507  0.0112
21710W        W37604  15.126   7.933   4.800 -0.1292  0.0347  0.0403
21711W        W37605  13.893  13.692  12.688  0.0149 -0.1414  0.0435
21712W        W37606  12.479  17.150   4.564  0.1844 -0.0014 -0.1683
21713W        W37607  11.308  12.345  16.125 -0.1230 -0.2232 -0.0606
21714W        W37608   3.535   6.657  13.059 -0.0421  0.0053 -0.3263
21715W        W37609   2.446   5.640  12.172 -0.0869 -0.0334 -0.1699
21716W        W37610  16.315   0.413   0.245 -0.3023 -0.1092 -0.1112
21717W        W37611  15.767  15.795   2.581  0.3408 -0.1352 -0.0978
21718W        W37612  14.257  13.441  13.473 -0.0221  0.1996 -0.2041
21719W        W37613   4.175  17.138   2.545 -0.0930 -0.1944 -0.0928
21720W        W37614   2.860   7.692  11.780 -0.0217  0.0548  0.1922
21721W        W37615  16.378   8.395  14.039  0.0503  0.0032 -0.1927
21722W        W37616  16.657   9.356   2.119 -0.0751 -0.3089  0.1032
21723W        W37617  16.351  13.689  15.391 -0.0597 -0.0222  0.0167
21724W        W37618  15.192  12.465  13.650 -0.2095 -0.0264  0.0437
21725W        W37619  16.521   6.777  16.117 -0.0456 -0.2194  0.1506
21726W        W37620  10.747   8.660   2.535  0.0222 -0.0481  0.0334
21727W        W37621   8.458   3.611   1.210  0.4346 -0.0369  0.1772
21728W        W37622   0.915  15.165  13.588  0.1329  0.2574  0.0428
21729W        W37623   6.556   6.391   0.325  0.0679 -0.1335 -0.0354
21730W        W37624   2.118  14.190  15.502  0.1056 -0.1688  0.2334
21731W        W37625   8.139  12.572   2.578  0.0116 -0.1654 -0.0456
21732W        W37626  13.308  14.289   0.572  0.0441  0.0434 -0.0228
21733W        W37627   0.834   0.168   2.068  0.0518 -0.3335  0.5173
21734W        W37628  16.322  16.757  16.877  0.3264 -0.2867  0.0912
21735W        W37629   4.131   2.404   4.598 -0.0095  0.1582 -0.0416
21736W        W37630  10.473   7.946   0.966  0.1664  0.1699 -0.0129
21737W        W37631  16.462  12.467  16.897  0.3487  0.1091  0.2064
21738W        W37632  11.470  15.495  15.479 -0.3060  0.1406 -0.2109
21739W        W37633  11.794  16.979   4.538  0.1607 -0.0608  0.0483
21740W        W37634  16.871   8.629  16.413  0.2729  0.1706 -0.0099
21741W        W37635  13.626  14.245  13.994 -0.0797 -0.0322  0.1633
21742W        W37636   2.982   5.373  16.726  0.0687 -0.2052  0.0496
21743W        W37637  14.388   9.766   5.104 -0.0931 -0.0769 -0.0826
21744W        W37638   8.563  10.344  15.123 -0.0473  0.0749 -0.0009
21745W        W37639  16.481  17.379   2.252  0.1325  0.0881  0.1004
21746W        W37640   0.857   5.520   3.513 -0.0319  0.1566  0.1142
21747W        W37641   1.807   3.147  16.654 -0.0818 -0.1472 -0.0715
21748W        W37642  15.955  10.820   0.719  0.0807 -0.1388  0.1439
21749W        W37643   4.189   9.542  14.960  0.1591 -0.2293 -0.1468
21750W        W37644   0.516   2.689  12.958 -0.1252  0.0636  0.2722
21751W        W37645   1.919   9.709   6.671 -0.2178 -0.2263 -0.1209
21752W        W37646  13.490   6.478   2.722 -0.1326 -0.4119 -0.4435
21753W        W37647   0.294   5.364  16.947  0.1473 -0.2102 -0.1449
21754W        W37648   7.233   1.830   4.922  0.1612 -0.1854 -0.4727
21755W        W37649   8.407   3.949   4.498 -0.1045 -0.1353 -0.1470
21756W        W37650   9.167  10.488   3.627 -0.2128  0.0959 -0.2199
21757W        W37651  10.980   5.546   4.596  0.0890 -0.2284  0.1431
21758W        W37652   7.695   0.497   0.436  0.3318 -0.1361 -0.1646
21759W        W37653   1.371  13.898  14.008  0.0759  0.0090  0.2096
21760W        W37654  17.420  11.779  13.062  0.1732 -0.3591  0.3834
21761W        W37655  13.232   7.428   4.394 -0.1463 -0.0770  0.0456
21762W        W37656  16.499  10.497  15.733  0.0143  0.0471  0.0321
21763W        W37657   8.981   5.985   2.091  0.1910  0.2061 -0.2946
21764W        W37658  10.749  13.445  16.603 -0.1229 -0.0326  0.5156
21765W        W37659  16.827   5.772  13.374 -0.0522  0.2202  0.0906
21766W        W37660  16.623  10.043   4.413  0.0125  0.2750  0.0365
21767W        W37661  16.071   5.264   4.883 -0.0185  0.3960  0.1602
21768W        W37662  13.477  15.972  16.014  0.0922 -0.0293  0.1356
21769W        W37663   1.464   3.915  12.959  0.0695 -0.5014  0.0769
21770W        W37664  10.890  13.079   3.075 -0.1492 -0.0036  0.2805
21771W        W37665  16.147   5.374   2.294 -0.2833  0.0915  0.1786
21772W        W37666  17.213  10.646   0.849  0.0142  0.0587  0.0780
21773W        W37667   0.994  16.471  12.611  0.1372 -0.0759 -0.1817
21774W        W37668  11.153  11.087  12.560  0.0234  0.1623 -0.2942
21775W        W37669   0.420  13.329   2.552  0.0823 -0.0808 -0.0926
21776W        W37670   5.222   1.122  15.711 -0.0005  0.0488 -0.3256
21777W        W37671  15.779  17.004   3.192 -0.0052 -0.1467  0.0811
21778W        W37672   3.865   3.118  15.985  0.1131  0.1079  0.0397
21779W        W37673  10.889   4.584  11.508  0.3383  0.1972 -0.3039
21780W        W37674   8.759   6.849   3.547  0.1626 -0.3247 -0.1390
21781W        W37675   3.680   5.930   5.194 -0.2191  0.0068  0.1323
21782W        W37676   0.903  15.333  14.109 -0.2348  0.2693 -0.1265
21783W        W37677   0.823  10.149   5.098  0.1499 -0.0479  0.0366
21784W        W37678  11.907  15.837   4.808  0.0321  0.2335 -0.0014
21785W        W37679  17.294  11.673   1.024  0.4818  0.1696  0.0381
21786W        W37680   4.543   9.841  12.467 -0.0348 -0.0538 -0.1608
21787W        W37681   6.374   1.582   2.146  0.0221 -0.0599  0.1102
21788W        W37682  17.402   0.955   1.725 -0.1366  0.1290  0.0419
21789W        W37683  15.993  11.899  13.089  0.1225  0.0608  0.1515
21790W        W37684   8.340   0.571   3.226  0.0820 -0.1146 -0.2373
21791W        W37685   2.746   8.233  12.740 -0.4338  0.2512 -0.2982
21792W        W37686   8.580  10.045  12.625  0.4241 -0.1897  0.0013
21793W        W37687   5.448   1.420  14.143  0.2546  0.1835 -0.1392
21794W        W37688   1.108  12.499   1.003 -0.1192  0.1271 -0.1765
21795W        W37689   8.355  13.616  12.098  0.2776 -0.4399  0.1778
21796W        W37690  15.930   9.010   2.188 -0.1869  0.0634 -0.3091
21797W        W37691  11.033  15.918  13.709  0.0837  0.4562  0.2001
21798W        W37692  15.494   1.530   5.105  0.0593 -0.1861 -0.0859
21799W        W37693  13.631  12.451   5.097  0.0541 -0.1788  0.0153
21800W        W37694  12.229   9.940  10.827 -0.4804  0.2374 -0.0575
21801W        W37695   2.049   5.304  16.807 -0.1924  0.0726  0.1318
21802W        W37696   4.405   7.094   4.057  0.3217  0.1528 -0.1641
21803W        W37697   8.576   3.364  16.987  0.1627  0.1771  0.0796
21804W        W37698  13.155  15.783  12.462  0.3122 -0.0574  0.2634
21805W        W37699  11.280   9.199  16.582 -0.0855  0.1217 -0.0836
21806W        W37700  17.018  13.886   1.559 -0.0018 -0.1579  0.3289
21807W        W37701  11.588   1.856  13.134 -0.1532  0.1470 -0.0288
21808W        W37702   9.872   4.789   1.435  0.1928 -0.1021 -0.2433
21809W        W37703  15.077  13.939  15.538  0.1332 -0.1252 -0.0665
21810W        W37704   3.686   6.848  16.198  0.1332  0.1871 -0.1231
21811W        W37705   0.521   0.862   3.969 -0.1897 -0.2966  0.0032
21812W        W37706   4.240   9.075   4.849  0.0771  0.4544 -0.2597
21813W        W37707  12.056   7.143  12.641 -0.0760 -0.1327  0.2606
21814W        W37708  10.149  14.135  13.506  0.2384 -0.1105  0.0933
21815W        W37709  15.218  16.831   0.888  0.0336  0.1442 -0.0176
21816W        W37710  11.319   3.931   4.114  0.0745  0.2120 -0.2912
21817W        W37711  14.721  13.394  13.794 -0.1339  0.2360 -0.1214
21818W        W37712   5.003  11.443  16.094 -0.0408 -0.1369 -0.0334
21819W        W37713   6.903  10.194  17.201  0.0590 -0.2551  0.0821
21820W        W37714   6.930   4.980   4.605 -0.1653 -0.2881  0.1198
21821W        W37715  13.701  14.631   4.301  0.3453  0.1800  0.1872
21822W        W37716  15.438  15.842  16.093 -0.1825 -0.1542  0.0098
21823W        W37717  16.510   4.829   1.866  0.1264  0.0182 -0.0114
21824W        W37718  14.789   8.902   3.660  0.0600 -0.1191 -0.0284
21825W        W37719   1.030   8.645  14.259  0.0495  0.1298 -0.2307
21826W        W37720  13.652  17.294   5.325  0.1299 -0.0161 -0.0791
21827W        W37721  17.019  16.779   3.749 -0.0342 -0.2046 -0.1328
21828W        W37722  15.474  16.283   4.033  0.0630  0.0914 -0.0106
21829W        W37723   1.411   1.021   5.497  0.2974  0.1707  0.2946
21830W        W37724  13.977  15.951  15.907 -0.0035  0.3361 -0.2083
21831W        W37725  10.841  12.597   4.286  0.1112 -0.0172 -0.0905
21832W        W37726   9.950  17.596   5.483 -0.3216 -0.0667  0.2635
21833W        W37727  17.324  10.460   3.982 -0.0290 -0.0450 -0.1939
21834W        W37728   8.482  17.169  15.317 -0.2168  0.1952 -0.3323
21835W        W37729   1.228  15.872  14.981 -0.1725 -0.2554  0.1504
21836W        W37730   3.390   1.916   4.587  0.2434 -0.2535 -0.2383
21837W        W37731   5.340   2.906   1.365  0.0560  0.3516 -0.0744
21838W        W37732  15.867  13.924   5.625 -0.0304 -0.0134  0.0617
21839W        W37733   5.141   2.341  15.124  0.1995 -0.2107 -0.5065
21840W        W37734   9.997   0.598  12.476 -0.1022  0.2232  0.0372
21841W        W37735  13.581   8.329   3.280 -0.2983 -0.1459 -0.1138
21842W        W37736   1.171   5.870   6.350 -0.0095  0.1416 -0.0139
21843W        W37737   7.017  10.971   1.941 -0.1962  0.0485  0.1524
21844W        W37738   9.211   7.463  13.433  0.1083  0.2266 -0.1457
21845W        W37739   3.415   3.865  14.210  0.0030 -0.0106  0.1160
21846W        W37740   2.585  15.995   0.850 -0.0359 -0.1117 -0.1906
21847W        W37741  17.268  15.860   0.351 -0.0639  0.1062 -0.0151
21848W        W37742   4.659   6.682   3.993 -0.1024 -0.0549  0.0362
21849W        W37743   7.798  10.795   0.504  0.0551 -0.2397  0.5247
21850W        W37744   4.803   8.417   5.743 -0.1719 -0.3125 -0.0752
21851W        W37745  13.308  14.104   3.680  0.2073  0.0548 -0.1621
21852W        W37746  13.248  16.352   2.324  0.2541 -0.0680 -0.0331
21853W        W37747  11.583  13.555   2.476 -0.1062  0.1900  0.0627
21854W        W37748   4.330   7.879  15.655  0.1734 -0.0919  0.1638
21855W        W37749   8.124  13.366  14.835 -0.0899  0.2464 -0.1593
21856W        W37750  10.953   3.509   4.207  0.0695 -0.2179  0.0828
21857W        W37751  11.199  15.236   1.203  0.4682 -0.0153  0.2325
21858W        W37752  16.537   3.337   3.952 -0.0315  0.0081 -0.1168
21859W        W37753   1.488  14.265  13.337  0.1582  0.0124  0.0163
21860W        W37754   8.169  12.737   4.942  0.1036 -0.0508  0.0181
21861W        W37755   8.904   9.722   6.251 -0.0042  0.3299  0.3546
21862W        W37756  13.557   6.069  13.960 -0.3500 -0.0731 -0.1076
21863W        W37757   6.759   8.660   1.306  0.0280 -0.2323 -0.0262
21864W        W37758   5.810   8.515   0.670 -0.0011  0.0794 -0.1248
21865W        W37759   6.214   0.268  15.758 -0.0471  0.1022  0.1653
21866W        W37760   4.900   8.022   1.084  0.3100 -0.0109  0.1069
21867W        W37761   3.844   7.174  13.206  0.1392 -0.0796 -0.0125
21868W        W37762  14.817   8.431  13.808 -0.1869 -0.1336 -0.1464
21869W        W37763  10.265   5.530   0.263 -0.0370 -0.3849  0.0339
21870W        W37764   1.422  15.174  17.210  0.1026  0.0251 -0.0698
21871W        W37765  11.189   7.152  11.197  0.1384  0.2128  0.1497
21872W        W37766  12.083  11.266   5.854  0.1543  0.0670 -0.0103
21873W        W37767   7.208   9.112  12.969  0.0841 -0.1857  0.1083
21874W        W37768   0.177   4.597  14.851 -0.0211 -0.0455  0.0791
21875W        W37769  16.247  14.155  13.394 -0.0657 -0.1142 -0.0146
21876W        W37770  10.423  10.169  12.019  0.0196 -0.1591  0.1563
21877W        W37771   3.094  17.337   4.243 -0.4494 -0.0792 -0.0892
21878W        W37772   9.144  11.760  15.361  0.0079  0.2058 -0.2625
21879W        W37773  10.298   6.476   3.263 -0.1792  0.1790 -0.1380
21880W        W37774   5.879  11.089   4.370  0.0204  0.0193 -0.0337
21881W        W37775  10.437   6.447  13.765  0.2589 -0.0209 -0.1834
21882W        W37776   2.618  13.439  13.084 -0.2101 -0.0065 -0.1470
21883W        W37777  11.527  17.115  12.717 -0.0322  0.1356 -0.0910
21884W        W37778  14.938   9.168   4.087 -0.0338 -0.0639 -0.0281
21885W        W37779  13.404   5.479  12.096  0.0091 -0.0197  0.0059
21886W        W37780   4.954   3.244  14.073  0.2311  0.1003 -0.1125
21887W        W37781   1.618   8.795   2.187 -0.1063  0.2054 -0.0192
21888W        W37782  14.749  11.384   3.118  0.0239  0.0070 -0.1011
21889W        W37783  10.605   4.219   0.868 -0.2024 -0.2708  0.1974
21890W        W37784  11.858   0.818   3.536  0.2290  0.0817 -0.1350
21891W        W37785   9.567  15.220   5.203 -0.0231  0.2030  0.3311
21892W        W37786  10.412  10.219  13.783 -0.2904  0.2193  0.0130
21893W        W37787   6.808  15.366  15.786 -0.0275 -0.0399 -0.2209
21894W        W37788  10.087   0.890   0.231 -0.2440 -0.1124  0.1740
21895W        W37789   9.915   6.369   1.472 -0.0152  0.0589  0.0587
21896W        W37790   6.599  12.181   3.640  0.3326 -0.3394 -0.1085
21897W        W37791  11.575   3.513   4.279  0.0651 -0.4182  0.1534
21898W        W37792   3.411   4.681  11.932  0.1572  0.1852 -0.1089
21899W        W37793   0.861  15.972   0.553 -0.0174  0.1795  0.0427
21900W        W37794   5.726   7.826  11.969  0.1883 -0.2753 -0.1199
21901W        W37795  15.900  11.157  14.038 -0.4610 -0.2157  0.0311
21902W        W37796   3.938  10.402  12.903  0.0639 -0.2074  0.0003
21903W        W37797   3.277   6.918   1.699  0.1983 -0.1815  0.2075
21904W        W37798  16.551  17.631   1.342 -0.0537 -0.2544 -0.1398
21905W        W37799   3.494  15.632   4.525  0.0559  0.0561  0.0149
21906W        W37800   2.604   2.308  12.045 -0.0514 -0.1253 -0.0126
21907W        W37801   7.941   3.126  13.876 -0.0130 -0.0709 -0.0535
21908W        W37802  12.805  13.900   3.350 -0.3979  0.0476 -0.0629
21909W        W37803   0.309   1.042  15.944  0.4520  0.1801 -0.2733
21910W        W37804   4.420   3.120   5.489 -0.0614  0.2083  0.1054
21911W        W37805   7.955   6.408  13.034  0.1461 -0.1111  0.2495
21912W        W37806   9.592  14.931   0.333  0.0379 -0.0489  0.1863
21913W        W37807  15.322   1.896   1.400  0.1641  0.1789 -0.3212
21914W        W37808  17.611  12.483  12.219 -0.2588 -0.0517  0.0495
21915W        W37809   2.343  10.150   4.771 -0.2069 -0.0225 -0.1416
21916W        W37810  11.281   4.568   2.181  0.2458 -0.1817 -0.0103
21917W        W37811   0.087   4.752  13.183 -0.0265 -0.1129  0.1314
21918W        W37812   1.347  10.983  16.727 -0.0480  0.1809 -0.0741
21919W        W37813  15.879  12.504   3.792  0.0874  0.0789  0.0331
21920W        W37814   1.552   9.776   2.041 -0.1284 -0.0599  0.1970
21921W        W37815  13.612   9.867  15.871  0.0345  0.1425  0.2787
21922W        W37816   4.635  13.747   2.404  0.1556 -0.0892  0.1458
21923W        W37817   8.551   8.608  12.539 -0.1381  0.0545 -0.0996
21924W        W37818   1.577   1.562   4.423 -0.0878 -0.2531  0.0866
21925W        W37819  11.145  14.988   3.099 -0.1035 -0.1574  0.2722
21926W        W37820   7.128   7.802   5.259 -0.2293 -0.0254 -0.0582
21927W        W37821   9.260   4.171  12.192  0.0805  0.4059 -0.0111
21928W        W37822  10.805   0.062   3.281 -0.0714 -0.1968  0.1494
21929W        W37823  16.543  13.676  14.825  0.2230 -0.0945 -0.2766
21930W        W37824  11.845  11.557   3.938 -0.0613 -0.4576  0.3222
21931W        W37825  14.550   7.886  13.047  0.1049  0.0708  0.0582
21932W        W37826   5.706   6.589   1.954  0.2832  0.3028 -0.0160
21933W        W37827   5.428  13.587  14.697 -0.1556  0.2133 -0.0732
21934W        W37828  12.691   3.585  17.225  0.0380  0.2209 -0.0581
21935W        W37829   7.083   8.684   0.946  0.0811 -0.0479 -0.1669
21936W        W37830   1.902   1.508   5.608 -0.0655  0.2326 -0.2762
21937W        W37831  10.657  14.726  14.081 -0.1460  0.0006  0.1253
21938W        W37832   1.327   7.453  13.907  0.4586  0.0242 -0.2075
21939W        W37833  15.178  15.683  15.518 -0.2075 -0.0479  0.1944
21940W        W37834   2.819  13.110  13.816  0.0957  0.1250  0.1110
21941W        W37835   7.620   2.235   2.441 -0.0531  0.0428 -0.3794
21942W        W37836  16.553  11.230  13.342  0.0188  0.3661  0.0404
21943W        W37837  12.998   2.860  12.186 -0.0839 -0.2479  0.1633
21944W        W37838   7.301   2.729   0.122  0.2979 -0.0448 -0.1425
21945W        W37839   7.550  14.767   2.990 -0.2826  0.1539 -0.1731
21946W        W37840  13.231  12.934  12.754  0.1647 -0.0529  0.1140
21947W        W37841  12.812  10.586  16.046 -0.0603 -0.0379  0.0041
21948W        W37842   2.732  10.666   3.467  0.0923 -0.0586  0.0979
21949W        W37843  13.888  10.100  12.523 -0.1912 -0.0243  0.0124
21950W        W37844  17.340  12.139   2.892  0.3848  0.1043  0.0364
21951W        W37845   1.582   1.599   0.589  0.2752 -0.1440  0.1375
21952W        W37846  13.959  12.463   5.833  0.2052 -0.1311 -0.0715
21953W        W37847  15.737   3.997  12.000 -0.0896  0.1000  0.2255
21954W        W37848   3.887   5.139   1.564 -0.2446 -0.1143  0.2538
21955W        W37849   9.137   2.945   5.885  0.0881 -0.0391 -0.0764
21956W        W37850   3.654   3.819   3.882 -0.0317  0.0130 -0.0076
21957W        W37851  14.790   4.482  17.060  0.3218  0.0047  0.1321
21958W        W37852   6.516   7.445   2.435 -0.0672  0.0756  0.1209
21959W        W37853  10.334  14.347  14.359  0.0886 -0.0381  0.2171
21960W        W37854   1.695   5.406  15.214 -0.4470  0.0251  0.2837
21961W        W37855  12.244   3.460   1.558 -0.3653  0.2591  0.2169
21962W        W37856  10.819  11.822  16.824  0.0957 -0.2987  0.4041
21963W        W37857   5.049   0.655   0.960  0.0433  0.1303 -0.2003
21964W        W37858  12.403   6.760   3.864  0.3005  0.2688  0.1715
21965W        W37859  17.419  13.175  14.345  0.1609 -0.4931 -0.2121
21966W        W37860   3.881   2.969  13.668  0.0099  0.1493  0.0464
21967W        W37861   6.121  16.195  13.570 -0.0059  0.2596 -0.1174
21968W        W37862  12.772  12.183  17.128  0.1470  0.0128 -0.0255
21969W        W37863  14.180  13.429   4.929 -0.0192 -0.0203 -0.2236
21970W        W37864  15.971   6.425   0.268  0.2538  0.1829  0.1948
21971W        W37865   1.041   7.278  15.032  0.4641  0.1667 -0.0468
21972W        W37866   2.974  15.903  16.920  0.0465  0.0819 -0.1551
21973W        W37867   2.353  16.133   2.094  0.3238 -0.1199 -0.0252
21974W        W37868   8.121   7.442  16.628 -0.2817  0.0121  0.3948
21975W        W37869   9.651   6.524   2.481 -0.1885  0.1368 -0.1163
21976W        W37870  14.791   3.987  12.843  0.2744  0.2504  0.1391
21977W        W37871   1.293  15.585   1.189  0.2926  0.2373 -0.2917
21978W        W37872  12.886  16.654   0.599  0.0235  0.1024  0.2578
21979W        W37873   0.512   1.152   4.915 -0.0327 -0.0918  0.0777
21980W        W37874  11.224  15.415  16.750  0.0366  0.1208 -0.1024
21981W        W37875  11.082   4.318   1.782 -0.3147 -0.0524 -0.0185
21982W        W37876   1.691   6.294  16.851 -0.2167  0.0525  0.1457
21983W        W37877   6.804   8.608  16.049 -0.0756 -0.0405 -0.1432
21984W        W37878   5.863  13.395  14.500 -0.1142 -0.1354  0.0722
21985W        W37879  11.440   8.707   2.367  0.0958 -0.0611 -0.0260
21986W        W37880   4.034   4.188  13.243 -0.1569  0.1083  0.0091
21987W        W37881  14.546   8.074   4.673 -0.3576 -0.2879  0.1687
21988W        W37882  15.256   6.515   2.189  0.1426 -0.0281  0.1539
21989W        W37883   9.817  10.119  14.427  0.1049 -0.0059  0.1727
21990W        W37884   7.492   2.982   1.552  0.2466  0.0232 -0.4706
21991W        W37885   3.564   0.198  13.439  0.0056  0.2117  0.1256
21992W        W37886   7.702   6.294  15.661 -0.1056 -0.1007 -0.1864
21993W        W37887   6.665   6.514   2.331 -0.0534  0.1541  0.1705
21994W        W37888  15.551  16.431   4.831  0.0397  0.1635  0.1072
21995W        W37889   1.432   3.615  14.741 -0.0062  0.2253  0.0157
21996W        W37890   4.310  15.704  14.043  0.1946 -0.2915 -0.1424
21997W        W37891  10.571   1.817  14.173 -0.1396  0.0430  0.3378
21998W        W37892   4.041  11.405  15.070 -0.0025  0.3399  0.0285
21999W        W37893   1.579  17.121   5.622 -0.0764 -0.2223  0.3824
22000W        W37894  10.609  17.272   4.795  0.0440  0.1596 -0.0613
22001W        W37895   5.897   2.592  16.069 -0.2579  0.1685 -0.0433
22002W        W37896  15.646  14.605   0.736  0.1990 -0.0057 -0.0480
22003W        W37897  11.483   6.924   1.585 -0.1228 -0.1325  0.0059
22004W        W37898  11.541   9.112   2.759  0.0137 -0.2492 -0.0942
22005W        W37899   5.845   5.924  17.209  0.0405 -0.1640 -0.0406
22006W        W37900  13.894   3.380  16.786  0.1766 -0.3720  0.2603
22007W        W37901  15.708   5.184   4.004  0.1876  0.0503 -0.2797
22008W        W37902   0.988   2.257   5.288 -0.0267 -0.0487 -0.3208
22009W        W37903   9.220   1.663   3.170 -0.0243 -0.0823  0.0439
22010W        W37904   9.694   7.791   3.478 -0.0080 -0.1773  0.2090
22011W        W37905  14.010   8.636   2.436 -0.2192  0.0874 -0.0522
22012W        W37906   8.767  15.750  16.917  0.1974 -0.0653 -0.0014
22013W        W37907   2.854   3.020   3.553  0.2702 -0.0997  0.1581
22014W        W37908   1.909   1.384  13.604  0.0855 -0.1694 -0.1117
22015W        W37909   6.269  12.306   4.329  0.0997  0.1889 -0.0613
22016W        W37910   9.512  13.606  16.806  0.0405 -0.0218 -0.1240
22017W        W37911  10.204   9.943  16.332  0.2516 -0.2046 -0.0235
22018W        W37912  15.397  11.212   3.819  0.2517  0.0489 -0.0589
22019W        W37913   2.952  16.198  14.506  0.2383  0.1881  0.0783
22020W        W37914   3.327   6.405  15.304 -0.0659  0.0846 -0.0798
22021W        W37915   7.735  17.412  16.631  0.0863 -0.0281 -0.0463
22022W        W37916   9.308  12.996   4.816  0.1928 -0.0036  0.0993
22023W        W37917   8.581   8.786  15.741 -0.2750  0.2082 -0.0705
22024W        W37918   3.286  12.865  12.736  0.0284  0.2824 -0.0554
22025W        W37919  12.980   4.888   1.717 -0.0040 -0.0126  0.0941
22026W        W37920   5.484  15.920  15.907  0.1638  0.0597  0.2031
22027W        W37921  16.697  11.317   2.358 -0.1164  0.0308  0.1623
22028W        W37922   4.729   4.903  16.059 -0.1301 -0.0597  0.3990
22029W        W37923   7.437  17.254   4.260 -0.2724 -0.2158  0.0589
22030W        W37924  14.568   2.053   1.757  0.1238 -0.1000 -0.2983
22031W        W37925   4.912   7.457   5.460 -0.1062  0.0470 -0.1884
22032W        W37926   2.053  13.414  13.228 -0.0062 -0.0392  0.0179
22033W        W37927  12.061  10.742   5.905  0.2382  0.0028 -0.1002
22034W        W37928   5.219   2.356   2.087 -0.0623  0.1328  0.2182
22035W        W37929   9.246   6.644   0.987  0.3328 -0.0392 -0.0458
22036W        W37930  15.467  12.604   5.603 -0.0650 -0.2385 -0.0405
22037W        W37931   7.626   3.952  17.005 -0.1181 -0.0906 -0.0557
22038W        W37932   6.239   7.803  13.553  0.1664  0.3573 -0.0439
22039W        W37933  14.821  11.637  13.885 -0.0095 -0.1038 -0.0039
22040W        W37934   7.527   8.082  17.198 -0.0960  0.0757 -0.0819
22041W        W37935  17.298  17.434  13.074  0.1417 -0.0544 -0.1725
22042W        W37936  15.202   5.137   4.200  0.1247  0.0058 -0.2608
22043W        W37937   6.208  11.581   0.416 -0.1406  0.2105  0.1414
22044W        W37938   4.552   4.143   5.973 -0.0424 -0.0022 -0.0211
22045W        W37939   9.633  16.357   6.237  0.0612 -0.1999  0.0864
22046W        W37940   2.990  10.355  12.798 -0.1275 -0.1173  0.3320
22047W        W37941  11.393  13.791   4.129 -0.1747  0.0644  0.2557
22048W        W37942   3.131  12.063  15.266  0.1383  0.0884  0.0079
22049W        W37943   6.766   6.984  15.992 -0.1305 -0.4042 -0.1614
22050W        W37944   5.236   0.791   3.668 -0.0144  0.1391 -0.1720
22051W        W37945   6.365  16.346   5.776  0.2652  0.1802 -0.0985
22052W        W37946   8.480   8.725   2.013 -0.2134  0.2315 -0.2383
22053W        W37947   4.526   1.251   3.314  0.1240  0.0698 -0.2425
22054W        W37948  16.547   0.828   5.629 -0.2529 -0.2051  0.1988
22055W        W37949  12.485   4.692  12.110  0.2189 -0.2143  0.0432
22056W        W37950   8.440  12.107   1.679 -0.2790 -0.0888 -0.0199
22057W        W37951  10.511  16.973   1.343 -0.1117  0.0663  0.1852
22058W        W37952   0.353  15.754  13.357  0.2092  0.0478  0.0709
22059W        W37953   5.734   6.547  16.533 -0.0221  0.1210 -0.1684
22060W        W37954   7.842  10.013  15.664  0.0425 -0.1553 -0.1012
22061W        W37955  11.369   8.556  14.553 -0.3966 -0.0568  0.3694
22062W        W37956  11.316   6.042  13.042  0.1498  0.2797  0.0381
22063W        W37957   1.580   4.565   3.129 -0.0269  0.1256  0.0572
22064W        W37958   7.565  10.611   1.980  0.0642 -0.1332 -0.2851
22065W        W37959   0.277   3.581   4.381 -0.0661  0.4097  0.1945
22066W        W37960   0.326   6.157   0.832 -0.2257 -0.0458 -0.0942
22067W        W37961  17.130   0.068  15.311  0.0297 -0.3454 -0.0943
22068W        W37962  16.098   8.943   1.733 -0.0612  0.1768 -0.0647
22069W        W37963   7.547  10.629   1.191 -0.0643 -0.1615  0.1620
22070W        W37964   7.039   7.858   3.733  0.1528 -0.0970 -0.1239
22071W        W37965   9.863  15.957   4.571 -0.2189 -0.1259  0.3615
22072W        W37966   7.752  10.226  12.137 -0.2456 -0.1645 -0.1197
22073W        W37967  14.824  10.911   3.209  0.0366 -0.1402 -0.2754
22074W        W37968  13.642  16.848   1.872  0.2165  0.1793 -0.1451
22075W        W37969   6.687   3.718  14.686  0.1469  0.0903  0.0034
22076W        W37970   5.942  11.807  17.270 -0.3214  0.2857 -0.0754
22077W        W37971   6.006   7.713  12.957 -0.0741  0.1528 -0.0672
22078W        W37972   6.105   1.845  16.660 -0.1210  0.2757 -0.0236
22079W        W37973  14.457   5.751  16.996  0.3237  0.2045 -0.4080
22080W        W37974   4.907   1.633   2.170  0.1436  0.2770 -0.1576
22081W        W37975  16.807  17.569   5.325  0.1082 -0.0574 -0.1685
22082W        W37976   1.764  10.958   3.129  0.0326  0.1727 -0.1093
22083W        W37977   0.840  11.838   3.374  0.1200 -0.0274 -0.0106
22084W        W37978   3.837   3.693  16.862 -0.2702  0.0509 -0.1694
22085W        W37979  16.068   4.071  16.835  0.1222 -0.5647 -0.0005
22086W        W37980   5.068   1.795   4.934 -0.3336  0.0111 -0.0389
22087W        W37981  13.197   8.563   2.998  0.0912  0.0136 -0.0594
22088W        W37982   3.967   4.688  17.077  0.1304  0.1741 -0.1467
22089W        W37983  14.263   7.125   0.272  0.0115  0.0810  0.3027
22090W        W37984  16.955   5.229   2.734  0.1356  0.2142 -0.1356
22091W        W37985   4.928   7.455   4.896 -0.1789  0.1008 -0.0314
22092W        W37986   9.187  10.294  13.098  0.0045  0.0776  0.1336
22093W        W37987   8.001   6.439   2.026  0.0156 -0.0015 -0.1821
22094W        W37988   8.186  12.828  14.689 -0.1645 -0.1133 -0.1085
22095W        W37989   2.377   9.324  15.206  0.1866 -0.2170  0.0255
22096W        W37990   1.657  16.960   3.094 -0.2975  0.2009 -0.1659
22097W        W37991   6.104  14.275  17.146  0.1651 -0.3570 -0.1050
22098W        W37992   6.699  11.211   6.078  0.2255  0.2754  0.1875
22099W        W37993   3.451   8.946   2.715 -0.0924  0.1548  0.2543
22100W        W37994   5.969  15.536   1.369  0.0588  0.0965  0.0359
22101W        W37995   1.239   5.534  15.019  0.0913  0.0114 -0.2460
22102W        W37996   2.153  17.531  15.184  0.3783 -0.4034 -0.0030
22103W        W37997  11.866   7.707   0.323  0.0302  0.3394  0.0710
22104W        W37998  13.218  16.834   3.758  0.1652  0.1053 -0.3670
22105W        W37999  16.456   1.511  14.486  0.1528 -0.1795  0.1254
22106W        W38000   4.123  15.318   2.942 -0.1239 -0.0662  0.2906
22107W        W38001   9.610   4.040  14.856  0.0480 -0.0579  0.0842
22108W        W38002   2.689   0.060  13.380  0.3847  0.1406  0.2242
22109W        W38003  17.259  15.945   2.401 -0.0506 -0.1148 -0.1412
22110W        W38004  11.758   3.617  17.129  0.0863  0.1668 -0.0292
22111W        W38005   8.212   3.385  15.295 -0.2729 -0.1710  0.0720
22112W        W38006  14.019   3.554   3.505 -0.1629  0.0462 -0.0855
22113W        W38007   5.224   6.260   5.234  0.1326 -0.0944 -0.3868
22114W        W38008  13.385   5.503  10.681  0.4469 -0.1186  0.0814
22115W        W38009  15.123   2.729   1.681 -0.0741 -0.1946 -0.0795
22116W        W38010   1.057   8.240   0.760 -0.0294 -0.0520 -0.2312
22117W        W38011   4.340   6.687  14.102  0.0173  0.1404 -0.3848
22118W        W38012   3.629   4.875  14.880  0.1388  0.2519  0.0290
22119W        W38013  10.582  11.231  13.641  0.1032 -0.1206 -0.1039
22120W        W38014   7.219  16.706  13.536  0.1748  0.0676  0.0402
22121W        W38015   9.142   3.469  15.595 -0.0693 -0.1816 -0.3709
22122W        W38016  15.219   3.677   5.271  0.3662 -0.0353 -0.2527
22123W        W38017  14.341   3.774  15.403  0.0731  0.2329 -0.2966
22124W        W38018  12.513  13.292  15.856  0.0916 -0.1901  0.3255
22125W        W38019  11.808   5.902   0.167 -0.1583 -0.0967  0.2223
22126W        W38020  16.350   8.618  16.586  0.0065  0.1764  0.3986
22127W        W38021   7.533   6.021  16.362 -0.1069  0.1305  0.0501
22128W        W38022  14.702  11.825   0.329 -0.3710  0.3329 -0.0137
22129W        W38023  11.917  14.722  11.960  0.1121  0.0273 -0.0164
22130W        W38024   2.885   4.335   2.267  0.2048  0.2317 -0.1164
22131W        W38025   0.409  14.468   0.168 -0.0719 -0.1341  0.2317
22132W        W38026  10.678  14.650   0.249  0.0784  0.3287  0.2822
22133W        W38027   9.851   3.418   5.944  0.0908 -0.1316  0.0339
22134W        W38028  14.115   6.068   4.424  0.0249  0.1568  0.2270
22135W        W38029   2.404  15.474   0.926  0.0270 -0.0176  0.0782
22136W        W38030  14.130   8.573  14.232  0.0395  0.1651  0.0916
22137W        W38031   1.206  14.246  15.038  0.0968 -0.0307  0.0217
22138W        W38032  16.006  13.665   0.576 -0.2702  0.3464 -0.0679
22139W        W38033   7.344  11.120   5.724  0.0642  0.2466  0.0103
22140W        W38034  11.810  15.267   1.866  0.1219 -0.1478 -0.1691
22141W        W38035   3.762  16.726   0.484  0.1458 -0.1748  0.1599
22142W        W38036   8.435  15.929   4.926 -0.0773 -0.3786 -0.1325
22143W        W38037   4.041   3.966   3.003  0.1974 -0.2406 -0.2503
22144W        W38038   1.441  16.882  16.029  0.1731  0.3821 -0.0758
22145W        W38039  13.824  15.064  15.301 -0.0037 -0.3008 -0.1182
22146W        W38040  17.322   7.938  14.905  0.1490 -0.0331  0.0340
22147W        W38041   1.612  16.242  13.317  0.1246 -0.0704 -0.3446
22148W        W38042  15.603   7.408   5.192 -0.2776 -0.0756  0.1130
22149W        W38043  14.171   3.123  13.480  0.3060 -0.0685  0.0806
22150W        W38044   4.437  11.931   2.400  0.3033 -0.2421  0.0121
22151W        W38045   7.957   9.072  15.770 -0.3054  0.3725  0.1619
22152W        W38046   6.565   8.172  14.361  0.0005  0.1863 -0.1684
22153W        W38047  12.111  13.797   2.611 -0.2400  0.1591  0.0673
22154W        W38048  12.744   5.549  16.681 -0.1142 -0.0774  0.0155
22155W        W38049   3.682   1.711  12.778 -0.1715  0.0390 -0.1986
22156W        W38050   5.904   5.840   4.582 -0.1246 -0.0844 -0.1512
22157W        W38051   6.247  14.028   1.456  0.0260  0.0913 -0.1318
22158W        W38052   9.977  13.106   0.595 -0.1833  0.2508  0.3109
22159W        W38053   5.912   0.098   0.153  0.0711  0.1138  0.4239
22160W        W38054   4.078  12.325   1.414  0.1151 -0.0625 -0.1233
22161W        W38055  11.817  13.342   0.182  0.1160 -0.1292  0.1010
22162W        W38056   3.973  11.854  14.754 -0.1489 -0.2097  0.2058
22163W        W38057  16.122   2.649   2.507 -0.0313 -0.1632 -0.3077
22164W        W38058   6.131   1.166   0.794  0.4238  0.0563  0.0257
22165W        W38059   1.051   4.949   6.728  0.0952  0.1621  0.1151
22166W        W38060  15.529   5.023  13.169  0.1156 -0.1828 -0.2528
22167W        W38061   9.710  17.011  16.355  0.2039 -0.0624 -0.0430
22168W        W38062  16.876   2.645   5.078  0.2646 -0.0528 -0.0340
22169W        W38063   4.069   6.781  16.531  0.1674 -0.1975  0.0174
22170W        W38064   1.040   4.974   5.877 -0.2843 -0.0104 -0.1374
22171W        W38065   1.765  14.077  15.815  0.2817  0.0330  0.0140
22172W        W38066   0.171   3.232   1.136  0.3460 -0.1739  0.1332
22173W        W38067  10.965   8.487   2.105 -0.1128 -0.1089  0.0104
22174W        W38068   7.268  13.740  14.625  0.0591 -0.0215 -0.0442
22175W        W38069  13.365  13.376  17.014 -0.0080 -0.1256 -0.0807
22176W        W38070   3.162   0.310  16.077 -0.0377 -0.2680 -0.2731
22177W        W38071  14.620   9.156   4.557  0.0548 -0.1933  0.0010
22178W        W38072  13.629  11.538   2.446  0.0843  0.1499 -0.0081
22179W        W38073   4.059   9.373  16.160 -0.0511 -0.1384  0.1714
22180W        W38074   1.241   4.782  16.386 -0.2772 -0.0403  0.0411
22181W        W38075   7.965   9.241  16.315  0.1584 -0.0425  0.2170
22182W        W38076   5.536  13.893   2.234 -0.0232 -0.4478 -0.1711
22183W        W38077   6.671   4.137   1.580 -0.3812  0.1918  0.0882
22184W        W38078  17.585   8.035   5.989  0.1843 -0.2212 -0.2996
22185W        W38079   5.638  12.920   1.949 -0.0555  0.0739 -0.0892
22186W        W38080   0.901   5.448   6.529 -0.1819  0.1128 -0.2905
22187W        W38081   4.234  11.461   2.266 -0.1223  0.2178  0.0553
22188W        W38082   8.112   2.208   4.084 -0.1999  0.0554 -0.2935
22189W        W38083  14.610  16.198  12.329 -0.1211  0.1290 -0.3067
22190W        W38084   0.189   1.508   1.052 -0.0783 -0.0523  0.0241
22191W        W38085  15.060   8.609  13.291  0.3081 -0.1201  0.0905
22192W        W38086   5.339  13.525  12.003  0.0633 -0.0778  0.1066
22193W        W38087  16.496   5.692  15.317  0.2144 -0.0614 -0.0094
22194W        W38088   6.064   4.072   5.035 -0.1648  0.1040 -0.1303
22195W        W38089   2.224  14.126  17.170  0.0965  0.1595  0.3351
22196W        W38090  12.451   3.409  14.312  0.3815 -0.1744 -0.1929
22197W        W38091   1.670  13.003  13.008  0.4698 -0.1848  0.0868
22198W        W38092   7.558   6.658   1.929 -0.0364  0.2135 -0.0429
22199W        W38093   0.476   4.137   0.906 -0.0238 -0.0607  0.1505
22200W        W38094  16.090   8.108  16.738 -0.1739  0.1720  0.1147
22201W        W38095   0.989   9.800  13.267  0.0951 -0.0920  0.2299
22202W        W38096   7.452  14.976  16.644 -0.1585 -0.2399  0.2674
22203W        W38097   3.114  10.358   5.394 -0.2207  0.0555  0.3081
22204W        W38098   7.681  10.804  13.817  0.1405 -0.2986  0.0396
22205W        W38099   5.051   1.895  17.141  0.0090 -0.0367  0.2198
22206W        W38100   4.089   3.645   5.139 -0.2000 -0.0124  0.0371
22207W        W38101   8.800   8.305   1.237  0.2741 -0.0253  0.0515
22208W        W38102   4.518  12.714   5.206  0.3284 -0.1852  0.2468
22209W        W38103   7.248   8.501  17.013  0.1311  0.2850  0.1795
22210W        W38104  14.768   0.683  13.750  0.1887 -0.0720 -0.2029
22211W        W38105   6.225   4.491   3.552  0.0212  0.3172  0.1483
22212W        W38106  16.412   2.521  15.539 -0.1789 -0.0612  0.2830
22213W        W38107  15.133  11.700   3.003 -0.2067  0.0012  0.0138
22214W        W38108  13.215   0.243   0.422  0.2364 -0.0370  0.1883
22215W        W38109  10.713   4.004  13.789 -0.1841  0.1620 -0.0254
22216W        W38110  11.544   6.960   3.239  0.1100  0.2612 -0.0062
22217W        W38111  11.628   5.035  11.176  0.3208  0.0775  0.0167
22218W        W38112  11.621  15.122  15.895 -0.0052  0.2152 -0.1454
22219W        W38113  13.352   4.407   0.404  0.0160  0.1783 -0.1643
22220W        W38114   4.741   6.282  12.640  0.1419 -0.0809  0.1647
22221W        W38115   3.936  11.036  12.354 -0.1488 -0.0006 -0.1890
22222W        W38116   1.338  12.412   5.580  0.0486  0.1393 -0.5304
22223W        W38117  16.352   4.562  15.571  0.1423  0.1581  0.0123
22224W        W38118   8.829  11.955  15.712  0.1195  0.1107  0.1613
22225W        W38119  11.834  17.401   0.913 -0.0292  0.0147  0.3436
22226W        W38120  13.526   4.991  16.705 -0.2554  0.1481  0.1144
22227W        W38121  14.482  10.921  14.657  0.1433 -0.0640 -0.1445
22228W        W38122   2.294   1.709  12.856 -0.0113 -0.0054 -0.1491
22229W        W38123  13.772   2.803  13.285 -0.0928  0.3051  0.1504
22230W        W38124   8.394   1.153  15.826  0.1769 -0.2669 -0.1801
22231W        W38125   6.433   1.472  14.010  0.0695  0.0178  0.0478
22232W        W38126   9.362  14.970  16.224  0.3251  0.2672 -0.1833
22233W        W38127  12.315  17.615   2.010  0.0385  0.0173  0.2285
22234W        W38128   2.147  15.703  15.946 -0.2975  0.1788 -0.0713
22235W        W38129  16.009   1.233   0.425 -0.1648  0.0237 -0.1822
22236W        W38130   8.743  15.013   2.378 -0.1355  0.0402 -0.0665
22237W        W38131   4.538   6.921  17.155 -0.1797  0.2598  0.3673
22238W        W38132  10.314   9.085  12.554 -0.1303 -0.0916  0.0841
22239W        W38133   8.945  17.159  15.160  0.2199 -0.1165 -0.0399
22240W        W38134  11.373   0.053  16.570  0.0649 -0.0124 -0.0095
22241W        W38135  16.848   3.835   1.391 -0.0942 -0.1370  0.2742
22242W        W38136  14.343  14.309   2.244 -0.2185 -0.1271  0.3683
22243W        W38137   5.083   9.310   3.517  0.0784 -0.1093 -0.0047
22244W        W38138   3.680  10.864  14.425  0.0642 -0.2475  0.2076
22245W        W38139   1.903   4.443  16.277  0.1692  0.1449 -0.0538
22246W        W38140  11.385   2.704   0.186 -0.2701 -0.0378 -0.3065
22247W        W38141  10.338   9.292   5.395 -0.0984 -0.2394  0.1967
22248W        W38142   3.181   7.303   1.219  0.0293  0.0650 -0.1990
22249W        W38143   2.017   7.325   3.531  0.1295  0.3095  0.1366
22250W        W38144  14.782   5.512  14.673 -0.0332  0.1475 -0.1697
22251W        W38145   2.159  16.185  15.099  0.1156 -0.4049 -0.2583
22252W        W38146  10.205  13.218  15.445  0.0582  0.1595  0.0169
22253W        W38147   3.193   7.847   1.165 -0.0431 -0.1448 -0.0648
22254W        W38148  12.541   9.390  12.837  0.2629  0.2602 -0.0065
22255W        W38149   1.969  10.624   2.229 -0.0421  0.0442 -0.0579
22256W        W38150  11.907  10.645   4.089 -0.1860  0.0178 -0.1849
22257W        W38151  10.068  13.304   1.080  0.1146 -0.1459 -0.0280
22258W        W38152   1.672   3.104   3.955  0.1193 -0.3399 -0.2951
22259W        W38153  15.231  11.922  14.368  0.0569  0.0087 -0.2731
22260W        W38154   4.336  11.532   4.783  0.0578 -0.1252  0.0697
22261W        W38155   6.810  16.901  14.461 -0.0835  0.2305 -0.5750
22262W        W38156  14.956  15.222   1.582 -0.0076  0.1387 -0.3831
22263W        W38157   1.597  15.644   2.808  0.0635  0.0211 -0.0390
22264W        W38158  15.619   4.058  12.453 -0.0460 -0.1861  0.0172
22265W        W38159  11.523   0.421   5.582  0.3193 -0.0346  0.4132
22266W        W38160  12.057  15.339  13.986 -0.1989  0.1494  0.1618
22267W        W38161  14.203  11.589  12.936  0.0203 -0.1204 -0.1880
22268W        W38162  16.659   1.139  15.729 -0.0228  0.0046 -0.0094
22269W        W38163  15.542   5.602  15.409 -0.1944  0.2314 -0.4919
22270W        W38164   9.737   7.691  13.167 -0.1940  0.0047 -0.1138
22271W        W38165  11.929   4.046  15.317 -0.3216  0.0731 -0.2133
22272W        W38166  14.738   3.719   4.312  0.1353  0.3444 -0.2203
22273W        W38167  12.272  13.230  12.947 -0.0695  0.2186  0.2137
22274W        W38168  12.673  13.758  15.806 -0.1434 -0.4050  0.0638
22275W        W38169   5.130  14.752  15.702  0.1937 -0.1174 -0.0500
22276W        W38170   3.510  10.249  15.116  0.1487 -0.0964 -0.0235
22277W        W38171   0.308  16.448  12.211  0.1845  0.0002  0.1631
22278W        W38172  16.954   8.865  15.035 -0.3151 -0.3217 -0.0550
22279W        W38173   5.555   7.152  14.011 -0.1503  0.0468  0.1112
22280W        W38174   4.214   9.448  11.819 -0.3390  0.2655 -0.1710
22281W        W38175  11.986   6.653  16.501 -0.1178 -0.1673 -0.1851
22282W        W38176  11.594   7.192  12.446 -0.0093 -0.1237  0.2118
22283W        W38177  11.357  10.351  14.057 -0.0547 -0.1883 -0.2544
22284W        W38178   6.238  15.278   2.309 -0.4027  0.1238 -0.2576
22285W        W38179  10.427  10.564  15.760  0.0659 -0.0793 -0.1902
22286W        W38180  13.624   3.325  12.505  0.3855  0.0943 -0.0344
22287W        W38181   8.140  12.276   1.299 -0.1255 -0.0963  0.0519
22288W        W38182   7.075  11.204  12.038  0.3469  0.0985  0.1047
22289W        W38183   5.394  11.080  16.491  0.0157  0.4071 -0.1188
22290W        W38184   5.723   6.980  13.136 -0.0100 -0.0387 -0.0173
22291W        W38185   8.109  17.344   5.538 -0.1245 -0.1225 -0.3565
22292W        W38186  14.130  14.925   3.030 -0.0599  0.0186  0.1293
22293W        W38187  10.869   4.758  15.614 -0.1270 -0.0427 -0.0813
22294W        W38188  15.007  17.423   3.922 -0.0924  0.0502  0.4590
22295W        W38189   0.012  13.119  17.102 -0.2774  0.1153 -0.1184
22296W        W38190   5.267  12.311   2.544  0.1742 -0.1076 -0.0239
22297W        W38191  12.894   2.877   3.830 -0.0983  0.0995 -0.1355
22298W        W38192   2.771   9.399   0.234  0.1079 -0.0617  0.2057
22299W        W38193   0.632   2.840  12.405  0.0396  0.0627  0.0698
22300W        W38194   8.999   1.199  13.294 -0.0522  0.0527 -0.1693
22301W        W38195   9.851   4.104  14.308 -0.1300 -0.0895  0.1579
22302W        W38196  14.828   8.381  12.937  0.1867 -0.1950  0.1799
22303W        W38197   6.595   0.490   4.076  0.2340  0.0952  0.1094
22304W        W38198  10.660  10.654  13.801  0.1875 -0.0436 -0.1705
22305W        W38199   6.360  16.577  12.076 -0.1359  0.1872  0.2987
22306W        W38200   0.710   1.430  15.805  0.1866 -0.1426 -0.3027
22307W        W38201  11.771   4.294   4.842 -0.4210  0.1070 -0.1284
22308W        W38202   4.294  12.665   0.062 -0.2042 -0.0683  0.0041
22309W        W38203  14.600  10.775  12.861 -0.0793  0.1406 -0.0557
22310W        W38204   0.590   3.586  13.049  0.2737 -0.1567  0.0831
22311W        W38205  10.152   5.738   4.819  0.0592 -0.1513 -0.1709
22312W        W38206  12.003   9.021   3.095 -0.0898 -0.0706  0.0523
22313W        W38207   6.280  11.120  13.912  0.0082  0.3865  0.0045
22314W        W38208   3.840  14.879   6.035 -0.2661 -0.0979 -0.2840
22315W        W38209  17.561   2.209  14.533 -0.3264 -0.1669 -0.0588
22316W        W38210   8.442   1.866   1.870 -0.3149 -0.0740 -0.1669
22317W        W38211  14.980  12.568   3.512 -0.1334  0.5008 -0.1387
22318W        W38212   6.603   3.232  14.086  0.2777 -0.0370 -0.0982
22319W        W38213   0.724  12.222  13.234 -0.0437 -0.1838  0.1592
22320W        W38214  14.716  11.212  15.289  0.0532  0.0625  0.1817
22321W        W38215  11.884  14.202  15.716 -0.0062  0.0711  0.2697
22322W        W38216  16.377  14.779   5.724  0.1895  0.0878 -0.0116
22323W        W38217  17.218  16.423   4.282 -0.1735  0.0648 -0.1821
22324W        W38218   5.771  17.174   2.062  0.0107 -0.1736  0.3569
22325W        W38219   2.415   1.744   1.609 -0.0017 -0.1700  0.3460
22326W        W38220   6.609   8.800   3.697  0.1370 -0.3678  0.0330
22327W        W38221   1.260  13.853  16.721  0.2095 -0.0305  0.1718
22328W        W38222   8.408   2.823  12.973 -0.1367  0.0755 -0.2632
22329W        W38223   1.205  10.868   2.644 -0.3777 -0.0517 -0.0668
22330W        W38224   0.429   8.536  12.710  0.1666 -0.0198 -0.0274
22331W        W38225   8.324   2.831   2.128  0.0543  0.1550  0.0263
22332W        W38226  14.188   0.624  14.527  0.2176 -0.0771 -0.4520
22333W        W38227  14.272  15.020  14.508  0.0335 -0.3843 -0.3949
22334W        W38228   8.058  15.223  15.837  0.0224 -0.0282  0.0993
22335W        W38229  12.337  16.905  11.494  0.2241 -0.2218 -0.4990
22336W        W38230   2.101   9.089   3.178  0.3744 -0.1949  0.3118
22337W        W38231  15.370  13.512  15.344  0.0079 -0.1614  0.2188
22338W        W38232  11.409  14.967   2.183 -0.1010  0.1745  0.2282
22339W        W38233  10.732   7.098   0.342  0.0875 -0.0632  0.5108
22340W        W38234   2.405   7.080   2.349  0.0524 -0.2415 -0.0755
22341W        W38235  10.028   0.070   2.990 -0.0004 -0.0580 -0.1304
22342W        W38236  10.855   6.106   3.996 -0.0911 -0.2424  0.1510
22343W        W38237  14.001   7.053  12.611  0.1560 -0.1893  0.5153
22344W        W38238  12.102   6.793   4.303 -0.0897 -0.0305  0.2058
22345W        W38239  14.275  12.714   4.211  0.1181 -0.0151  0.0956
22346W        W38240  16.668  15.717   4.122 -0.2874  0.0697  0.1896
22347W        W38241   7.222   3.370   2.500  0.0517 -0.3103 -0.0417
22348W        W38242   4.737   3.360  13.150  0.1102  0.1701  0.2560
22349W        W38243   1.187   2.055  12.888  0.2924 -0.2004  0.0569
22350W        W38244   2.134   1.029  16.994 -0.1878 -0.1040 -0.1153
22351W        W38245  11.708  10.464  15.049 -0.3341  0.0024 -0.1961
22352W        W38246   0.044   2.708  13.221  0.2658  0.3928 -0.1364
22353W        W38247  12.276  10.836  14.730  0.0755 -0.0470 -0.1320
22354W        W38248   0.956  11.033   6.228  0.2338  0.1558 -0.2506
22355W        W38249  11.296   5.422   3.076 -0.2757 -0.1216  0.2431
22356W        W38250  12.916   9.741  16.619  0.1995 -0.0791  0.0538
22357W        W38251   4.956   2.281  13.397  0.1385 -0.2030 -0.1473
22358W        W38252   7.062   4.569   4.117 -0.0072  0.2448 -0.2130
22359W        W38253   7.396  13.963  12.913  0.1109  0.2697  0.1449
22360W        W38254   1.233   8.990   3.038 -0.0923  0.1854  0.1998
22361W        W38255  15.651   8.954   5.034  0.1570  0.0591  0.0003
22362W        W38256   4.344  14.541   4.066 -0.1681 -0.0901 -0.1561
22363W        W38257   9.819  10.205   2.965 -0.1926 -0.0849  0.2693
22364W        W38258  15.860   6.187   5.222 -0.0908  0.1617 -0.1665
22365W        W38259  17.312  16.235  13.768  0.0047 -0.0633 -0.0368
22366W        W38260   3.768   5.458   2.418  0.0942  0.0977  0.1291
22367W        W38261  11.666   5.325  12.443  0.0131 -0.0412 -0.3939
22368W        W38262   6.826   3.021   0.794  0.2417  0.2507  0.0285
22369W        W38263   5.139  12.811   3.423  0.2135  0.0344  0.1337
22370W        W38264   2.664  16.609  15.520  0.2946 -0.0923 -0.4393
22371W        W38265   8.564   5.688  12.608  0.1764 -0.0289 -0.1122
22372W        W38266  14.427  12.448  14.891  0.1576  0.0551  0.0055
22373W        W38267   0.436   0.964   1.093  0.1303 -0.1390  0.2939
22374W        W38268   8.810  16.159  17.272  0.1941  0.0808  0.4085
22375W        W38269   8.849   2.153  15.655 -0.0315  0.2525 -0.0574
22376W        W38270  17.543  11.030   4.817 -0.3840  0.0282 -0.1125
22377W        W38271   3.210   4.158   0.147  0.3318  0.1760 -0.0743
22378W        W38272  12.062  14.102   1.390  0.1263  0.2627 -0.0160
22379W        W38273   0.789   2.266  13.159  0.1611  0.1735 -0.0250
22380W        W38274   8.224  15.527   3.548 -0.1839 -0.0364 -0.2798
22381W        W38275   2.486  16.397   0.463 -0.1508  0.0804  0.1276
22382W        W38276  10.801   6.409  14.142 -0.0237 -0.2727  0.0930
22383W        W38277  15.661   8.494  15.394 -0.2004  0.1830  0.2541
22384W        W38278   8.437   9.119   2.369  0.0551  0.1837  0.2986
22385W        W38279   1.320  16.790   2.019 -0.1604 -0.2050 -0.1205
22386W        W38280  16.655   8.238  13.627  0.2299  0.0273  0.1657
22387W        W38281   4.464  17.199   2.142  0.0547 -0.2875  0.0487
22388W        W38282   2.825  12.179  14.215 -0.0457 -0.2347  0.3547
22389W        W38283   5.405   2.003   1.055  0.0387  0.0876 -0.3040
22390W        W38284   9.294  14.489  15.720  0.2781 -0.2721  0.0431
22391W        W38285   6.058   5.157   1.686  0.2795 -0.4883  0.0308
22392W        W38286   6.608  13.930   5.297 -0.1240  0.0962  0.3429
22393W        W38287  15.112   1.159   4.446  0.0073  0.0339  0.0151
22394W        W38288   3.303  15.757   5.765 -0.6139 -0.1830  0.2405
22395W        W38289  16.911   7.866   2.635 -0.0746  0.3220 -0.2139
22396W        W38290   5.288   1.110  12.840  0.1810  0.2541  0.1173
22397W        W38291  15.376   5.605  15.897 -0.3087  0.1636 -0.2909
22398W        W38292  17.148   4.922  12.933  0.1151  0.0216  0.1612
22399W        W38293   6.062  14.653  15.217 -0.1603  0.3283  0.2112
22400W        W38294   2.788  12.176   5.699 -0.1627 -0.0152  0.3709
22401W        W38295  12.321  12.997   0.871  0.1634  0.0295 -0.0549
22402W        W38296   0.373   2.035   1.120 -0.2228 -0.0702 -0.1230
22403W        W38297   8.920   3.036   2.659 -0.0731  0.0877  0.1281
22404W        W38298  12.756   0.322  16.441 -0.0539 -0.0442 -0.1961
22405W        W38299   9.053   7.610   6.052  0.5933  0.0619 -0.2400
22406W        W38300  12.859   9.761  16.058  0.1401 -0.0249  0.1293
22407W        W38301   1.655  16.724   1.668  0.1863 -0.1417  0.0380
22408W        W38302  15.532   6.278   0.299  0.2460 -0.0976  0.3745
22409W        W38303   6.704   4.669   3.742  0.2298  0.0502  0.0324
22410W        W38304   0.094   3.702  14.583  0.7169  0.0358 -0.4084
22411W        W38305  13.951  13.903   5.703 -0.1609  0.1956  0.2238
22412W        W38306  12.512  10.155   4.760  0.4564 -0.0667  0.0326
22413W        W38307  15.567   4.527   3.339  0.1218 -0.0893  0.1217
22414W        W38308  11.885  14.332   3.694 -0.0123  0.0849 -0.1628
22415W        W38309  16.956   4.708   4.166 -0.0121 -0.0607  0.1930
22416W        W38310  17.425  15.433   0.672  0.0035  0.0334 -0.0261
22417W        W38311   1.842  15.874   4.613  0.0310  0.0471 -0.0131
22418W        W38312   0.752   9.339  14.167  0.2782  0.0109 -0.0836
22419W        W38313  12.352   0.545  14.996 -0.3857  0.0132 -0.2301
22420W        W38314  14.114   4.613   4.761  0.0719  0.1101 -0.1874
22421W        W38315   3.346   8.355  16.917  0.0774 -0.0486  0.1992
22422W        W38316  15.553   0.361   1.571  0.0072 -0.0147  0.5313
22423W        W38317   7.844  17.402   4.822  0.2565  0.2550 -0.0817
22424W        W38318  16.264   6.593  13.904 -0.2578  0.1126 -0.0511
22425W        W38319   4.259  12.985   4.827  0.3044  0.1140  0.0538
22426W        W38320  13.612   0.375  12.129 -0.0701  0.0410 -0.0420
22427W        W38321   6.257   4.592   0.276 -0.0448 -0.2746 -0.3370
22428W        W38322  13.611  11.544   5.024  0.0239  0.5212  0.0388
22429W        W38323   7.886  13.885   3.233 -0.0259 -0.0973  0.1127
22430W        W38324   5.235   9.710   0.265 -0.3908 -0.1977  0.1453
22431W        W38325   5.291   3.121   4.013  0.1854  0.1331 -0.0140
22432W        W38326   3.816  14.485   0.350  0.1438  0.2701  0.1482
22433W        W38327   1.434   7.706  14.922  0.2218 -0.1189 -0.1363
22434W        W38328  12.041   2.754  15.858  0.0139 -0.3643 -0.0155
22435W        W38329  13.499  17.524  13.289 -0.1541  0.0633 -0.1130
22436W        W38330  13.368  16.508   2.811  0.0501  0.3623  0.1358
22437W        W38331   0.279   3.952   5.393 -0.1736 -0.0391 -0.1039
22438W        W38332   8.748   7.878  12.784 -0.1424  0.3125  0.4268
22439W        W38333   7.436   8.854   2.112  0.3128  0.2298  0.2351
22440W        W38334  11.108   6.476  12.956  0.4897 -0.1444  0.0634
22441W        W38335  12.416  16.663   0.651  0.2218 -0.1541  0.1522
22442W        W38336  14.414   8.595  13.205  0.1514 -0.1265 -0.2414
22443W        W38337  16.116  12.465  13.283 -0.1446  0.0597 -0.3198
22444W        W38338   6.740  17.201   2.086 -0.1534 -0.2183 -0.1932
22445W        W38339   9.013   5.831  12.749 -0.0226 -0.3740  0.0951
22446W        W38340   8.237   1.941  11.944  0.0871 -0.1083  0.2473
22447W        W38341  12.696  15.480   5.011  0.0587 -0.0421  0.2522
22448W        W38342   3.617   2.524  12.378  0.2726  0.0593 -0.0389
22449W        W38343  16.288   9.341  14.340 -0.1011 -0.0927  0.1332
22450W        W38344  15.728  11.379   2.114  0.1443  0.1727 -0.2249
22451W        W38345   0.670   7.897   2.789  0.1638  0.1729 -0.0053
22452W        W38346   1.801  13.072  16.462  0.0250  0.1346 -0.0329
22453W        W38347  14.487  17.262   4.104  0.0093  0.0247 -0.1841
22454W        W38348   8.426   5.689   4.900 -0.0994  0.0431  0.1208
22455W        W38349   6.293  13.704  12.217  0.2833  0.2254  0.3408
22456W        W38350  10.029   8.342   1.332  0.0572  0.1695  0.1917
22457W        W38351  12.787  14.045  16.178 -0.6479 -0.1055 -0.1116
22458W        W38352   2.459  13.174  16.491  0.2032  0.1572 -0.0202
22459W        W38353  17.410  10.901  14.802  0.0817  0.2261  0.0766
22460W        W38354   3.071  14.237   2.955 -0.2061 -0.2934  0.1932
22461W        W38355  16.141  11.043  13.118 -0.0772 -0.0671  0.0665
22462W        W38356  12.180   7.448  11.698 -0.1097  0.2106  0.2363
22463W        W38357   0.573  16.203   6.494 -0.2224  0.1159  0.0613
22464W        W38358   3.740  11.263   2.196 -0.2575  0.2329 -0.0951
22465W        W38359  12.458   5.857   1.468  0.0610  0.0803 -0.1149
22466W        W38360   6.381   1.869  15.751  0.1491 -0.0346  0.2026
22467W        W38361   8.509  16.455   3.612 -0.2068 -0.1748 -0.0410
22468W        W38362  16.641   6.729   3.407  0.3346  0.3098  0.1803
22469W        W38363   7.174   7.341  11.880 -0.0925  0.1227  0.0958
22470W        W38364   9.103  15.303   3.491  0.0362 -0.1036  0.0360
22471W        W38365  13.959   6.570   1.717  0.2303 -0.0247 -0.2579
22472W        W38366  10.671   3.807  14.727 -0.1809 -0.3328  0.0919
22473W        W38367   6.104   8.969   1.905 -0.0308  0.2113  0.1122
22474W        W38368   5.140   7.887   3.790 -0.0139  0.3067  0.0482
22475W        W38369   4.883  10.540   5.694 -0.1317  0.0998  0.0944
22476W        W38370  10.622  16.510  14.720 -0.1401 -0.5965  0.0800
22477W        W38371   4.320  12.287  16.623 -0.0637 -0.2811 -0.0979
22478W        W38372  12.937  11.483  13.980  0.0532  0.2143  0.2133
22479W        W38373   6.050   2.528   2.027 -0.1788 -0.0643 -0.0551
22480W        W38374  16.204   0.299  12.750  0.1693 -0.2392 -0.0522
22481W        W38375   2.719   9.163   6.798 -0.0737  0.2268  0.0030
22482W        W38376   0.262   9.273  16.816 -0.0894 -0.2326 -0.1190
22483W        W38377   2.694   7.827  13.030  0.0856  0.3015 -0.1188
22484W        W38378  10.268  10.485  12.445 -0.0060 -0.1348  0.0568
22485W        W38379   8.692   9.447   4.721  0.1432 -0.0606  0.1110
22486W        W38380  11.853  11.543  16.288  0.1220  0.0129  0.5303
22487W        W38381   4.705   3.156   2.141 -0.0722  0.2072 -0.2660
22488W        W38382   1.761  10.770   1.335  0.2813 -0.2527 -0.2207
22489W        W38383  15.556   5.803  11.889  0.1101  0.2403 -0.1414
22490W        W38384   7.424   2.720  14.036  0.1142 -0.0425  0.4144
22491W        W38385  16.788  17.202   1.913  0.2282 -0.1089 -0.2742
22492W        W38386   0.638   0.985  13.322 -0.5255 -0.0834 -0.0626
22493W        W38387   8.242   3.537  12.314 -0.1830  0.0587 -0.3221
22494W        W38388   7.992  15.259  11.872 -0.0156 -0.4971  0.1517
22495W        W38389  15.329  10.954  12.262 -0.0198 -0.0543 -0.0903
22496W        W38390  16.490   7.869   6.062 -0.2593 -0.1652  0.3068
22497W        W38391  15.977  11.150   2.620 -0.2916  0.1413 -0.2114
22498W        W38392   9.130  15.906  15.496  0.1911 -0.2449  0.1437
22499W        W38393  13.311   9.979  17.254 -0.0690 -0.2494 -0.0616
22500W        W38394   8.496   0.226   1.752 -0.0672  0.1998 -0.0573
22501W        W38395   4.691  12.849   3.204 -0.1691 -0.0050  0.3599
22502W        W38396  15.713   8.221   2.676 -0.0102  0.3529 -0.0217
22503W        W38397   7.625   0.435   0.983  0.3262  0.1103 -0.0621
22504W        W38398   9.389  11.209   0.023 -0.2190 -0.0746 -0.0680
22505W        W38399   9.743  15.955   4.043  0.3087  0.0235  0.1708
22506W        W38400   1.512  12.599   3.512  0.0700  0.0174  0.0654
22507W        W38401   7.468  16.293  16.670  0.3303 -0.1113 -0.1425
22508W        W38402   6.505  16.156  15.573 -0.0876 -0.2678 -0.0841
22509W        W38403   6.723  12.635  15.295 -0.3021  0.0096  0.1198
22510W        W38404  13.041  14.419   2.180 -0.0990  0.2846  0.1908
22511W        W38405  12.222   5.848   4.965 -0.3664  0.0538 -0.1716
22512W        W38406   8.637   8.721   5.911  0.4170 -0.2531  0.0701
22513W        W38407   2.097  12.331  17.095 -0.5049  0.0755 -0.2048
22514W        W38408   6.701   9.283   5.719 -0.1432 -0.2194  0.0251
22515W        W38409   0.642   7.068  13.230  0.3113  0.2734 -0.0426
22516W        W38410   3.385   7.135  12.586 -0.1003  0.7073 -0.0721
22517W        W38411   1.889   8.532  15.283  0.1270  0.2516 -0.0769
22518W        W38412   4.787   9.132   1.977  0.2353 -0.1156  0.0859
22519W        W38413   6.947   0.990   5.194 -0.0589  0.2343 -0.2626
22520W        W38414   6.199   8.216  11.926 -0.2238 -0.0181 -0.0069
22521W        W38415   9.006   5.980   2.930 -0.2556 -0.4711  0.0578
22522W        W38416  16.282   3.959   3.385  0.3761  0.0700  0.0349
22523W        W38417  13.817   2.876   4.260 -0.4238  0.1529  0.0375
22524W        W38418  16.464   7.098  17.033 -0.1407  0.0630 -0.2680
22525W        W38419  15.179   6.502  13.890  0.3072 -0.2964 -0.0608
22526W        W38420   8.274   7.452   0.281  0.0727  0.3192 -0.3371
22527W        W38421  11.672   5.103  16.172  0.0414 -0.2206 -0.0338
22528W        W38422  15.700  13.840  15.163 -0.0038  0.0738 -0.0253
22529W        W38423  13.739  15.986   1.987 -0.1033 -0.0974  0.0712
22530W        W38424   9.480   7.097  17.015  0.0385  0.2985 -0.2383
22531W        W38425  11.924   1.848   5.872 -0.0671  0.0823 -0.0766
22532W        W38426   0.109  17.433   5.013 -0.0239 -0.4457 -0.1291
22533W        W38427   0.018  13.980  15.969 -0.1530 -0.2695 -0.0460
22534W        W38428   7.364   0.315   3.100  0.1389 -0.3249  0.2004
22535W        W38429   8.755   2.913  12.334  0.0238  0.1786  0.2109
22536W        W38430   1.648   4.446   0.920 -0.2794  0.1527  0.0174
22537W        W38431  14.739   3.441  17.227 -0.2516 -0.0027  0.2340
22538W        W38432   7.616   5.998  12.849 -0.2326  0.0820 -0.0657
22539W        W38433   6.620   9.633  12.496  0.3425  0.0523  0.0155
22540W        W38434   8.647   7.360  11.602  0.2075 -0.3320 -0.1309
22541W        W38435   2.434   4.890   1.975 -0.2431  0.2799 -0.1578
22542W        W38436   9.501  10.674  15.575  0.1989  0.0391  0.1440
22543W        W38437   8.084   8.895  16.682  0.0272 -0.1357 -0.2132
22544W        W38438   9.633   9.187   0.435  0.1130 -0.0532 -0.2275
22545W        W38439   2.981  14.958   1.814 -0.1871 -0.1373  0.3569
22546W        W38440   3.875  12.594  14.914  0.0075  0.1439 -0.0161
22547W        W38441   8.159   8.241   3.272 -0.2091  0.0464  0.4333
22548W        W38442  15.509   8.714   6.055 -0.0827  0.2997 -0.2934
22549W        W38443   1.148   8.661  15.929 -0.0542 -0.1600  0.0620
22550W        W38444   5.370  12.858  15.392  0.0296 -0.2325 -0.1065
22551W        W38445   1.603   6.699   2.603 -0.0702  0.1390 -0.2897
22552W        W38446  11.199   3.593   4.700  0.1734 -0.1924  0.1655
22553W        W38447   2.247   2.176  12.685 -0.1894  0.1549  0.2146
22554W        W38448   4.067   8.440  12.216  0.2225  0.0371 -0.1556
22555W        W38449   2.514  16.910   3.657 -0.1146 -0.0866 -0.2745
22556W        W38450  16.908   0.919   4.642 -0.1222 -0.1593 -0.2538
22557W        W38451  10.497  17.406   0.122 -0.2689 -0.2294 -0.0953
22558W        W38452   5.593   3.727  13.458  0.5015 -0.1146  0.2754
22559W        W38453  13.147  13.369   4.128 -0.3171  0.0419  0.2746
22560W        W38454   5.307  12.429   4.691  0.0119 -0.1501  0.0242
22561W        W38455   1.284  11.851   2.777 -0.1799  0.0585 -0.1696
22562W        W38456  13.554  11.965  15.053 -0.3032  0.0372  0.1387
22563W        W38457   5.747  10.541   3.445 -0.0983  0.2464  0.1130
22564W        W38458  16.563   7.153   4.296 -0.2218  0.0079  0.0110
22565W        W38459  15.313  15.601   2.798 -0.1603 -0.0569 -0.3950
22566W        W38460   2.212  15.563   4.600  0.1822  0.3005  0.0480
22567W        W38461  17.368   8.505   5.720 -0.0549  0.3353  0.1804
22568W        W38462   7.902  16.563  17.068  0.1388  0.1901  0.0621
22569W        W38463   6.058   3.183  16.256 -0.0735 -0.1258 -0.3743
22570W        W38464   1.377  15.130  13.832  0.0493 -0.0779 -0.3287
22571W        W38465   7.602   9.964  11.318 -0.0005  0.2875 -0.1680
22572W        W38466   4.571   5.343   2.584 -0.0980 -0.1259 -0.1934
22573W        W38467   2.318   7.130   3.193 -0.0298  0.2918 -0.1156
22574W        W38468   1.550  15.172   3.976  0.0814  0.0427 -0.0991
22575W        W38469   4.324   4.457   2.763  0.1293 -0.1051 -0.0405
22576W        W38470   4.860   6.176  14.378 -0.2683 -0.5698 -0.0718
22577W        W38471   8.695   6.535   2.765 -0.2418 -0.0870  0.1779
22578W        W38472  16.301   3.188   4.359  0.2868  0.0239  0.0191
22579W        W38473   5.546   0.467   3.438  0.0477  0.0659  0.3339
22580W        W38474  13.784   4.972   4.485 -0.1502  0.1477 -0.2963
22581W        W38475  15.395  12.906  14.926  0.0082 -0.1357  0.0221
22582W        W38476  16.926   6.765   0.532 -0.0621 -0.1068  0.2571
22583W        W38477   3.540   2.133  16.258 -0.2185 -0.0664 -0.1006
22584W        W38478  11.744  14.895  13.315 -0.1914 -0.2282 -0.2519
22585W        W38479   1.139   5.310   5.492 -0.2617  0.0063  0.1439
22586W        W38480   3.290  13.325  12.558  0.1242  0.2629  0.0493
22587W        W38481   4.335   5.007   3.994  0.0146 -0.2183  0.0127
22588W        W38482   2.694  14.161  13.334  0.0626  0.0038  0.0359
22589W        W38483   0.455   3.483   3.891 -0.0968 -0.3117 -0.2801
22590W        W38484  10.609   7.526  11.561 -0.2957  0.0659  0.1394
22591W        W38485   6.284   7.962   5.516 -0.3586  0.2350  0.1597
22592W        W38486   9.952   5.427   2.131 -0.0234  0.3069 -0.0812
22593W        W38487  15.977   9.803   4.641  0.0979  0.1512 -0.2211
22594W        W38488  13.144  15.021  16.925  0.2485  0.1714  0.0295
22595W        W38489  14.276   4.655   0.500  0.0275 -0.0918  0.1441
22596W        W38490   6.105   2.068   2.849  0.0501 -0.0026 -0.1145
22597W        W38491   2.874   8.665   1.105 -0.0907  0.0503  0.0510
22598W        W38492   6.113   6.716  12.981  0.0778  0.0481 -0.1762
22599W        W38493   9.267  16.824  12.649 -0.0685 -0.2512  0.0748
22600W        W38494  12.782  10.618   1.576  0.1595  0.1473 -0.0462
22601W        W38495   6.001  11.636  14.623  0.0088  0.1763  0.0552
22602W        W38496  10.886   9.881   6.009  0.2085  0.0027 -0.2712
22603W        W38497   8.988  16.409   3.563  0.0943  0.4903  0.1141
22604W        W38498  16.100   3.390  14.609  0.1236 -0.0337  0.0418
22605W        W38499  11.470   4.940   1.811  0.1568  0.2805 -0.2350
22606W        W38500  14.153   5.024  11.950 -0.0621 -0.0858 -0.0914
22607W        W38501  15.990  13.277  14.454 -0.2046 -0.2816  0.0331
22608W        W38502   7.280   9.954   6.066 -0.0989 -0.1639  0.2529
22609W        W38503   1.403  12.996  16.841  0.0550 -0.2072  0.0988
22610W        W38504   7.270   4.505  13.530  0.0432  0.0584  0.0227
22611W        W38505   8.292  16.827  17.245  0.1125  0.0276 -0.0324
22612W        W38506   5.886  17.337   1.526 -0.0919 -0.2727 -0.0364
22613W        W38507   2.475   7.909  13.943 -0.0091 -0.2645  0.1999
22614W        W38508  12.444   8.226   5.515  0.0872  0.2412 -0.0266
22615W        W38509   1.060   8.840   6.090  0.1565  0.1092  0.1190
22616W        W38510   0.125  12.132   1.956 -0.0552  0.0132 -0.0369
22617W        W38511  10.310   6.591   1.022 -0.2139  0.2156  0.1509
22618W        W38512   2.080   3.464   0.177 -0.0261  0.3730  0.0776
22619W        W38513  12.359   3.392  16.638  0.0660  0.1496  0.0882
22620W        W38514  14.150  16.892  16.293  0.1913 -0.0938 -0.0081
22621W        W38515   3.874   9.038   1.995 -0.1928 -0.0068  0.0771
22622W        W38516   4.867  13.975   1.435  0.0477  0.0608  0.0454
22623W        W38517   6.281  16.777  17.295  0.1268  0.0026  0.5100
22624W        W38518   6.471   7.807   1.682  0.1273  0.1459 -0.0321
22625W        W38519  12.620   9.342   3.742 -0.2040 -0.0917  0.2576
22626W        W38520  17.569   0.725   4.644  0.0564  0.0340  0.3463
22627W        W38521   9.437   4.528  15.152  0.3523  0.1328  0.3381
22628W        W38522   5.813   9.734  12.271  0.0476 -0.2086  0.1233
22629W        W38523   0.812  11.991  15.411  0.0085 -0.1153  0.0618
22630W        W38524  12.301  12.419   5.119 -0.0265  0.1779 -0.0374
22631W        W38525   5.798  15.690   1.957  0.1428 -0.1609 -0.0290
22632W        W38526  15.084   1.880  14.518 -0.0369  0.1422 -0.1508
22633W        W38527   7.489   3.381  12.665  0.1714 -0.1732 -0.1863
22634W        W38528  12.116  13.428  16.152 -0.0212 -0.3876  0.2874
22635W        W38529   7.230   2.843  13.298  0.2254  0.3684 -0.1399
22636W        W38530  14.138   9.444  15.098 -0.0761  0.0779  0.3136
22637W        W38531  15.154  12.495  13.084  0.0059  0.0539  0.0610
22638W        W38532   1.798  10.778   5.897  0.1888  0.1755  0.0731
22639W        W38533  16.046   9.340   3.316  0.3593 -0.1642 -0.1601
22640W        W38534   0.568  14.230   4.947  0.1457 -0.0458 -0.0823
22641W        W38535   9.654   7.399  13.609 -0.2422  0.1583 -0.5177
22642W        W38536   5.787   0.056  13.191  0.1248 -0.3311  0.2471
22643W        W38537  10.245   3.456   0.353 -0.0460  0.1673  0.7005
22644W        W38538  10.022  15.073   4.431  0.0617 -0.3079  0.3075
22645W        W38539   2.617   0.646   4.300  0.1415  0.2843  0.2132
22646W        W38540   9.659   5.607   3.959 -0.0399 -0.1901 -0.1248
22647W        W38541   9.312  11.663   1.906  0.2605 -0.0456 -0.4119
22648W        W38542   6.895  17.091   1.601  0.0122 -0.0018  0.0787
22649W        W38543   6.123  14.826   5.588 -0.0253 -0.0542  0.0004
22650W        W38544   4.803  10.104  14.412  0.1297  0.0112  0.2239
22651W        W38545  12.086  12.166  15.087  0.0953 -0.0648  0.1911
22652W        W38546   3.535  16.718  16.754  0.0434  0.1268  0.0703
22653W        W38547   7.747  12.938  15.494  0.0525 -0.1447  0.1069
22654W        W38548   3.802  14.103   1.443 -0.0617  0.2931 -0.2116
22655W        W38549  17.117  10.282   5.160 -0.3019  0.1584 -0.4308
22656W        W38550   8.973   6.397  12.143  0.1510 -0.0652  0.1464
22657W        W38551  14.664   9.609   1.106 -0.2821 -0.0245 -0.1257
22658W        W38552  16.369   5.628  13.989  0.3010 -0.1434 -0.1005
22659W        W38553   3.447   7.502   6.099 -0.0214 -0.0794  0.2130
22660W        W38554   1.733  13.963  16.612  0.2916 -0.0825  0.2402
22661W        W38555   9.295  11.579  13.498  0.0864 -0.1885  0.2244
22662W        W38556  13.856   4.958   0.738  0.3040  0.2299  0.1971
22663W        W38557   2.717   4.657  14.462  0.2014 -0.0322  0.3168
22664W        W38558   3.192  15.158  12.068  0.0381 -0.0347  0.0896
22665W        W38559   7.001  12.135   0.593 -0.2681  0.2466  0.0785
22666W        W38560  10.050  16.483   4.424  0.5491  0.0635 -0.0175
22667W        W38561   4.088   0.348  13.615 -0.0558 -0.1708  0.4001
22668W        W38562  11.021   7.481   0.364 -0.0598  0.1815 -0.4470
22669W        W38563   2.316   8.334  12.467  0.1388  0.0772 -0.0491
22670W        W38564   4.493   5.626   5.561 -0.0090 -0.2202 -0.0040
22671W        W38565  13.706  14.785  11.603 -0.2049  0.3614 -0.0411
22672W        W38566  17.371  13.869   5.316 -0.1547  0.2116  0.2330
22673W        W38567   8.967   3.064  14.097 -0.0634  0.1561 -0.1917
22674W        W38568   3.998   6.236  12.170 -0.2465 -0.2378  0.1722
22675W        W38569   8.792   4.369   4.290 -0.1270  0.0303 -0.0299
22676W        W38570   5.662   1.402   4.975  0.1543 -0.1147 -0.3045
22677W        W38571  15.816   4.330   2.202 -0.2514  0.0912  0.3316
22678W        W38572  16.279  17.033   5.921 -0.1378  0.1315 -0.1251
22679W        W38573   6.294   8.449   2.648  0.2407 -0.0915  0.0079
22680W        W38574   3.699  13.469   0.085  0.0199  0.0745 -0.5575
22681W        W38575   1.448   9.895  12.900  0.2124 -0.0564  0.1068
22682W        W38576   5.588  11.687  13.716  0.0833  0.3443  0.3119
22683W        W38577  12.601  12.559   5.945  0.0814 -0.4621 -0.0056
22684W        W38578  12.413   7.824   2.590  0.2150 -0.2169 -0.1250
22685W        W38579   2.884  13.922   0.353  0.2536  0.0709 -0.3070
22686W        W38580   4.737  14.430  14.724  0.4956 -0.3410 -0.2730
22687W        W38581  12.665  13.383   3.394 -0.1131 -0.1455 -0.1758
22688W        W38582  10.521  14.187  13.928  0.1056  0.0329  0.1340
22689W        W38583  11.386   1.783  15.739  0.0279  0.4124  0.1223
22690W        W38584   7.791   6.284   5.439 -0.1710  0.0342 -0.0440
22691W        W38585   1.853   8.014   1.485  0.1068  0.1959  0.1104
22692W        W38586  14.075  12.030   5.660  0.1841 -0.0863 -0.1321
22693W        W38587   4.052   8.132   1.505  0.2019  0.0821  0.1901
22694W        W38588  12.098  15.533  17.048 -0.0131 -0.1530  0.0819
22695W        W38589   4.009  17.429   1.937 -0.1060 -0.2493 -0.0302
22696W        W38590   8.596   3.887   2.566 -0.2117 -0.0217 -0.0787
22697W        W38591   0.932   9.519   4.330  0.2031 -0.4040 -0.2861
22698W        W38592  14.249   2.541  16.664 -0.1117 -0.0822 -0.1733
22699W        W38593   0.436   4.999   2.685  0.0005 -0.0642 -0.1726
22700W        W38594   1.010   7.366   2.947  0.3761  0.3639  0.1507
22701W        W38595  14.306  13.104   1.835 -0.0403 -0.0405  0.1163
22702W        W38596   2.138   2.548   3.467 -0.0818  0.1906  0.0850
22703W        W38597   2.201  14.679  11.720  0.2776  0.0152  0.1759
22704W        W38598  15.283   2.367  11.396  0.2916 -0.0560 -0.1020
22705W        W38599  12.348   7.767  14.857  0.1888  0.2288 -0.1747
22706W        W38600   1.323   8.400   2.306 -0.1575 -0.0138  0.0313
22707W        W38601  15.228   5.026   4.826 -0.1537  0.1229  0.0066
22708W        W38602  17.021   2.956  17.169 -0.1566  0.0312  0.0537
22709W        W38603  12.735  13.449   0.283 -0.0539  0.0802 -0.0077
22710W        W38604   6.930   0.255   0.398  0.0433  0.4875  0.0595
22711W        W38605   2.917   4.535  17.115  0.0336 -0.2489 -0.0264
22712W        W38606   5.668   4.913  15.218  0.1360  0.1924 -0.0459
22713W        W38607   8.969   9.253   3.771  0.2934  0.1618  0.0791
22714W        W38608   2.649   8.349   6.335 -0.1343  0.0751 -0.2358
22715W        W38609   0.571   7.187  16.582 -0.1825 -0.1048  0.1211
22716W        W38610   9.720   4.275   4.873 -0.1288  0.3293  0.0468
22717W        W38611   6.843   6.633   1.842 -0.1554  0.1858  0.2338
22718W        W38612   5.738  14.912  12.110  0.0675 -0.1480 -0.1257
22719W        W38613  12.631   8.311  11.233 -0.0821 -0.1442  0.0831
22720W        W38614  14.839  13.015   4.817  0.0743  0.0231 -0.0222
22721W        W38615   6.480   7.237   3.527 -0.0066  0.0936 -0.3243
22722W        W38616   0.326  10.877  13.406 -0.0042 -0.0376  0.0473
22723W        W38617   1.768  16.143   0.987  0.1924 -0.3237 -0.2212
22724W        W38618   2.244   0.888   3.907 -0.0773 -0.1754 -0.2066
22725W        W38619  15.718  14.879  13.947  0.1831  0.0640  0.0951
22726W        W38620   1.947  11.438   1.896  0.2095  0.0293  0.2298
22727W        W38621   5.380  11.256  13.448 -0.0125  0.2128  0.3273
22728W        W38622   3.956   3.768  15.539  0.0462 -0.2035  0.3384
22729W        W38623  11.530  10.491  12.894 -0.1685  0.2332 -0.1188
22730W        W38624   5.309  12.434  15.197  0.1195 -0.0398 -0.0848
22731W        W38625  15.704   6.972   5.482  0.1493  0.1318  0.0601
22732W        W38626   6.727   4.494   0.374  0.4077  0.0023  0.2398
22733W        W38627   3.206   1.216  13.916  0.3342 -0.2132  0.2240
22734W        W38628  14.754  13.962   1.815  0.0934  0.1601 -0.1011
22735W        W38629   4.603   7.376  14.686 -0.1025 -0.1463  0.1398
22736W        W38630  10.373   5.706   3.366 -0.1762  0.0663 -0.3379
22737W        W38631  16.706   2.140  16.664  0.0412 -0.0187 -0.0092
22738W        W38632   1.988  10.910   0.851  0.1179 -0.1554  0.1710
22739W        W38633  15.368   1.856   2.689 -0.0707  0.1105  0.0191
22740W        W38634  13.592  15.758  11.788 -0.0314 -0.1963  0.0214
22741W        W38635  16.410  12.170   1.926  0.0203  0.4460  0.2402
22742W        W38636   3.445   5.406  14.377  0.0400  0.2988  0.1272
22743W        W38637   4.565  12.662  12.089 -0.1747  0.0409 -0.0609
22744W        W38638   6.695   6.616  13.684  0.4816 -0.0501 -0.0493
22745W        W38639   0.872  12.461   3.554 -0.5604 -0.1608  0.0426
22746W        W38640  13.464  12.535   3.129  0.1190  0.2639  0.1461
22747W        W38641   0.797  14.762   0.336 -0.2449 -0.0515 -0.0507
22748W        W38642   3.758   4.409   4.369  0.1738  0.0020 -0.0342
22749W        W38643  13.266  11.013   5.830 -0.0845 -0.2128 -0.1649
22750W        W38644   0.036  13.926   3.418  0.2085  0.0224  0.0701
22751W        W38645  13.989  13.089   0.599 -0.1737  0.0394  0.2557
22752W        W38646  12.370   9.788  15.904  0.1344  0.0514 -0.4401
22753W        W38647   1.686  12.698   5.936 -0.0836  0.1563  0.1914
22754W        W38648   3.474   0.041  12.592  0.1435 -0.2032  0.2149
22755W        W38649  11.264  13.643   1.975  0.3965 -0.0717  0.0221
22756W        W38650   9.736   8.823  11.780  0.1078  0.1566  0.2244
22757W        W38651  10.393   2.946  14.598  0.0165  0.1343 -0.2007
22758W        W38652  16.984   4.085  13.137  0.0098  0.0032  0.1573
22759W        W38653  14.306   5.839  16.136 -0.1278  0.0125 -0.2170
22760W        W38654   3.503  16.968   1.787 -0.0697  0.0454  0.0484
22761W        W38655   6.636   0.519  15.424  0.3604 -0.0340  0.2343
22762W        W38656  16.158   0.230   1.041 -0.0957 -0.0943 -0.0971
22763W        W38657  15.283  16.213   2.176  0.1160  0.1446  0.0565
22764W        W38658   4.794   3.404  15.088  0.0312  0.0484  0.2464
22765W        W38659  10.107  12.191  15.524 -0.3636  0.0746  0.0682
22766W        W38660   3.567  11.896  12.459 -0.5125  0.0393  0.0684
22767W        W38661  10.869   0.089   1.788  0.1270  0.0951 -0.1955
22768W        W38662  13.116   9.535  17.088 -0.1198  0.0344 -0.0748
22769W        W38663   2.430   5.317   3.825  0.0071 -0.0067 -0.1100
22770W        W38664  11.341  10.137   0.614  0.1301 -0.0330 -0.0648
22771W        W38665  14.945   6.729  14.261  0.0140 -0.3851 -0.0820
22772W        W38666   2.988  11.272  11.006  0.3032  0.1876 -0.2564
22773W        W38667  10.537  12.319   2.005 -0.1217  0.1513  0.3752
22774W        W38668   3.972  12.301   1.880 -0.3017  0.0590 -0.0868
22775W        W38669  15.796  11.332  16.006 -0.3677  0.1240  0.5680
22776W        W38670   7.514  15.166   3.342 -0.0078 -0.1900 -0.1083
22777W        W38671   0.907  15.682  12.502  0.2441 -0.1812  0.0746
22778W        W38672  15.222   2.612  16.297  0.0837  0.0756  0.0320
22779W        W38673  14.112   4.778   5.304  0.0064  0.0417  0.0848
22780W        W38674   2.849   8.319  13.899 -0.1703 -0.0303  0.1037
22781W        W38675  14.637  14.513   1.881  0.0968 -0.2274 -0.0343
22782W        W38676  13.530   1.275   5.236  0.1465 -0.0274 -0.1889
22783W        W38677   6.879   6.607  14.193 -0.1822 -0.0891  0.0405
22784W        W38678   2.874   9.447  15.184  0.1395 -0.0084 -0.0045
22785W        W38679  16.047   7.262   1.996 -0.1997 -0.5030  0.0700
22786W        W38680  10.418   7.273  16.130  0.0837 -0.2690 -0.3133
22787W        W38681  14.668  10.158   1.136 -0.0757 -0.1843 -0.2507
22788W        W38682   4.078   4.885  14.054  0.0259 -0.1587  0.1141
22789W        W38683  14.594  16.755  16.264 -0.1746  0.0530 -0.1088
22790W        W38684  12.079   6.557  12.835  0.0185  0.1021  0.3111
22791W        W38685   2.111   2.380  14.587 -0.3458 -0.5083 -0.1096
22792W        W38686  14.994   5.702  12.750  0.2011 -0.2454  0.0621
22793W        W38687  15.625  16.531   0.608 -0.1443 -0.1518 -0.1091
22794W        W38688   6.258   3.397  14.745 -0.0651  0.1588  0.2799
22795W        W38689   8.486  15.932   3.455  0.0891  0.2215  0.1116
22796W        W38690  11.391   6.220   2.577 -0.2766 -0.1469  0.1051
22797W        W38691   7.840   1.226   3.507 -0.2322  0.2493  0.0687
22798W        W38692   4.924  12.711  15.912 -0.0569 -0.5496  0.0394
22799W        W38693  14.621  12.841   3.318  0.2656 -0.2604  0.3304
22800W        W38694   6.718  17.207  13.784 -0.2011 -0.0126 -0.1256
22801W        W38695  13.247   6.398  12.281 -0.0377 -0.0654  0.1221
22802W        W38696  13.978  17.211   1.737  0.1320 -0.0512  0.0501
22803W        W38697  10.100   0.467   0.577 -0.2096  0.0408 -0.0431
22804W        W38698   5.617  10.347  17.207 -0.1887 -0.0151  0.2022
22805W        W38699  15.094  15.677   3.879  0.2352  0.0018  0.4563
22806W        W38700  11.789  14.154  12.975  0.1726 -0.1778  0.2013
22807W        W38701   4.462  15.918   1.322 -0.2753  0.0257 -0.0960
22808W        W38702   8.063  11.204  15.849 -0.0771  0.1223  0.0022
22809W        W38703   7.158   0.846  14.634 -0.0814  0.0067  0.1504
22810W        W38704   5.323  17.278  16.991 -0.0250 -0.1080  0.0717
22811W        W38705  13.468  11.969   2.566  0.2816  0.1597  0.0765
22812W        W38706   7.351   8.046   1.690 -0.0274  0.0011 -0.1760
22813W        W38707  10.119   3.977  12.444 -0.0834  0.0349  0.3267
22814W        W38708  10.181  12.868  12.253  0.1927 -0.0610  0.1688
22815W        W38709   3.533  15.253  13.025  0.0012 -0.0330 -0.3244
22816W        W38710   9.451  12.775  15.443  0.0917  0.1116  0.2664
22817W        W38711   9.307   9.566   3.958  0.0798  0.0421  0.0504
22818W        W38712   8.205  11.911  17.112  0.0124 -0.2745  0.1902
22819W        W38713   5.213   3.630   4.039  0.3349 -0.4103  0.0309
22820W        W38714   2.018   0.288   0.069  0.0156  0.0337  0.3600
22821W        W38715   8.333  13.184  16.233 -0.0818 -0.0965 -0.0502
22822W        W38716  11.814   2.830  12.125  0.2140 -0.0948  0.0619
22823W        W38717  16.580  15.988   3.712 -0.1015  0.0794 -0.0298
22824W        W38718  16.184  16.376  17.143  0.0613  0.2193  0.3438
22825W        W38719  15.387   4.871  14.512  0.0806 -0.0963  0.0348
22826W        W38720  10.816  12.228   1.587 -0.1281  0.1265 -0.0780
22827W        W38721   9.116   1.185  12.654  0.1494  0.0881  0.1288
22828W        W38722   7.913  13.445   3.580  0.2489 -0.3504  0.2486
22829W        W38723  16.004  16.384   0.358  0.2687  0.1828 -0.0274
22830W        W38724  17.536  17.016  13.991 -0.0063  0.0762 -0.4281
22831W        W38725   2.550  15.661   4.947 -0.1236 -0.2054  0.0972
22832W        W38726   4.223  11.836  13.570 -0.2587  0.1305  0.2253
22833W        W38727  13.360   1.117  15.535 -0.3247  0.0593  0.0287
22834W        W38728   2.930  14.405   2.427 -0.1191 -0.1703  0.0845
22835W        W38729   0.870  14.281   0.101  0.3742 -0.3508 -0.2326
22836W        W38730   7.030   2.689   4.112  0.1047 -0.0723  0.2774
22837W        W38731  13.802  15.648   3.239  0.0132 -0.0968  0.0201
22838W        W38732   4.420   2.074   4.238 -0.1235 -0.0490  0.2563
22839W        W38733  14.915   0.638  12.755 -0.0646  0.1847  0.1256
22840W        W38734   4.854  12.066   4.032  0.0030  0.3546  0.0695
22841W        W38735   8.314   6.596  16.320 -0.0212 -0.0710 -0.1834
22842W        W38736  10.890   7.054  11.595 -0.1361  0.0512  0.0544
22843W        W38737   3.985  12.064   2.329  0.0139  0.1428  0.0319
22844W        W38738   5.706  11.448   1.749 -0.0458  0.0358 -0.1878
22845W        W38739   0.544   9.305   0.691  0.4361 -0.1143  0.0737
22846W        W38740   9.660   3.124  12.700 -0.0917 -0.0148  0.2124
22847W        W38741   1.632  11.779  16.740 -0.2763 -0.0933  0.0525
22848W        W38742  11.036  16.537  15.986 -0.0221  0.2575 -0.1229
22849W        W38743  17.020   1.632   3.026 -0.0799  0.1790 -0.0501
22850W        W38744  15.058   7.311   1.625  0.1554  0.0686 -0.0006
22851W        W38745  17.508   9.890   4.841 -0.3657  0.1080 -0.0908
22852W        W38746   9.278   7.398  16.606  0.1004 -0.1849 -0.2654
22853W        W38747   3.587   9.833  12.953 -0.0868  0.1905  0.1000
22854W        W38748   7.564   7.490   4.971 -0.0893 -0.0136 -0.1425
22855W        W38749   7.391  17.620   2.689 -0.0328 -0.4324 -0.2783
22856W        W38750   7.066  11.783  15.599 -0.3865  0.2033  0.2908
22857W        W38751  14.184  12.063  13.328 -0.0441 -0.2858  0.1360
22858W        W38752   8.080   0.472   0.768  0.0161 -0.0089  0.1254
22859W        W38753  17.206  13.305  12.252  0.1622 -0.0402 -0.0276
22860W        W38754   4.799  11.500  14.617  0.2151  0.0549 -0.0987
22861W        W38755   8.783  15.470   1.025  0.3141  0.1982  0.0413
22862W        W38756  10.077   6.585   0.178  0.1734 -0.2100  0.1098
22863W        W38757   0.341   9.937   2.649 -0.3556  0.0274  0.0115
22864W        W38758   6.011   8.319   4.764  0.0283  0.1681  0.0102
22865W        W38759   6.191  16.242  15.207 -0.3497  0.2393 -0.0726
22866W        W38760   0.366   2.371  16.745 -0.0670  0.2523 -0.0271
22867W        W38761  11.914  17.024   1.251 -0.0025  0.0861 -0.0303
22868W        W38762  17.010  14.771   5.620 -0.0526 -0.0513  0.2324
22869W        W38763   8.666   3.345   1.866 -0.1100  0.2394 -0.3029
22870W        W38764   3.111   9.781   5.653 -0.0233 -0.0063 -0.1736
22871W        W38765  12.164  10.901  13.899 -0.1050 -0.1655 -0.3130
22872W        W38766   2.664   4.004   2.641 -0.2991  0.0954 -0.1446
22873W        W38767  16.984   6.787   2.091  0.3191 -0.1197  0.0192
22874W        W38768   6.044   1.925   3.516 -0.1601 -0.1691 -0.2042
22875W        W38769   1.989   8.587   4.556 -0.1551 -0.0920  0.0242
22876W        W38770  15.684  14.532   4.859  0.0873 -0.0735 -0.1422
22877W        W38771  17.016  10.641  13.270 -0.0284 -0.1645  0.2159
22878W        W38772  11.028  12.308  12.710 -0.1001 -0.1169 -0.1265
22879W        W38773  10.820   9.452  16.811 -0.0496 -0.0709  0.0531
22880W        W38774  14.117  12.508  11.394  0.1714  0.0459 -0.2558
22881W        W38775   5.703  12.177  14.436 -0.1372  0.2284  0.1118
22882W        W38776  10.786   4.017  12.925 -0.0112 -0.1266 -0.3532
22883W        W38777  17.172  16.267   3.014  0.3956 -0.2734 -0.4621
22884W        W38778  11.727   4.956   4.457 -0.0904 -0.0553 -0.2063
22885W        W38779   9.533  10.802   2.370  0.2313  0.0492  0.1205
22886W        W38780   1.189  11.798  16.318  0.1999  0.0503 -0.2394
22887W        W38781  12.793  17.053   5.622  0.0106  0.2235  0.0514
22888W        W38782  16.238  11.196  16.799 -0.0637  0.0249 -0.2035
22889W        W38783   6.279   7.012  15.850  0.2311 -0.2791 -0.0090
22890W        W38784  15.736   6.517  13.914  0.1000 -0.1664  0.1834
22891W        W38785   7.466   4.794   2.773 -0.2052  0.1668 -0.1435
22892W        W38786   6.545   1.520   6.387 -0.0019 -0.0068  0.2574
22893W        W38787   4.342   9.596   5.990  0.2514  0.3921  0.2459
22894W        W38788  16.948   1.805   1.274  0.3342 -0.2221 -0.3086
22895W        W38789  11.494  10.371  14.549  0.2243 -0.0959  0.1386
22896W        W38790   9.861   6.510  15.212 -0.0291  0.0003  0.0269
22897W        W38791  12.376  11.465  17.184 -0.0638 -0.1665 -0.2465
22898W        W38792  11.718   1.410  12.769  0.6100 -0.2447 -0.0877
22899W        W38793  16.360  14.003  17.146  0.0327 -0.1320 -0.3198
22900W        W38794   2.568  14.146   3.213  0.5268  0.0423 -0.0170
22901W        W38795   5.148  12.989   4.549 -0.1370  0.2167  0.0014
22902W        W38796  11.864   4.152  14.846 -0.1526  0.1280 -0.2031
22903W        W38797  12.745   2.405   2.776  0.0415 -0.1305 -0.0698
22904W        W38798  10.262  12.954   2.863  0.1519 -0.1636  0.1991
22905W        W38799  16.041  13.420   2.913  0.0701  0.2069 -0.0652
22906W        W38800  17.160   2.844   4.287 -0.2004  0.0277  0.0542
22907W        W38801  11.331   7.554  12.238  0.1285  0.3293 -0.2851
22908W        W38802   2.924  16.926   1.069 -0.3163  0.1266 -0.2265
22909W        W38803   3.057  10.713   5.884 -0.1109  0.0377 -0.1664
22910W        W38804  15.006   3.083  16.902 -0.2732 -0.1371 -0.2025
22911W        W38805   9.759   8.364  12.138  0.0092  0.0516 -0.2579
22912W        W38806   7.256   7.447   0.843  0.1275  0.1667  0.0107
22913W        W38807   9.237   1.316  15.576 -0.1773 -0.1276  0.2663
22914W        W38808   4.932  13.528   1.779 -0.0036 -0.0610  0.2574
22915W        W38809   5.021   2.035  12.457 -0.0564  0.2748 -0.2637
22916W        W38810   5.335   7.319   1.001  0.2228 -0.0541 -0.2292
22917W        W38811   7.518   9.230  13.506 -0.1967 -0.2154  0.1327
22918W        W38812  14.649  15.645  13.772  0.0627 -0.1270 -0.1915
22919W        W38813   7.970   3.579   5.050 -0.0072 -0.0417 -0.4427
22920W        W38814   2.473   6.798   6.024 -0.0849  0.0659  0.0264
22921W        W38815   7.129  13.735   1.007  0.0382  0.1254 -0.0529
22922W        W38816  10.715   1.362   2.309 -0.2133  0.1620 -0.0870
22923W        W38817   0.844   1.948   1.370 -0.3030  0.3587 -0.1093
22924W        W38818  16.787  14.005   3.717  0.3243  0.1703 -0.2375
22925W        W38819   0.522  15.811   0.939 -0.0201 -0.1365  0.1218
22926W        W38820  12.155   5.993   2.908 -0.2045  0.0107  0.2661
22927W        W38821   6.960   3.551   0.239 -0.1520 -0.1275 -0.2064
22928W        W38822   0.837   2.062  16.955  0.0199 -0.1088  0.0878
22929W        W38823   9.048  10.867  14.800  0.2309 -0.0961  0.1578
22930W        W38824  16.007   0.107   1.519 -0.2812 -0.0282 -0.3813
22931W        W38825   4.656   4.264   0.851 -0.0099  0.2720 -0.1064
22932W        W38826   6.265   6.152   4.257 -0.1829 -0.0480  0.1576
22933W        W38827  11.111  10.790   4.511 -0.0091 -0.0771 -0.2286
22934W        W38828  10.630   0.511   0.511 -0.2204  0.0981  0.2151
22935W        W38829   4.668  14.330  12.439 -0.0396 -0.2877 -0.1818
22936W        W38830  16.046  13.064   2.138  0.0301  0.0139  0.1149
22937W        W38831  15.001   0.259   3.499  0.0108 -0.0124 -0.0607
22938W        W38832   3.924   0.528   6.808 -0.0353  0.2209 -0.1926
22939W        W38833   9.524   7.874   3.991  0.1366  0.0944 -0.1728
22940W        W38834   2.368   0.714  15.613  0.1407  0.1133 -0.0413
22941W        W38835   5.722  12.434   1.746 -0.0611  0.0172  0.0388
22942W        W38836   1.489  12.261   1.882 -0.1882 -0.0670 -0.0513
22943W        W38837   2.901  10.663   2.184 -0.1841 -0.1231 -0.0294
22944W        W38838   7.155  13.072   5.092  0.1233 -0.0315  0.0285
22945W        W38839  15.197   8.181   1.531 -0.0482  0.3265  0.0740
22946W        W38840  12.691   4.027   4.385  0.2621  0.1093  0.0740
22947W        W38841  13.709   3.092  15.051 -0.0161 -0.4027 -0.0510
22948W        W38842  17.586  12.183  13.909 -0.2800  0.0420  0.1482
22949W        W38843   3.046   5.698   2.041  0.1744  0.2059  0.1100
22950W        W38844   0.317   4.350   4.621  0.2312 -0.0950  0.2419
22951W        W38845   4.101  11.646   0.037 -0.1097 -0.0408  0.0737
22952W        W38846   3.298  10.973   2.221 -0.0560  0.1963  0.2463
22953W        W38847  14.625   7.726  14.893 -0.1556  0.3416  0.1382
22954W        W38848  11.529   2.588   0.665 -0.0986  0.0644 -0.0455
22955W        W38849  11.616   2.541  14.170 -0.0577  0.1046  0.2267
22956W        W38850   7.263  10.224   2.909  0.2293  0.2775 -0.1822
22957W        W38851  16.631   8.618  15.314  0.1223  0.4555  0.0067
22958W        W38852  15.411  11.190  13.941  0.0890 -0.1366  0.1962
22959W        W38853  10.857  13.255   4.858 -0.0242  0.0720  0.0309
22960W        W38854   0.792   2.058  15.133 -0.0424  0.0178  0.0139
22961W        W38855   4.511  12.709   1.033 -0.0785 -0.1828  0.0967
22962W        W38856  13.943  15.866   5.633  0.0727 -0.1318  0.3249
22963W        W38857   3.233   5.239   0.179 -0.4012  0.0746 -0.2956
22964W        W38858   3.675   6.589   1.651 -0.1571  0.1151  0.0301
22965W        W38859   2.566  10.254   3.834  0.1018  0.0826 -0.1557
22966W        W38860  15.827  13.772  14.629  0.1668 -0.2028 -0.2176
22967W        W38861  15.460   2.197   2.320 -0.0651  0.1461 -0.1832
22968W        W38862  13.763  11.203   5.336 -0.0467 -0.1494 -0.0191
22969W        W38863   4.114  17.255   4.708  0.1222  0.1015  0.1888
22970W        W38864   5.675   6.735   0.344 -0.0178 -0.1159  0.0371
22971W        W38865  13.254  10.440  13.246 -0.0666 -0.0461 -0.1464
22972W        W38866   9.019  17.221   4.151 -0.2961  0.2557  0.0070
22973W        W38867   7.902  15.748  16.621 -0.3094  0.2255 -0.2698
22974W        W38868   2.115   9.915  12.188  0.0621  0.0684  0.2965
22975W        W38869  10.748   2.394   4.869  0.4595  0.1371  0.0794
22976W        W38870   7.422   1.272  14.364  0.0406  0.0604 -0.0197
22977W        W38871   0.498   8.107  14.694 -0.1318  0.0979  0.0588
22978W        W38872  16.323   7.955  11.283  0.0105  0.0172  0.0724
22979W        W38873   3.316   6.217  12.782 -0.0506  0.1537 -0.2311
22980W        W38874  15.501  11.477  12.100 -0.1074 -0.2666  0.0219
22981W        W38875  11.652  10.510  11.137  0.1926 -0.0033 -0.2295
22982W        W38876  11.295   3.507  16.655  0.0297 -0.0399 -0.3531
22983W        W38877  13.249  10.596   3.924 -0.2631 -0.3673  0.0001
22984W        W38878   7.673   6.269   1.664 -0.1650  0.1450 -0.2062
22985W        W38879  11.145   4.041  12.590  0.0652 -0.1136  0.1509
22986W        W38880   7.595   2.678   1.178 -0.0565  0.2180  0.1053
22987W        W38881   5.401  15.720  16.761 -0.0018  0.0959  0.2291
22988W        W38882   9.098   8.486   1.596  0.1925  0.1053 -0.1990
22989W        W38883   4.335  16.643  13.159  0.2022  0.1135  0.0777
22990W        W38884  10.254  10.743  15.353  0.2902 -0.0048  0.0577
22991W        W38885   8.832  10.115   2.757  0.4414 -0.2285 -0.1686
22992W        W38886   9.564  13.212  14.675  0.1329  0.2054 -0.0958
22993W        W38887  16.386  13.944  14.364  0.0364  0.3251  0.1170
22994W        W38888  11.103   8.413  14.094 -0.4658 -0.1103 -0.0868
22995W        W38889  11.339  11.379   0.188  0.0687 -0.1638 -0.3800
22996W        W38890   3.847   7.962  12.796 -0.2841  0.0902 -0.1147
22997W        W38891  13.846  14.166   2.057 -0.2932  0.4173 -0.2306
22998W        W38892  12.735  17.106  16.284  0.1981 -0.1980  0.4020
22999W        W38893   9.600  12.272  14.018 -0.1449  0.0161  0.1344
23000W        W38894   1.827  16.942   2.093 -0.2420  0.1488  0.2192
23001W        W38895  10.293   9.748   5.642  0.0247  0.0307 -0.0161
23002W        W38896  11.162  14.492  12.528 -0.0487  0.0212  0.2165
23003W        W38897   2.026  14.485  14.549  0.0417  0.0285  0.0101
23004W        W38898   5.640   8.700   3.860  0.1138 -0.0474 -0.4889
23005W        W38899   6.599  11.676  14.113  0.2789 -0.0871 -0.3106
23006W        W38900  17.017  12.819  15.996  0.2171 -0.1548  0.1003
23007W        W38901   0.473  12.602  16.488  0.0915 -0.0136  0.0467
23008W        W38902  10.415  12.191  17.117 -0.3256  0.2189  0.2637
23009W        W38903   4.623  16.011  14.352  0.1808 -0.0444  0.2875
23010W        W38904   8.024   1.373  16.176 -0.2669 -0.0864  0.0447
23011W        W38905  16.842  16.705  14.278 -0.0523  0.0245  0.3317
23012W        W38906  10.660  16.546   5.683  0.3395 -0.0285  0.1715
23013W        W38907   3.760   0.475  12.449  0.0314 -0.0056 -0.0690
23014W        W38908   8.939  12.994  12.671 -0.0152 -0.1697  0.1231
23015W        W38909  14.737  12.141  15.772  0.1251  0.4214  0.1325
23016W        W38910  11.057   3.722  15.674 -0.2292  0.1154 -0.0905
23017W        W38911   1.315   4.877   4.182 -0.0772  0.0513 -0.1720
23018W        W38912   5.305  13.095  16.945 -0.1097 -0.2349  0.1018
23019W        W38913   8.921   0.365  11.637  0.0682 -0.0537 -0.1038
23020W        W38914  15.950  17.170  17.200  0.3945 -0.1899 -0.3726
23021W        W38915   5.212  10.717  11.638 -0.4930  0.2561 -0.0155
23022W        W38916   0.871   9.895  12.754  0.1171 -0.0506 -0.0825
23023W        W38917  12.103  16.048   0.836  0.1874  0.0586  0.0212
23024W        W38918  12.882  17.401  15.080 -0.0066  0.1570  0.1798
23025W        W38919  10.414  17.514  16.536  0.3397  0.0076 -0.0215
23026W        W38920  16.879  15.100  13.517  0.0746  0.0017  0.0059
23027W        W38921  17.515  16.488   5.470 -0.1127  0.2099  0.0613
23028W        W38922   0.885  15.259  14.647  0.1491 -0.1227  0.1044
23029W        W38923   6.848   1.416  15.132 -0.2397 -0.2803 -0.2382
23030W        W38924  13.352   1.025  12.966 -0.2843  0.1980  0.0375
23031W        W38925  16.672   8.818   4.638  0.3113  0.1221 -0.0398
23032W        W38926  11.280  15.000  15.523  0.0588  0.3015  0.1289
23033W        W38927   3.901   6.789  12.175  0.2016  0.1178 -0.0800
23034W        W38928  12.605  11.441   1.994  0.1922 -0.0338 -0.0252
23035W        W38929   7.801  16.915   1.279 -0.1612 -0.1280 -0.1608
23036W        W38930  12.876   7.183   2.659 -0.2089  0.3115 -0.2449
23037W        W38931   1.304   0.980   1.230  0.1522  0.0815 -0.2182
23038W        W38932  15.163   2.047   4.005 -0.1086  0.0456  0.1021
23039W        W38933  10.031   8.242   1.835 -0.0579 -0.2119 -0.0818
23040W        W38934  16.220   7.859   3.513  0.0404  0.1932 -0.0253
23041W        W38935  15.457  16.913  12.102 -0.0552  0.2241  0.3737
23042W        W38936  16.608   9.640   2.542  0.1869 -0.0318 -0.2705
23043W        W38937   9.154   2.112  12.021  0.2739  0.4063 -0.2342
23044W        W38938  16.624  10.174  15.049 -0.3265  0.0110 -0.0802
23045W        W38939   7.184   3.575   2.962 -0.1437 -0.2728  0.0468
23046W        W38940  12.794   4.618  14.057 -0.5936 -0.2325 -0.0163
23047W        W38941  13.229   0.210  14.832 -0.1016  0.0293 -0.1632
23048W        W38942   6.629   9.448   4.985 -0.3935  0.2457  0.2421
23049W        W38943  10.549  16.917   5.239  0.1413 -0.3337  0.2878
23050W        W38944  10.955   0.761  12.943  0.0272  0.0056 -0.0513
23051W        W38945   5.118   8.438  13.820 -0.0312 -0.1983 -0.0354
23052W        W38946   5.654   9.265   3.801  0.1531 -0.1447  0.0441
23053W        W38947  16.249   3.841   5.235  0.0377  0.3535 -0.1059
23054W        W38948   3.743  13.972  14.770  0.0816 -0.0341  0.0498
23055W        W38949   5.691   7.583   3.079  0.0888 -0.1864 -0.2083
23056W        W38950  17.390   0.839   2.236 -0.3015  0.2700 -0.1592
23057W        W38951   7.630   7.179   0.620  0.1071  0.1802  0.0317
23058W        W38952   5.379   3.955  12.283  0.0358 -0.2591  0.0551
23059W        W38953   6.095   9.331   5.156  0.3380 -0.3534 -0.3949
23060W        W38954   7.067   9.408   4.577 -0.0687  0.0824  0.1001
23061W        W38955   3.173  13.720   4.814 -0.0217 -0.0052 -0.3567
23062W        W38956   1.709  15.206   1.146 -0.1468 -0.0064  0.0075
23063W        W38957  13.480   5.446  12.564  0.1091  0.2207  0.1115
23064W        W38958   3.788   9.889   4.913 -0.0154 -0.1725 -0.3561
23065W        W38959   3.287  17.203   3.422 -0.0546  0.2794 -0.1455
23066W        W38960  15.652   9.392  16.383  0.3316 -0.1277  0.1314
23067W        W38961  14.856   7.546  16.278 -0.1320 -0.1066 -0.1180
23068W        W38962   0.307  10.292   6.178 -0.1756 -0.1295  0.1624
23069W        W38963   9.845   9.651  12.864  0.2154 -0.1529  0.1202
23070W        W38964   3.488  10.743  13.032  0.0647  0.0624 -0.1684
23071W        W38965   4.322  14.912  15.657  0.2467  0.1899 -0.3505
23072W        W38966  13.205  14.624   0.981 -0.1474  0.2328  0.2543
23073W        W38967   3.011  11.306  13.800  0.0571 -0.0838  0.2199
23074W        W38968   9.351   4.163  14.177 -0.0111  0.1990 -0.0610
23075W        W38969   7.612   5.229  16.688  0.0406 -0.0341 -0.0974
23076W        W38970  15.026   4.869  11.870 -0.0303 -0.2056  0.1520
23077W        W38971  14.758  12.999  16.526 -0.2229  0.2496 -0.1298
23078W        W38972   0.307  15.390  16.686 -0.3137  0.1566  0.1127
23079W        W38973   6.983   9.390  16.030  0.1710  0.1716  0.1779
23080W        W38974  16.216  10.559  12.069 -0.2608  0.0104  0.1418
23081W        W38975  14.730   9.220  12.632 -0.0592 -0.0378 -0.0337
23082W        W38976   4.869   1.362   5.297 -0.1210  0.1540 -0.1767
23083W        W38977  14.434   0.159  12.413 -0.0639  0.0482  0.0827
23084W        W38978   3.036   3.220   1.284  0.1713 -0.2903  0.2501
23085W        W38979  17.271  11.100   6.230  0.1964 -0.0499 -0.2460
23086W        W38980  12.163   3.151   2.033 -0.0471 -0.3235  0.2056
23087W        W38981  17.381  12.235   5.014  0.0072 -0.2625  0.0191
23088W        W38982  12.991   9.096  12.841 -0.1228  0.1175 -0.1004
23089W        W38983   1.899   0.471  12.674 -0.0068  0.3109 -0.0016
23090W        W38984  15.541  15.323   4.670 -0.3521  0.2705  0.0858
23091W        W38985   6.785   5.719  16.603 -0.2480 -0.0196 -0.0322
23092W        W38986   0.422  13.116   0.635  0.2213  0.2644  0.1185
23093W        W38987  14.134   2.839  11.741  0.2579 -0.3330 -0.2425
23094W        W38988  10.720   8.909  14.918  0.2427  0.3158 -0.1689
23095W        W38989  14.323  16.619  14.191  0.2855  0.0402 -0.2770
23096W        W38990   0.768   8.970  14.600  0.0200  0.1451  0.1859
23097W        W38991   2.801   4.318   4.898 -0.1214  0.0807  0.1514
23098W        W38992   6.212   9.911  12.594  0.3114  0.0326 -0.2807
23099W        W38993   8.384  15.100   1.117 -0.1246  0.0791 -0.1127
23100W        W38994  17.169  13.441  12.803  0.1199  0.0737 -0.0766
23101W        W38995   5.695   0.910   3.261 -0.1875  0.1293  0.1793
23102W        W38996   4.998  10.551  13.514 -0.0312  0.0017  0.1775
23103W        W38997  16.654  14.344  13.693 -0.0700 -0.0515 -0.1230
23104W        W38998   2.135  14.915   3.781  0.0773  0.1311 -0.0878
23105W        W38999   2.068   5.923  15.533 -0.1859  0.0662  0.2000
23106W        W39000  13.181   4.234  15.525  0.1872 -0.0411 -0.1564
23107W        W39001   6.015   2.570  12.822  0.3774  0.1173 -0.3309
23108W        W39002   8.074  13.047   2.446  0.3529 -0.3674 -0.1156
23109W        W39003   1.030   1.864   3.264 -0.0582 -0.2566 -0.2175
23110W        W39004  17.006   3.540   3.759  0.2147  0.0436  0.0049
23111W        W39005  11.654  14.643  12.345 -0.1475  0.0843  0.1234
23112W        W39006   8.457   4.461   5.689  0.2975  0.0319  0.2269
23113W        W39007   3.784  14.160  15.234 -0.0984  0.2277  0.1866
23114W        W39008   9.053  14.484  16.368 -0.0866  0.1140  0.0713
23115W        W39009   4.767  15.443   3.712  0.1234 -0.2412 -0.1288
23116W        W39010   5.272   4.673  15.292  0.3006 -0.0383 -0.3956
23117W        W39011  12.605   5.352  13.339 -0.0699 -0.0728  0.0721
23118W        W39012  15.579   2.611   0.159 -0.2024  0.0841  0.0159
23119W        W39013  16.592   6.784  13.029  0.0510 -0.1544 -0.0434
23120W        W39014   9.975  14.476   0.493 -0.0929  0.3675 -0.0799
23121W        W39015   9.429   0.680   4.964 -0.1458 -0.0626 -0.0716
23122W        W39016   3.876   3.484   4.321 -0.1668  0.1424 -0.0972
23123W        W39017   4.555   4.430   3.970 -0.0984 -0.1123 -0.0830
23124W        W39018  14.551  13.744  12.056 -0.0921 -0.1628 -0.0316
23125W        W39019   3.409  12.948   1.784  0.0777  0.1268  0.1149
23126W        W39020  17.279  10.835  14.003  0.5128 -0.1499 -0.1601
23127W        W39021  15.942   6.246  12.505 -0.1329  0.0452 -0.5572
23128W        W39022  13.009   0.358  15.940 -0.2764  0.0962 -0.0331
23129W        W39023  13.377  13.002   2.891 -0.0787  0.5253  0.1937
23130W        W39024   5.551  17.134   4.455 -0.1348  0.4635  0.2148
23131W        W39025  12.325  14.063  13.235  0.0673  0.2438 -0.0267
23132W        W39026   9.458  11.874   1.279  0.0690  0.0028  0.4386
23133W        W39027   4.593   2.230   1.443  0.1709  0.0176 -0.0938
23134W        W39028   0.034  14.968   2.892  0.1536 -0.0530  0.2809
23135W        W39029  11.298  11.853   3.120  0.1827 -0.1941  0.2458
23136W        W39030   2.074  11.495   4.318 -0.0378  0.2841 -0.1641
23137W        W39031   2.188   9.668  12.674 -0.4171 -0.1482  0.2239
23138W        W39032   5.910   7.123   0.038  0.2690  0.1645  0.1020
23139W        W39033  12.963   2.479   1.778 -0.0607  0.1323 -0.0785
23140W        W39034   1.146   3.007   0.362 -0.1600  0.2675  0.4334
23141W        W39035   4.663  16.673  11.283  0.1376  0.1135  0.1355
23142W        W39036   6.492   8.192   5.046 -0.0247  0.4162 -0.1334
23143W        W39037   6.625  12.838  16.837 -0.1867 -0.1495  0.1459
23144W        W39038   0.438   8.690   6.763 -0.1119  0.0883 -0.0502
23145W        W39039   5.183   4.919   4.340 -0.0712 -0.0620  0.0176
23146W        W39040   6.420   3.894  12.445 -0.1424 -0.0150  0.0195
23147W        W39041  15.295   7.321   5.663  0.0600  0.4279  0.3248
23148W        W39042  13.935   8.603   1.901 -0.0899 -0.2437 -0.1336
23149W        W39043   3.998   7.953   5.915 -0.1732 -0.3874 -0.1660
23150W        W39044   9.315   7.386  11.468 -0.1895 -0.0067  0.0800
23151W        W39045   1.460   0.939  17.177  0.0816 -0.1482  0.1451
23152W        W39046   6.471   3.054   2.249 -0.0267 -0.0340  0.2871
23153W        W39047   4.754  14.942   4.997  0.3886 -0.1625  0.0237
23154W        W39048   2.051  14.713   2.038  0.4309 -0.0151 -0.1636
23155W        W39049  12.609   7.944   4.349 -0.0498 -0.1065  0.0857
23156W        W39050  11.604   5.405   4.247 -0.0942 -0.0269  0.0905
23157W        W39051   4.695  15.519   6.329  0.0298  0.1003 -0.1582
23158W        W39052   6.208   1.963  13.746 -0.0647  0.0908 -0.2474
23159W        W39053   1.495   1.270  12.824  0.1104  0.1120  0.1325
23160W        W39054  14.221   5.144   6.266 -0.0113  0.0515  0.0237
23161W        W39055  12.835  14.465   0.679  0.2032 -0.0274 -0.0154
23162W        W39056  10.966   8.075  14.908  0.1316  0.0053  0.2074
23163W        W39057  13.512   4.049  16.087 -0.1327 -0.2489  0.5707
23164W        W39058  16.057   4.958  12.109 -0.2560 -0.3868 -0.0780
23165W        W39059  14.829  15.679   5.633 -0.2436  0.0304 -0.1284
23166W        W39060   5.555  13.267   4.674 -0.0545  0.3836  0.1368
23167W        W39061  14.252   6.745  15.025  0.2766  0.2172 -0.0131
23168W        W39062  17.254  10.163   1.888 -0.1523  0.3221 -0.2781
23169W        W39063   8.949   1.765  16.084 -0.0912 -0.1571 -0.1991
23170W        W39064   2.037  14.577  14.035 -0.1271 -0.0911  0.1302
23171W        W39065   1.237   0.407  16.321 -0.0351 -0.0726  0.0271
23172W        W39066  17.369   6.905   4.403  0.0376 -0.1958 -0.0320
23173W        W39067   6.879   9.635  16.963 -0.0173  0.0941  0.3041
23174W        W39068   9.704   5.312  14.981  0.0591  0.0198  0.2149
23175W        W39069   6.069  15.799   2.989 -0.2000 -0.2526 -0.0479
23176W        W39070  14.657   5.240   1.990 -0.3153 -0.2492 -0.2124
23177W        W39071   0.319  13.056  16.724  0.1419 -0.0040 -0.0923
23178W        W39072   2.878  14.530   5.262  0.2737 -0.0167  0.3189
23179W        W39073   5.228  15.480   2.680 -0.0775 -0.1033  0.0032
23180W        W39074   9.964   3.243  13.606  0.1506  0.0586  0.2437
23181W        W39075   2.161  15.468   1.446 -0.1622  0.1800 -0.0451
23182W        W39076  13.594   5.068   1.176  0.1199 -0.1399  0.4087
23183W        W39077   3.034   3.330   0.529 -0.1043  0.1604 -0.1264
23184W        W39078  14.554   4.662   3.392  0.3288 -0.1421 -0.3350
23185W        W39079   2.725  14.165   4.944 -0.0814 -0.0468 -0.2820
23186W        W39080   5.533   9.652   2.353  0.0533  0.1434 -0.2114
23187W        W39081   9.067  12.178  16.988 -0.0893  0.0149 -0.1068
23188W        W39082   9.048  13.098  17.052 -0.0463  0.0046  0.0320
23189W        W39083   4.918   9.454   1.645 -0.1996 -0.2487  0.0233
23190W        W39084   3.506   2.407   1.352  0.1456 -0.2230  0.0340
23191W        W39085   7.422  11.448  11.831  0.3668 -0.2467 -0.1369
23192W        W39086   2.281   0.318   4.075 -0.3619 -0.0430  0.4125
23193W        W39087   4.359   9.618  14.110 -0.0085 -0.2599  0.3623
23194W        W39088  12.583   6.777   4.767 -0.0980 -0.0196  0.0539
23195W        W39089   6.574   9.976   5.067 -0.0042 -0.1848 -0.0622
23196W        W39090   9.352  16.292  12.592 -0.0342  0.1415  0.2536
23197W        W39091  17.576   0.599  15.815 -0.2110  0.1438  0.2758
23198W        W39092  16.972   8.553  12.752  0.0153 -0.0197 -0.3435
23199W        W39093   2.789  15.149  12.500  0.0099  0.2154  0.0944
23200W        W39094  17.440   2.608   6.468  0.0840 -0.0421  0.1811
23201W        W39095  16.393   0.727  13.310 -0.1917  0.4346 -0.0127
23202W        W39096  13.545  16.505  12.190 -0.0568 -0.0294  0.1781
23203W        W39097  11.696  15.688   1.600 -0.1274  0.0349  0.0520
23204W        W39098  13.647  11.064   2.558  0.1714  0.0208 -0.1292
23205W        W39099   8.325   1.546  13.957 -0.2046  0.2267 -0.1186
23206W        W39100  10.529  10.889   2.851  0.0687 -0.1656 -0.2865
23207W        W39101  15.951  14.673   6.050  0.0608  0.3209 -0.1457
23208W        W39102   0.791   2.271   0.104 -0.0766 -0.0725  0.2515
23209W        W39103   7.379  17.050   1.570  0.3676  0.1255 -0.1726
23210W        W39104  11.605   3.357  15.739 -0.0212 -0.1779 -0.0847
23211W        W39105  14.794   7.878   5.199  0.0649 -0.1765  0.1204
23212W        W39106  14.797  12.752  14.999  0.3377 -0.0259 -0.2178
23213W        W39107  16.651   9.883  14.134 -0.2420  0.1796  0.0511
23214W        W39108  12.869  11.999  14.707  0.0712 -0.0516  0.0824
23215W        W39109   3.010   9.870   4.567 -0.1213  0.1278 -0.0520
23216W        W39110   0.067   8.744  12.293  0.3610  0.0666 -0.0345
23217W        W39111  15.433  17.498   5.690 -0.2648 -0.1047 -0.0968
23218W        W39112  15.642   7.838  12.065  0.0014  0.0262 -0.0600
23219W        W39113  17.477   1.780   2.643  0.0712  0.1364 -0.0690
23220W        W39114   9.547   0.790  13.993 -0.0036 -0.2404  0.2020
23221W        W39115  17.565   3.389   4.735 -0.2326 -0.0872  0.2634
23222W        W39116   5.427  15.715  13.321  0.3033  0.1522 -0.1397
23223W        W39117  12.715   9.759   1.937 -0.0716  0.2550 -0.0790
23224W        W39118   3.269  17.223   4.967  0.1700  0.3148 -0.3529
23225W        W39119  13.925   0.906  16.743  0.0144 -0.2652  0.1146
23226W        W39120   0.145   7.275  13.220  0.1749 -0.1904 -0.0088
23227W        W39121   1.044   7.457   3.518  0.0326  0.1151  0.0168
23228W        W39122  12.072  11.513  15.727  0.1180 -0.1831  0.2955
23229W        W39123  11.086   1.762   3.633  0.0638  0.0582 -0.1537
23230W        W39124   0.788   3.652   1.637 -0.1365  0.0111  0.0006
23231W        W39125   3.330   7.348  16.635 -0.0823 -0.0460  0.0857
23232W        W39126  13.558   1.825   5.597 -0.0756  0.0534  0.1798
23233W        W39127  15.863   6.527  12.066 -0.2299  0.2655  0.1188
23234W        W39128  10.769  15.567   5.757  0.2027  0.0349 -0.0363
23235W        W39129   3.028   4.067  12.509  0.0642  0.2843 -0.1200
23236W        W39130   5.072  17.092   3.520 -0.0125  0.2050 -0.0756
23237W        W39131   0.983   6.892   0.457 -0.0092 -0.4054  0.0068
23238W        W39132   2.646   1.917   3.896 -0.0412 -0.3928  0.0337
23239W        W39133   6.568   2.240   2.726 -0.1260  0.1406  0.1791
23240W        W39134  12.658   4.026   0.850 -0.0680 -0.1301  0.0392
23241W        W39135   4.164  12.493   2.846 -0.0797  0.1537  0.2364
23242W        W39136  14.729  16.243  13.967  0.2144  0.2010 -0.0245
23243W        W39137   1.485   0.157   4.902 -0.3284  0.1394 -0.2800
23244W        W39138  14.415   3.770   5.241  0.3573  0.2954 -0.1381
23245W        W39139   5.832   9.083  14.202  0.0669  0.1325 -0.1698
23246W        W39140  12.374  11.770  12.966  0.4743  0.1212  0.1607
23247W        W39141   5.562  17.530  12.766  0.1726  0.4554  0.3106
23248W        W39142  13.591  13.687   3.396 -0.0651 -0.1395 -0.1124
23249W        W39143   4.366   4.040  14.433  0.0630  0.2237 -0.1485
23250W        W39144  13.456  12.555  13.545 -0.2021 -0.2505 -0.0518
23251W        W39145  16.668   8.034   3.690 -0.0634  0.0597  0.0831
23252W        W39146   7.613   1.430  17.129 -0.0717  0.0063  0.0214
23253W        W39147   3.144   3.774  15.991 -0.1143  0.1940 -0.0930
23254W        W39148   4.572  14.550   0.307 -0.0699  0.0807  0.0006
23255W        W39149  16.723  10.636   0.584 -0.0370 -0.0454  0.0538
23256W        W39150   0.322   7.232  11.343  0.0199  0.2632 -0.0348
23257W        W39151   1.171   5.253   3.227 -0.1258  0.1068 -0.1481
23258W        W39152   8.783  16.993  16.767  0.0818 -0.0336  0.2701
23259W        W39153  12.562   0.391   4.666 -0.0920 -0.1088  0.1281
23260W        W39154   1.394  16.306  15.817 -0.2503  0.3122 -0.1170
23261W        W39155  15.675   8.427   3.348 -0.1055 -0.3165 -0.0367
23262W        W39156   6.924   7.287  17.252 -0.0196 -0.3784  0.0056
23263W        W39157   3.880   8.904   5.656  0.1487 -0.1883 -0.0939
23264W        W39158   3.366  17.458  14.818  0.1679  0.1797 -0.1478
23265W        W39159   4.941  13.485   5.271 -0.1340  0.1369 -0.3305
23266W        W39160  10.435  13.667  15.709 -0.1860 -0.3008  0.0170
23267W        W39161   1.357   8.040   1.685  0.0950  0.1511 -0.3865
23268W        W39162  11.026   8.054  13.772 -0.2893  0.1193 -0.0150
23269W        W39163  10.721   9.415  14.768 -0.4247 -0.0115  0.2842
23270W        W39164   9.507   8.974  14.332 -0.1254 -0.2956 -0.0623
23271W        W39165   7.266  12.733   1.930  0.1368  0.1660  0.1354
23272W        W39166   1.916   6.905   2.173 -0.0498 -0.1981  0.2325
23273W        W39167   6.688   2.594  13.514 -0.2757 -0.1831  0.0534
23274W        W39168  11.350  15.854  15.906  0.0701 -0.1253 -0.1013
23275W        W39169   2.897   7.126   0.045  0.2003 -0.1464  0.0494
23276W        W39170   7.279  11.882  13.018  0.1706 -0.1698 -0.1545
23277W        W39171   0.568   7.443   2.714  0.0951  0.1518 -0.2510
23278W        W39172  10.457  11.106  11.993 -0.0629  0.0073 -0.0599
23279W        W39173   9.482   1.214   0.347 -0.1368  0.1578  0.0342
23280W        W39174  11.551   7.638  15.864 -0.2659 -0.2093  0.2155
23281W        W39175   7.410   0.821   5.752 -0.0709 -0.0711  0.2036
23282W        W39176  16.424  13.906  13.775 -0.2390 -0.0121  0.2896
23283W        W39177   3.428   1.105   2.831 -0.3464 -0.1051  0.1173
23284W        W39178  13.863   1.090   3.250 -0.1367  0.0364 -0.3337
23285W        W39179  17.498  16.579  14.932 -0.2517  0.0002  0.2531
23286W        W39180  14.350   3.653  15.965  0.0639 -0.1003 -0.1033
23287W        W39181  10.716  14.897  12.387  0.0380  0.0315  0.0867
23288W        W39182  14.265  12.053   4.708 -0.1734 -0.2953 -0.0877
23289W        W39183  11.987   9.028  11.755 -0.0231 -0.0313 -0.3655
23290W        W39184  14.489   4.646  14.952 -0.0912  0.0797 -0.2737
23291W        W39185   5.633   4.898  12.124  0.0067  0.0859  0.0586
23292W        W39186  17.205   6.111   3.041 -0.1771 -0.0226  0.3819
23293W        W39187   0.279  14.614   4.109 -0.0779  0.3625  0.2129
23294W        W39188   8.711  17.170   3.001 -0.0153  0.2351 -0.4988
23295W        W39189   1.300   0.474   5.671 -0.1776  0.0697 -0.0795
23296W        W39190   5.176   2.936   2.229  0.0457  0.0541  0.1838
23297W        W39191  13.597  16.000  12.291 -0.1783  0.0079 -0.0215
23298W        W39192   8.091   1.527   1.776  0.0750  0.1685 -0.2006
23299W        W39193  15.062  10.403   1.366  0.2213 -0.1010  0.0558
23300W        W39194   6.660  13.502  11.883  0.1509  0.0121  0.0666
23301W        W39195   5.460  14.333   3.973  0.1296 -0.1750 -0.0492
23302W        W39196   7.053   2.228   3.965 -0.0184 -0.2497 -0.0733
23303W        W39197  10.342   8.604  16.513  0.1779 -0.3178 -0.0773
23304W        W39198  12.722  10.581  13.108  0.1058  0.0458  0.2960
23305W        W39199  13.785  16.237  11.748  0.1807 -0.2624  0.1836
23306W        W39200  16.954   7.142  12.173 -0.3068  0.3829 -0.1895
23307W        W39201   0.334   9.892   4.773 -0.3816 -0.1386  0.1420
23308W        W39202   0.696  12.463  16.902  0.1185  0.0836 -0.0981
23309W        W39203   1.027  14.177   5.114 -0.3737  0.0433  0.1075
23310W        W39204   1.710  14.587   4.664  0.2398 -0.0486  0.4461
23311W        W39205   2.097   3.963  14.928  0.2932 -0.0989 -0.0504
23312W        W39206   1.050  16.382   3.353  0.1077 -0.3345  0.1599
23313W        W39207   1.244   5.141   6.311 -0.0894 -0.0939  0.2574
23314W        W39208   1.466   3.303  12.797 -0.1331 -0.0114 -0.5992
23315W        W39209   7.368   9.880  16.905  0.1926 -0.1471 -0.0576
23316W        W39210  14.926  17.368   3.402 -0.0337  0.0235 -0.0569
23317W        W39211   8.666   3.550   3.749  0.3669 -0.0393  0.1734
23318W        W39212  12.989   7.177  16.457 -0.2576 -0.1879  0.2548
23319W        W39213   6.538  11.750  11.297 -0.0539 -0.2391  0.1475
23320W        W39214   5.308   1.912  12.075  0.1626 -0.1541 -0.0081
23321W        W39215   1.196   0.445   2.256 -0.2382 -0.1870  0.0614
23322W        W39216  14.128  14.491   5.890 -0.0272 -0.2040  0.0703
23323W        W39217  13.622   4.368  13.994 -0.1551 -0.0679  0.1201
23324W        W39218  15.739  10.133  15.451 -0.2989 -0.0486  0.1632
23325W        W39219  15.077   9.200   6.179  0.0149  0.2537 -0.0064
23326W        W39220  17.182   0.353  12.306 -0.1311  0.2634  0.0163
23327W        W39221  11.617  16.751  13.143  0.0221  0.0633  0.0733
23328W        W39222   1.235   2.555   0.714  0.0027 -0.1887 -0.1151
23329W        W39223   2.517  14.443  13.740 -0.2012 -0.2330 -0.1846
23330W        W39224  12.029  13.987   0.425 -0.1067  0.2074 -0.2613
23331W        W39225  13.025   1.769  12.913  0.3550  0.1515  0.1106
23332W        W39226  12.284   7.329  13.238 -0.2076 -0.0703 -0.0874
23333W        W39227  11.966   8.842  11.265 -0.1367  0.0169  0.7030
23334W        W39228   1.496   0.443  17.265  0.3344 -0.0982 -0.2161
23335W        W39229  16.762   8.416   1.504 -0.1813  0.0664  0.0024
23336W        W39230   2.530   4.781   1.529  0.0605 -0.0782 -0.0742
23337W        W39231  10.350   0.324  13.521 -0.1470  0.0620 -0.1554
23338W        W39232   6.622  16.890  11.695 -0.0230 -0.1018  0.1392
23339W        W39233  10.463  12.698  16.318  0.1707  0.3887 -0.0842
23340W        W39234   0.599  13.774   3.340 -0.1905 -0.1582  0.1563
23341W        W39235  11.355   5.101  14.750 -0.1530  0.0761  0.1802
23342W        W39236  12.377  10.528   3.845 -0.1226 -0.0670  0.0579
23343W        W39237  15.540  15.568  15.187  0.1379 -0.1460  0.2508
23344W        W39238  15.204   8.624   5.381 -0.1134 -0.1657 -0.1322
23345W        W39239  16.579  14.123  15.249  0.1735  0.1292 -0.2881
23346W        W39240   7.320   1.546  15.473  0.0930 -0.1386 -0.1119
23347W        W39241   3.783   9.735   3.442 -0.0329 -0.1542  0.3425
23348W        W39242  13.130  11.002  13.095  0.4288  0.0343  0.3801
23349W        W39243  16.904   7.132  14.318 -0.0389 -0.0848  0.0354
23350W        W39244  12.157  15.075   0.612  0.0043 -0.3010  0.1570
23351W        W39245   6.656  16.175  14.979  0.1886  0.0038  0.1364
23352W        W39246   5.090   7.737  12.584 -0.4986 -0.0082  0.0106
23353W        W39247  14.223  12.921   2.358 -0.0793  0.0307 -0.3241
23354W        W39248   1.427   5.365   4.110 -0.2406 -0.0341  0.0346
23355W        W39249  15.538  16.625   3.603  0.2828 -0.0471  0.0875
23356W        W39250   8.053  17.633  16.930  0.1905 -0.0008 -0.2896
23357W        W39251   4.373   3.197   0.178 -0.0371 -0.0900 -0.0837
23358W        W39252   6.790   8.343   2.378  0.0951  0.1781  0.1108
23359W        W39253  11.542  11.913   4.043 -0.1427  0.1243 -0.1983
23360W        W39254  16.709  10.543   5.231  0.0833 -0.3007  0.0676
23361W        W39255   4.345   3.000   3.747 -0.1129 -0.0639  0.1656
23362W        W39256   7.369   9.965  15.445  0.2760  0.0537 -0.3818
23363W        W39257   7.187  17.207   5.346 -0.0432 -0.1056  0.1426
23364W        W39258   2.848  16.948  14.134 -0.0646  0.2669  0.0442
23365W        W39259   5.840   3.636  14.449 -0.1244 -0.1411 -0.2351
23366W        W39260  16.384   5.085  15.976 -0.1423 -0.1373 -0.1622
23367W        W39261  17.487   2.143  13.982  0.2011 -0.2095 -0.1460
23368W        W39262   8.136   8.506  14.917  0.1510 -0.0968 -0.0191
23369W        W39263   8.243   5.605  12.185 -0.0960  0.0414 -0.1224
23370W        W39264  10.619   7.747  15.067 -0.1559  0.0387 -0.0744
23371W        W39265   7.309  11.780   4.566  0.1384  0.0011 -0.0186
23372W        W39266  12.244   6.442  12.214  0.0980 -0.0203 -0.0104
23373W        W39267   1.136  16.457   0.641 -0.1070 -0.0973  0.1091
23374W        W39268  13.619   9.461   1.226  0.0072  0.2074  0.0071
23375W        W39269  10.321  10.545  13.352 -0.0446 -0.1383  0.3832
23376W        W39270  17.270   3.701  12.383  0.0068  0.0938  0.1176
23377W        W39271   4.070  12.150   5.533 -0.0696  0.2496  0.0380
23378W        W39272  15.137  12.641   2.496  0.1027 -0.0271  0.3049
23379W        W39273  15.498  10.600   0.476 -0.0738  0.1265  0.1085
23380W        W39274  12.190  16.852  15.557 -0.1315  0.0325 -0.2299
23381W        W39275   8.676   0.573   4.363  0.0978 -0.1641 -0.0464
23382W        W39276   7.868   8.307   4.084 -0.0384 -0.2671 -0.0395
23383W        W39277   7.075   8.969   0.435 -0.1942 -0.0079 -0.2638
23384W        W39278   3.819  15.946   2.890 -0.0633 -0.1470 -0.1198
23385W        W39279  13.148   3.013  12.586  0.1222 -0.1106  0.0446
23386W        W39280   0.876   7.115   6.940  0.1296  0.2935 -0.0844
23387W        W39281   6.266  13.824  11.762  0.1667  0.0983  0.1631
23388W        W39282   7.156   2.493  14.517  0.3536 -0.1088 -0.1731
23389W        W39283  13.924  14.711   4.714  0.1970 -0.1998 -0.2104
23390W        W39284  16.452   4.297  17.080 -0.1491  0.0266  0.0809
23391W        W39285  15.052   3.660   0.734  0.1094  0.3184 -0.2835
23392W        W39286  16.524  15.203   1.548 -0.2531 -0.1296 -0.2442
23393W        W39287  14.277  16.665  12.967  0.0069 -0.0060  0.2593
23394W        W39288  16.596   4.072   5.548 -0.0700  0.0871 -0.1211
23395W        W39289  13.776   6.025   5.467 -0.3237  0.0533 -0.0502
23396W        W39290   4.118  12.594  12.314  0.3254  0.2059 -0.2141
23397W        W39291  17.193  14.333   2.572 -0.2141  0.1872  0.2734
23398W        W39292   1.741   5.997  13.835 -0.2529 -0.0207 -0.0742
23399W        W39293   6.490   9.948   1.690  0.1473 -0.3374  0.1195
23400W        W39294  10.664  16.241  15.707  0.3320 -0.2194  0.1228
23401W        W39295   9.551   4.790   3.255  0.1408  0.0072  0.0045
23402W        W39296  15.972  15.322   2.544 -0.1144  0.0449  0.3133
23403W        W39297   8.759   5.645   1.123 -0.3069 -0.3474 -0.1042
23404W        W39298   0.938   0.994  15.702 -0.0411  0.2605  0.3715
23405W        W39299  10.981   9.428  13.204  0.3344  0.0806  0.1906
23406W        W39300  16.294   3.046   0.923  0.2114 -0.0378 -0.0126
23407W        W39301   9.862   6.892   4.168  0.3648 -0.2706 -0.3685
23408W        W39302  14.286   9.944  15.247 -0.3600  0.0743  0.3858
23409W        W39303  14.348   5.456   2.332  0.0414  0.1400  0.0117
23410W        W39304   3.935  15.845  17.153 -0.3561 -0.0054  0.0214
23411W        W39305  11.809   6.351   2.874  0.4635 -0.2057 -0.0136
23412W        W39306  13.915   8.579  13.374 -0.0512 -0.2174 -0.0320
23413W        W39307   8.678   6.313   0.470 -0.0908  0.0874  0.0630
23414W        W39308  11.592   1.679   4.927 -0.4050  0.0176 -0.0018
23415W        W39309   2.688   5.289  14.715 -0.1571  0.4042 -0.2991
23416W        W39310   6.336   4.432   5.438  0.4678  0.0148  0.1414
23417W        W39311  11.817   9.821  11.550 -0.3104  0.1748  0.1326
23418W        W39312  13.412  12.034   5.388 -0.2849  0.0931 -0.1127
23419W        W39313  16.779   5.879  14.064  0.1621 -0.1531 -0.2481
23420W        W39314  11.447   0.032   5.924 -0.3912  0.2486 -0.0771
23421W        W39315  15.753   5.660   2.401 -0.3862 -0.0162  0.2181
23422W        W39316  12.652  11.290   4.036  0.1983  0.0067  0.1872
23423W        W39317  15.403   0.625   0.055 -0.0242  0.2140  0.0175
23424W        W39318   5.395   5.654   2.260  0.2588 -0.2549  0.1076
23425W        W39319  15.787  10.651   4.247 -0.0343  0.1615 -0.1344
23426W        W39320   1.648  14.225   4.332  0.2597 -0.3757  0.0294
23427W        W39321  17.387  11.056  16.287  0.0458 -0.2559 -0.1264
23428W        W39322   6.177   4.507   1.624 -0.0038  0.1332 -0.0972
23429W        W39323  10.956   5.817  15.140  0.2462 -0.1043  0.0087
23430W        W39324   5.185  11.123  11.874  0.0123 -0.0958  0.0545
23431W        W39325  17.366   1.346   2.002  0.3043 -0.1380  0.0943
23432W        W39326   6.727  15.828  14.405 -0.1411  0.0619  0.1251
23433W        W39327   6.220  17.564   1.112 -0.0226  0.0493  0.1052
23434W        W39328  17.494   2.320   2.711  0.0252  0.0292 -0.0204
23435W        W39329  12.143   7.147   1.817 -0.1881 -0.4222  0.1450
23436W        W39330   4.053   9.045   2.493  0.1969 -0.2380  0.0070
23437W        W39331  13.194   0.335  13.080 -0.2083  0.1300 -0.0541
23438W        W39332  10.908   0.816   4.311  0.3539  0.1329 -0.1043
23439W        W39333  16.084   5.680   6.083  0.1045  0.0327  0.2680
23440W        W39334   9.478   8.825   4.388  0.0500  0.0230  0.0516
23441W        W39335   1.928   8.505  13.335  0.2227 -0.0392 -0.2670
23442W        W39336   3.700  14.968   3.340  0.1306  0.1698  0.1658
23443W        W39337  16.282   0.577   0.715 -0.2069  0.0483  0.0900
23444W        W39338  11.236   1.913  11.812 -0.2999  0.0810  0.2117
23445W        W39339  15.111  16.179  14.547  0.0208 -0.2649 -0.0652
23446W        W39340  14.114  12.574   4.714  0.0838  0.2096  0.1357
23447W        W39341  14.990   6.116  14.077  0.1311 -0.0871 -0.3335
23448W        W39342   3.825  14.489   3.861  0.1446  0.0873  0.0647
23449W        W39343  16.436   6.587   4.282 -0.2733 -0.0310  0.1259
23450W        W39344   9.879   7.868   5.157  0.0028  0.1005  0.0687
23451W        W39345   5.747  15.524  15.650  0.0002  0.0330  0.0341
23452W        W39346  12.330   8.961   1.808  0.2264  0.1630 -0.5135
23453W        W39347   9.201   9.668  12.223  0.2442  0.1233 -0.1221
23454W        W39348   4.155  12.795   4.391 -0.0448  0.1001  0.0413
23455W        W39349  13.194   9.855  13.427  0.0220 -0.4020  0.0326
23456W        W39350  11.739  16.215   0.025 -0.0489 -0.1581 -0.1004
23457W        W39351   7.883  13.379  16.282  0.0591 -0.0331 -0.2582
23458W        W39352   7.316  15.630   4.133 -0.2135 -0.1006  0.1033
23459W        W39353   1.888  10.741   3.974 -0.0384  0.2532  0.0081
23460W        W39354   5.206   3.332  12.839 -0.1055 -0.2465  0.1417
23461W        W39355   1.191   5.890  15.374  0.1414 -0.1953 -0.0239
23462W        W39356  10.588   7.038   4.297  0.1295  0.1005 -0.2074
23463W        W39357  14.278   5.553  14.456 -0.1349  0.1792 -0.1454
23464W        W39358  12.177   1.595   5.468  0.2241 -0.0905  0.2045
23465W        W39359   8.940   3.913   2.959  0.2112 -0.0819  0.0718
23466W        W39360   7.580  11.762  11.350  0.1177  0.0778 -0.1232
23467W        W39361  12.834  14.455   5.465  0.0228  0.2712 -0.0512
23468W        W39362   5.847  14.698   3.549  0.1565  0.1879 -0.0797
23469W        W39363   2.272   5.610  17.154 -0.0234 -0.0408 -0.0277
23470W        W39364   7.311  13.135  14.707 -0.0324 -0.0035 -0.0230
23471W        W39365  16.466   7.227   3.305  0.1070  0.1065 -0.2205
23472W        W39366   9.826  16.393  11.603  0.2199  0.0560 -0.0602
23473W        W39367   2.749   0.240   1.210  0.1377  0.1474  0.1092
23474W        W39368  16.223  11.761   0.130 -0.1402 -0.2186  0.0045
23475W        W39369  14.294   1.610   1.976  0.2469  0.1001  0.1586
23476W        W39370   4.383  13.034  16.938  0.1958 -0.1214 -0.0537
23477W        W39371   3.830  15.676  16.702 -0.1093 -0.1069  0.1630
23478W        W39372  15.288   1.423  15.187  0.0409 -0.0239 -0.1518
23479W        W39373   4.661  14.994  16.411  0.0248  0.2294  0.4060
23480W        W39374  17.570   7.831   3.352 -0.4530 -0.2190  0.1301
23481W        W39375   8.034   9.603   3.770  0.2205 -0.2094 -0.1654
23482W        W39376   4.182  10.612   0.922  0.0265  0.2194 -0.0121
23483W        W39377   8.477   2.023   3.690 -0.3348  0.0364 -0.2329
23484W        W39378   5.664  15.071  15.887 -0.0141 -0.0058 -0.0488
23485W        W39379   3.222   8.256  15.036 -0.4143  0.1499 -0.0539
23486W        W39380  10.787   6.768   0.793 -0.1498  0.1791 -0.1496
23487W        W39381   6.770   8.355  12.729  0.0178 -0.2621 -0.0461
23488W        W39382  14.585  14.312   0.838 -0.0865 -0.1034  0.0307
23489W        W39383   8.591   0.718  13.938 -0.0032  0.3017 -0.2138
23490W        W39384  12.340   5.501  16.219 -0.4621  0.1053  0.2564
23491W        W39385   0.834  11.085   4.756 -0.0682  0.0068  0.0968
23492W        W39386   3.646   4.213   2.065  0.3282  0.0180 -0.0582
23493W        W39387   2.724   7.754   0.862 -0.4044  0.0205 -0.3709
23494W        W39388  12.982   3.893   6.189  0.1847  0.0064 -0.0451
23495W        W39389   5.694   9.101  16.222  0.1986  0.0911  0.0992
23496W        W39390  12.187   9.371  13.220 -0.1281 -0.0626  0.1892
23497W        W39391   9.523   8.407  13.657 -0.1090  0.0495 -0.3556
23498W        W39392  16.492  12.898  14.056 -0.0842 -0.1361  0.1402
23499W        W39393   8.090   8.561  12.365 -0.2929  0.0365  0.0241
23500W        W39394  11.425   0.393   0.053  0.2154  0.3150 -0.1449
23501W        W39395   1.809   6.851  12.657 -0.1615 -0.0213 -0.3948
23502W        W39396   3.933  11.897  16.920  0.0112 -0.1331 -0.1614
23503W        W39397   6.853   3.784   5.935  0.0905 -0.2506 -0.0349
23504W        W39398   6.702  13.588  13.938  0.0528 -0.0091  0.1070
23505W        W39399   0.017  13.513  12.503  0.2757  0.2257  0.2731
23506W        W39400  10.945   8.955   3.308  0.1348 -0.0305  0.1352
23507W        W39401  13.590  10.711   2.904 -0.3807 -0.2928  0.2496
23508W        W39402  10.663   3.435  15.872  0.1995  0.0944  0.1610
23509W        W39403  15.157   1.293   0.546 -0.1485 -0.0387  0.0225
23510W        W39404  14.230   7.474  12.760  0.0872  0.0522  0.1804
23511W        W39405   9.709  11.182  12.190  0.0661  0.0290 -0.3485
23512W        W39406   6.643  10.462   0.788  0.1717 -0.3400 -0.1101
23513W        W39407   5.711   7.600   3.706 -0.1090 -0.1384  0.0705
23514W        W39408   7.101   4.944   2.491 -0.1578 -0.1562  0.3489
23515W        W39409  15.838   1.271  14.220 -0.0338 -0.2587  0.0797
23516W        W39410  14.767   5.240  15.751 -0.0954 -0.3537 -0.3030
23517W        W39411  11.445   5.238  15.591  0.0224  0.2621 -0.0865
23518W        W39412  11.252   3.284  15.335  0.1232 -0.2558  0.1740
23519W        W39413   1.578  13.470   0.726 -0.1686  0.2922  0.1350
23520W        W39414  13.937   1.204   5.506  0.0135  0.0163  0.4103
23521W        W39415   3.017   6.880  12.254 -0.3324 -0.0085  0.0163
23522W        W39416  10.433   5.549   2.285 -0.0467  0.1918 -0.1100
23523W        W39417   5.360  13.696   4.012  0.1486 -0.1249 -0.1895
23524W        W39418  10.055  14.119   4.957  0.1542  0.0645  0.3620
23525W        W39419   7.257  12.822   1.051  0.0677  0.0673 -0.0957
23526W        W39420   7.431  16.959   0.875  0.1291 -0.1469 -0.2722
23527W        W39421   5.225   5.741  14.421 -0.0335  0.0150  0.2625
23528W        W39422   6.635   8.021  15.698 -0.1107  0.0460  0.1335
23529W        W39423   1.306   3.598   4.412  0.1264 -0.1679 -0.1539
23530W        W39424   8.162  11.649   4.316 -0.1543  0.1225  0.2897
23531W        W39425   9.487   7.427  14.229 -0.0636  0.1498 -0.0613
23532W        W39426   3.879  16.293   0.185  0.0164  0.3837  0.0778
23533W        W39427   0.608  15.147   4.182  0.3660  0.0661 -0.0711
23534W        W39428  11.351   7.493   3.785  0.2185  0.2136  0.0982
23535W        W39429  16.337   7.859   2.763  0.4244 -0.0642  0.1722
23536W        W39430   2.257   1.094   0.165 -0.0772  0.0531 -0.0265
23537W        W39431   6.976   7.731   1.689  0.0867  0.1078 -0.0197
23538W        W39432   3.836   8.453   3.400  0.1311 -0.2536 -0.1211
23539W        W39433  12.654   9.733  13.245  0.0104 -0.1312 -0.0436
23540W        W39434   6.335   1.511  11.916 -0.0665 -0.0914  0.1681
23541W        W39435   1.968   9.840   6.149  0.0176  0.2018  0.0142
23542W        W39436  13.056   3.927   4.112  0.2583  0.0504  0.4256
23543W        W39437   1.345  15.642   1.777 -0.1901 -0.1131  0.0211
23544W        W39438   6.298   9.295   0.616 -0.1695 -0.2268  0.0522
23545W        W39439   3.751   9.508  17.154  0.0343  0.0332 -0.1546
23546W        W39440   2.426   6.136  15.020 -0.0991 -0.2457 -0.0379
23547W        W39441   2.240  15.642  15.319  0.3265 -0.2577 -0.1322
23548W        W39442   4.459   2.083  13.289  0.0078  0.3473  0.1401
23549W        W39443   5.491   6.798  16.136 -0.0200 -0.1077  0.2903
23550W        W39444   8.908  16.940  11.911  0.1053  0.2429  0.0752
23551W        W39445   8.209   6.646  17.126  0.1652  0.1451  0.0019
23552W        W39446  10.149   9.144   3.937 -0.1603  0.0036 -0.1131
23553W        W39447  10.373  14.562   1.576 -0.1727 -0.1874 -0.1068
23554W        W39448   8.666   9.677  12.141 -0.0979 -0.3114 -0.0292
23555W        W39449  14.024  14.258   4.483  0.3623  0.1464 -0.3346
23556W        W39450   5.731  14.117  13.843  0.0791  0.5065 -0.0746
23557W        W39451  15.204  17.177   3.032 -0.0919 -0.1153  0.1456
23558W        W39452   7.230   0.583   0.714  0.4078 -0.0876  0.2622
23559W        W39453   9.378  11.963  16.508 -0.1597  0.1222  0.1062
23560W        W39454  13.086  11.705  12.663 -0.0422 -0.0449  0.2583
23561W        W39455  13.676  12.901  16.843 -0.2732 -0.0256  0.2778
23562W        W39456   6.855   5.775   0.983 -0.2984  0.1377  0.1670
23563W        W39457   2.977  15.179   3.843  0.1100 -0.1094  0.0939
23564W        W39458  14.292   0.714  14.044  0.1528  0.4146 -0.1757
23565W        W39459   6.287  16.320   4.178 -0.0194  0.2128 -0.1247
23566W        W39460   7.397   2.636   5.115 -0.2030  0.0179 -0.2562
23567W        W39461  10.889  14.404   1.564 -0.0303 -0.1682 -0.0680
23568W        W39462   4.462   3.112  14.474  0.0940 -0.1439  0.1107
23569W        W39463  13.743  13.267  16.482 -0.3037  0.1607 -0.1455
23570W        W39464   1.331   1.099   3.422  0.1693  0.0642 -0.1800
23571W        W39465  16.092  15.216   1.749  0.0181  0.3368 -0.2712
23572W        W39466   5.897  16.138  14.100 -0.2644 -0.0868  0.0541
23573W        W39467   0.920  11.765  14.548 -0.0626  0.0679 -0.0463
23574W        W39468  12.719   1.619   0.023 -0.0990  0.0230 -0.0059
23575W        W39469   7.242   1.366   1.933 -0.0815 -0.2037 -0.0443
23576W        W39470   7.161   4.070  13.285 -0.0271  0.0693 -0.0203
23577W        W39471   4.095  13.093  14.760  0.0001  0.1153 -0.1330
23578W        W39472   5.585   0.658   1.055 -0.0241 -0.0732 -0.0382
23579W        W39473   9.388  17.397   3.382 -0.0110  0.1481  0.2214
23580W        W39474  15.203   6.437  12.996  0.2732 -0.1545  0.0109
23581W        W39475  14.938  15.377  12.848 -0.1689  0.2012 -0.2491
23582W        W39476  15.852   0.405   0.105 -0.0786 -0.1255 -0.5015
23583W        W39477  13.396   0.727  15.166 -0.1346  0.2738 -0.2072
23584W        W39478   8.649   5.259   3.152 -0.0067  0.1104 -0.2262
23585W        W39479   4.510  12.232   1.032  0.4579 -0.0512  0.1002
23586W        W39480   8.765  12.119   2.191  0.0599 -0.1389  0.1177
23587W        W39481  12.435   8.886   4.693 -0.0958 -0.0598  0.0732
23588W        W39482   3.459   6.966   5.915 -0.1129  0.2761  0.2005
23589W        W39483   4.953   6.325   2.706  0.0052 -0.1266 -0.0926
23590W        W39484   4.444  10.913  16.150  0.1259 -0.0109 -0.2970
23591W        W39485   4.127   9.479   0.533  0.1296  0.0386  0.0115
23592W        W39486  11.552   6.370  12.758 -0.2486 -0.2332 -0.0416
23593W        W39487  17.631  10.795   0.534 -0.2373 -0.0060  0.1559
23594W        W39488   3.342  14.514   3.394 -0.0313  0.0508 -0.1370
23595W        W39489   8.860  12.172  15.166  0.0153  0.2006 -0.1768
23596W        W39490   4.308  13.009   5.555 -0.1371  0.2733  0.1235
23597W        W39491   1.454  13.644  13.073  0.0386  0.0180  0.5953
23598W        W39492   7.195  10.455   3.468  0.2965  0.0320  0.0316
23599W        W39493   3.087   2.276  13.109  0.2815 -0.0567  0.1453
23600W        W39494   9.985  14.092   3.723  0.1148 -0.1657 -0.0697
23601W        W39495   2.373   4.548   2.378  0.0199  0.2929  0.0513
23602W        W39496  15.207  10.300   3.738  0.1029  0.2196  0.1088
23603W        W39497  16.563   4.884  16.424 -0.2513 -0.0717 -0.3400
23604W        W39498  17.375   8.469  14.123 -0.1424  0.0043  0.0047
23605W        W39499  17.049  10.957  16.626  0.3555  0.1563  0.1053
23606W        W39500  14.731  12.856   1.014 -0.0694  0.1891  0.0022
23607W        W39501  15.322  10.502  16.628 -0.2070 -0.1026  0.0384
23608W        W39502  14.738   6.428   4.695 -0.1222 -0.1069  0.3456
23609W        W39503   9.762  16.990  12.795 -0.1168  0.1415 -0.0583
23610W        W39504  14.683  13.849  16.797 -0.2107  0.0533 -0.0706
23611W        W39505  15.543  10.485  13.413  0.1184 -0.1926  0.2975
23612W        W39506   9.710   4.158  16.575  0.0636 -0.0651 -0.1273
23613W        W39507  14.304   7.412  13.815 -0.0559  0.0480  0.0250
23614W        W39508   7.097  12.994   0.150 -0.2029  0.3614  0.2618
23615W        W39509  14.895   2.903   1.199 -0.2255 -0.0026  0.0250
23616W        W39510   7.292   7.092  16.453  0.0302 -0.2404 -0.2966
23617W        W39511  13.486   6.622   0.194  0.0592  0.3116  0.3417
23618W        W39512   3.892   2.965  12.706  0.1227 -0.3272 -0.1009
23619W        W39513  13.606  14.109   4.247 -0.2617 -0.0764  0.1301
23620W        W39514  14.770   7.274   2.309  0.0906 -0.1799  0.1264
23621W        W39515  12.524  15.995  13.193 -0.1186  0.2040  0.1356
23622W        W39516   3.340  14.248  14.942 -0.0950  0.5175  0.0089
23623W        W39517   5.217   6.115   1.468 -0.0641 -0.2051  0.1314
23624W        W39518   5.540   1.147   0.298  0.1788 -0.4944  0.1080
23625W        W39519  16.370  10.334  11.542 -0.0131 -0.0992  0.0258
23626W        W39520   8.712   7.211  15.377  0.0022  0.0245  0.0853
23627W        W39521   0.567   5.631   4.933  0.0434  0.1727 -0.2115
23628W        W39522   9.519   9.551  15.085 -0.0364  0.0566 -0.5298
23629W        W39523   6.483   1.115  13.594 -0.1320 -0.0745  0.1786
23630W        W39524  14.163  13.143  14.441  0.1859 -0.0872 -0.0693
23631W        W39525  10.467   5.129   1.478  0.0847  0.0473 -0.2345
23632W        W39526  13.930  11.266  12.564 -0.1000 -0.0998 -0.2073
23633W        W39527   4.607  17.589   5.452 -0.1703  0.3249 -0.0523
23634W        W39528  12.210  12.408  16.038  0.0704 -0.1138  0.2071
23635W        W39529   5.086  13.063  11.950  0.0930  0.0364 -0.0754
23636W        W39530   8.524  15.379  16.150  0.0266 -0.1135  0.2218
23637W        W39531   2.083   3.696  13.813  0.0070  0.0123 -0.2995
23638W        W39532  13.126  15.289  15.146 -0.1980 -0.0124  0.0494
23639W        W39533   6.497   5.690  13.122 -0.1804  0.4211  0.1168
23640W        W39534  15.188   0.605  15.863 -0.0639  0.1651  0.0196
23641W        W39535   3.447  13.222  15.391 -0.1321 -0.0644  0.2250
23642W        W39536  16.934  16.669  12.946  0.0117 -0.0968 -0.3284
23643W        W39537   4.109   0.183   3.444  0.0613  0.4357  0.1888
23644W        W39538   7.870  13.527  13.979 -0.0555  0.4088  0.1607
23645W        W39539   2.431   3.968  11.967  0.1168 -0.0962  0.2853
23646W        W39540  14.356   8.386  16.953 -0.2363 -0.3451 -0.1399
23647W        W39541   2.344   1.880  16.739 -0.1301 -0.2311 -0.2392
23648W        W39542  12.382   9.666   0.307  0.2590  0.1696 -0.0248
23649W        W39543  17.223   5.392   0.262 -0.1068 -0.2633  0.3768
23650W        W39544   7.200   8.517  16.416 -0.0026 -0.0294  0.3943
23651W        W39545  14.097   0.500   0.313 -0.1513 -0.4398 -0.1326
23652W        W39546  12.431  12.415  14.636  0.3547  0.1839 -0.3470
23653W        W39547  10.198   2.973   4.475  0.2694 -0.1333  0.3103
23654W        W39548   3.661   1.371  15.544 -0.0304 -0.3258  0.1209
23655W        W39549  17.009   0.888   5.302  0.0811 -0.1783  0.2960
23656W        W39550  12.741   5.201  13.823  0.2912 -0.0318  0.0488
23657W        W39551   0.474  15.366  14.866 -0.1269 -0.1846  0.0475
23658W        W39552   0.174   6.775  13.148 -0.2536 -0.2190  0.0489
23659W        W39553  15.044  12.188  15.353  0.1755  0.4249 -0.1875
23660W        W39554   3.656  12.875   0.790 -0.2339  0.0802  0.0245
23661W        W39555   4.881  10.923   1.776  0.2421  0.1011  0.3056
23662W        W39556  11.264   9.503  12.262 -0.0949 -0.3806 -0.0424
23663W        W39557  12.513  10.144   0.470  0.0512  0.0898 -0.1733
23664W        W39558  14.615  13.861  13.639 -0.0091  0.0220  0.2120
23665W        W39559   9.180   1.624  12.950  0.2231 -0.1817  0.0960
23666W        W39560  11.574  16.635  12.118 -0.0360  0.0761 -0.1310
23667W        W39561   7.703  12.266  14.674 -0.2987  0.0623  0.0463
23668W        W39562  14.310   3.951   3.525 -0.0275 -0.2509  0.0497
23669W        W39563   8.848  16.204  11.532  0.3196 -0.2206  0.1187
23670W        W39564   5.831  11.651  13.061  0.1793 -0.1020  0.2839
23671W        W39565   0.832   1.307   3.221  0.2664 -0.2079 -0.0101
23672W        W39566   1.370  16.938   4.058 -0.0783  0.1869  0.1635
23673W        W39567   6.185   7.624   2.103  0.0068 -0.1131  0.0470
23674W        W39568   3.027   4.776   1.446  0.1574  0.0821 -0.2030
23675W        W39569  11.532   3.417  14.612 -0.1349  0.1813  0.1471
23676W        W39570   9.279  11.416  16.480 -0.1735 -0.0982  0.0360
23677W        W39571   1.992   2.799  14.107 -0.2358 -0.1910  0.2136
23678W        W39572   6.118   7.241   1.467  0.1171  0.0151 -0.0444
23679W        W39573   3.299  13.718   2.950 -0.1112  0.1697  0.1538
23680W        W39574   2.736   6.857   3.251 -0.0487  0.1539 -0.0354
23681W        W39575  13.731  14.258  12.856  0.0033  0.1188  0.0708
23682W        W39576   2.929   6.692   4.696 -0.2620  0.3757 -0.0523
23683W        W39577   6.386   6.949   3.114 -0.2695  0.1561  0.0662
23684W        W39578  13.752   6.300  14.330 -0.1988  0.1170 -0.0909
23685W        W39579   3.866  13.211   1.564  0.0788  0.0792 -0.2580
23686W        W39580   0.439   6.358  12.172  0.1485 -0.3705  0.1442
23687W        W39581   9.533   3.593   3.732  0.2428 -0.2847 -0.1654
23688W        W39582  10.179  16.320   3.792 -0.4733  0.0998  0.0893
23689W        W39583  10.424   0.382  12.397  0.1119 -0.2532  0.0589
23690W        W39584  13.438  10.196   3.663  0.1523 -0.2369 -0.3021
23691W        W39585   3.533  12.625   6.122 -0.1090 -0.5489  0.3263
23692W        W39586  11.204  11.852   0.070 -0.1615  0.1345 -0.1280
23693W        W39587   4.435  12.492   0.536 -0.0597  0.2289  0.4009
23694W        W39588  15.452   1.610   4.020  0.2125  0.2507 -0.1331
23695W        W39589  16.264  16.604   1.685  0.1789  0.0075  0.3072
23696W        W39590  16.495   3.102  14.587 -0.2179  0.2544 -0.1365
23697W        W39591  15.477   0.546   4.928  0.0355 -0.1428  0.1295
23698W        W39592   5.668   6.327   0.669  0.0571 -0.2956  0.1472
23699W        W39593  16.345  16.040  12.903  0.2576 -0.0756  0.1506
23700W        W39594   3.452   7.269  15.907  0.1992 -0.0877  0.2187
23701W        W39595   3.859  11.164  16.042  0.0915 -0.3884  0.2880
23702W        W39596   5.067   0.314   0.377  0.1867 -0.0616 -0.3682
23703W        W39597   4.122   8.849  13.395  0.2504 -0.1867 -0.1181
23704W        W39598  14.637   2.891  14.914  0.1316 -0.0014 -0.0734
23705W        W39599  11.828   6.190   4.803  0.0437 -0.0363  0.0906
23706W        W39600   2.677  12.596  13.830 -0.0556  0.1259 -0.0736
23707W        W39601   2.916   5.959   0.001  0.3573  0.0955  0.2440
23708W        W39602  14.381   4.064  13.453  0.0272 -0.1728  0.1420
23709W        W39603   6.012   3.162   5.106  0.4006  0.0424 -0.0149
23710W        W39604   3.632   0.345   1.232  0.1313  0.0782 -0.0888
23711W        W39605   4.593  15.367   3.174  0.0517  0.1643 -0.0686
23712W        W39606  16.939  16.620   0.068  0.1971 -0.1272 -0.1680
23713W        W39607   8.572  17.005   5.805  0.0690 -0.0229 -0.1583
23714W        W39608  14.962  12.807  13.474 -0.0544 -0.1627  0.1181
23715W        W39609   6.606  10.026   1.090  0.0884 -0.3495 -0.3670
23716W        W39610  11.757   9.661   1.292 -0.2950  0.3203 -0.0731
23717W        W39611   9.963  14.901   0.789  0.1608  0.0185  0.0956
23718W        W39612   9.441  17.602  12.263 -0.4011 -0.0934 -0.1275
23719W        W39613  10.092   4.089   0.896 -0.2864  0.0093 -0.1221
23720W        W39614   2.799   5.986   5.116  0.1891  0.2756  0.3093
23721W        W39615  10.879   4.202  14.430 -0.3226  0.0134 -0.2266
23722W        W39616  14.288  14.166   1.690  0.1028 -0.0548  0.1854
23723W        W39617  10.703  16.148  17.102 -0.1539  0.0499  0.1163
23724W        W39618  13.072   8.920  15.987  0.3291 -0.2242 -0.2292
23725W        W39619   5.150   2.432  14.305 -0.1360 -0.0213 -0.1932
23726W        W39620   4.000   0.010   2.950 -0.0743 -0.1395  0.0511
23727W        W39621  10.247   6.750   2.047 -0.0449  0.1457  0.1692
23728W        W39622   4.736  12.000  14.038  0.0176  0.0208 -0.1426
23729W        W39623   0.894   0.212   4.583  0.0145  0.3257  0.1371
23730W        W39624  10.404   1.728   4.417  0.2767  0.0492 -0.0325
23731W        W39625   6.147  15.793   5.022 -0.0905  0.1775 -0.1421
23732W        W39626   6.051  12.088   4.780 -0.2332 -0.0346 -0.1422
23733W        W39627   0.038   3.150   3.812 -0.1968  0.2032 -0.1034
23734W        W39628   8.407   2.486   3.513  0.2111  0.0716 -0.2157
23735W        W39629   1.822  15.228   3.537  0.0552  0.3932 -0.3033
23736W        W39630  17.562   6.375  12.952  0.1041 -0.1095  0.2217
23737W        W39631  16.286   4.134   6.151 -0.1011 -0.1921  0.0338
23738W        W39632   5.693   8.703   4.565  0.0664  0.2924  0.0920
23739W        W39633   4.415  17.563  17.115 -0.1191 -0.0036 -0.1306
23740W        W39634  11.658   2.691  16.185 -0.0734  0.0487  0.0742
23741W        W39635  17.561  16.057  15.473 -0.0285  0.0090 -0.1103
23742W        W39636   9.798  15.701  13.135 -0.0678 -0.6689 -0.0737
23743W        W39637  13.408  16.598  14.269  0.1448  0.2013 -0.0778
23744W        W39638  13.317  10.711  14.068 -0.3101 -0.0869 -0.0737
23745W        W39639   5.655   0.657  15.102  0.0317 -0.1547  0.1001
23746W        W39640  15.876   3.309  13.127  0.1037  0.1941  0.1240
23747W        W39641   1.748   7.287  13.893  0.1568 -0.0450 -0.1493
23748W        W39642  17.584   9.040   1.351 -0.0641 -0.0814 -0.1879
23749W        W39643  16.849  12.431   5.123  0.0094  0.2213 -0.0912
23750W        W39644   8.486   1.343  13.505  0.1910  0.0267  0.1259
23751W        W39645   6.365  12.472   4.805  0.2549 -0.1195 -0.2535
23752W        W39646   2.670   5.012  13.455  0.4463 -0.0189 -0.1676
23753W        W39647   9.301  10.757   5.922 -0.1580 -0.0417 -0.3493
23754W        W39648   9.812  15.105   2.247  0.3388 -0.0530  0.1692
23755W        W39649  15.488   2.681   2.058 -0.1460  0.3730  0.0704
23756W        W39650  17.144   4.159   5.840  0.2963 -0.0139 -0.1601
23757W        W39651   3.029  15.263  14.347 -0.0406 -0.2796  0.2241
23758W        W39652   0.287   7.386   5.480  0.1519 -0.0970 -0.3086
23759W        W39653  10.506   2.144   3.174  0.2049  0.0024 -0.0232
23760W        W39654   8.985   4.942  12.400 -0.0341  0.1066 -0.0142
23761W        W39655   9.094   4.018  14.965 -0.1649  0.0614 -0.0516
23762W        W39656  10.796   7.211  15.800 -0.3441 -0.1278  0.0507
23763W        W39657  13.050   8.152  16.389  0.2817 -0.0900  0.0666
23764W        W39658   0.899  15.789   5.866  0.3093  0.0295  0.0160
23765W        W39659   5.622  11.441   2.972 -0.1048 -0.1974  0.2788
23766W        W39660  16.917  10.804  11.775  0.4376 -0.0527  0.2087
23767W        W39661  13.399   6.170   5.121  0.0121  0.1716 -0.0824
23768W        W39662   7.390  12.572   0.664 -0.0846  0.2351  0.2558
23769W        W39663   3.343  16.762   3.136  0.1628  0.1805  0.0203
23770W        W39664   0.452   6.401   3.481 -0.2010 -0.1821 -0.0736
23771W        W39665   7.724  15.600   0.698 -0.3462  0.5524  0.0464
23772W        W39666  16.312  17.459  16.244 -0.2115 -0.1315  0.0066
23773W        W39667   6.271   5.501  13.696  0.3039 -0.3085 -0.0819
23774W        W39668   6.988   1.524   3.255 -0.2034  0.0920  0.0972
23775W        W39669   6.486   9.919  16.780 -0.0329 -0.0463  0.2886
23776W        W39670   1.583  14.335   0.606  0.2279  0.1125  0.1927
23777W        W39671  16.261   9.182   4.711  0.1249 -0.0479 -0.1835
23778W        W39672   0.653   4.550  12.496  0.2393 -0.2707  0.1568
23779W        W39673  11.267  15.058  17.121 -0.0853  0.1316 -0.2215
23780W        W39674   5.883  13.431   0.761  0.0416  0.2236 -0.2423
23781W        W39675  17.373   5.587  13.405 -0.1058 -0.0657 -0.1076
23782W        W39676   5.816  17.263  12.378  0.1833 -0.2603  0.1436
23783W        W39677   3.160   3.859   4.045 -0.1311 -0.0875 -0.4447
23784W        W39678   5.096   2.060   2.960 -0.0404 -0.0044  0.2955
23785W        W39679   6.187  14.684  16.515 -0.1087  0.0135  0.0362
23786W        W39680   2.227   5.686  16.414  0.0643  0.0728  0.0609
23787W        W39681  12.955   9.513  13.646  0.0234  0.0285 -0.1213
23788W        W39682   2.545  10.352  15.276  0.2268 -0.3557  0.0739
23789W        W39683  13.908  13.102  16.064 -0.0757  0.0686 -0.1363
23790W        W39684   5.719  17.421  15.284 -0.1492  0.0423 -0.1853
23791W        W39685  11.000   7.399   2.615  0.0318  0.1606 -0.2004
23792W        W39686  17.214  16.454   1.659  0.0755  0.0991 -0.1891
23793W        W39687   8.551  13.831   0.246  0.2261  0.1589 -0.1337
23794W        W39688  13.953   0.483   5.014  0.0572 -0.1448 -0.0640
23795W        W39689  15.252   1.634  13.251  0.3073  0.0562 -0.1185
23796W        W39690  16.134  15.192  14.490 -0.0183 -0.0856  0.1202
23797W        W39691   6.304   5.209  12.738 -0.0106 -0.3304  0.0277
23798W        W39692   3.935   9.288  13.187 -0.1185 -0.0072 -0.1569
23799W        W39693  10.745  16.855  12.025 -0.0615 -0.2698 -0.3270
23800W        W39694   5.635   1.349  12.526  0.0947 -0.0148  0.0360
23801W        W39695  11.032   9.243  11.419 -0.0676 -0.1712 -0.0843
23802W        W39696   0.231  15.496   2.018 -0.0947  0.0498  0.0392
23803W        W39697  16.010  17.188   2.325 -0.0261 -0.1479 -0.0134
23804W        W39698  10.208   9.105  16.210  0.0261 -0.1561  0.0748
23805W        W39699   4.320  10.556  16.885  0.0056 -0.1997 -0.3831
23806W        W39700   2.225  14.484   0.597  0.0232 -0.1304 -0.2103
23807W        W39701  17.218  16.964   1.889 -0.0158 -0.1836 -0.3103
23808W        W39702  13.970   1.545  14.866 -0.0569 -0.3066 -0.3058
23809W        W39703  10.262   8.032  15.264 -0.1122  0.0493  0.2538
23810W        W39704   7.980  14.673   2.741  0.0696  0.4507 -0.1968
23811W        W39705   0.045   0.160  13.205  0.2992 -0.2006  0.0627
23812W        W39706  17.501   8.599  16.881 -0.1520  0.1338 -0.0647
23813W        W39707  14.229  16.221  15.498  0.1546 -0.0735 -0.2212
23814W        W39708   0.995   8.657   4.897  0.3244 -0.3213  0.2900
23815W        W39709   1.510   5.677  12.280 -0.2611 -0.0122 -0.0436
23816W        W39710   0.138  12.499   3.252 -0.2202  0.3279  0.0010
23817W        W39711   9.774   3.749   3.280 -0.1588 -0.3269  0.2272
23818W        W39712  12.795  11.263   2.986  0.0164  0.0157  0.0101
23819W        W39713   0.788   5.041  16.202 -0.1489  0.1286  0.3812
23820W        W39714   9.883  16.372  13.941  0.0655  0.1838 -0.2081
23821W        W39715   7.673  10.175  13.207 -0.1294  0.2026 -0.0091
23822W        W39716   6.817   6.048   4.129  0.0742  0.0297  0.1213
23823W        W39717  11.626   2.679  14.705 -0.0751  0.1267 -0.0173
23824W        W39718  14.897  14.575   4.743 -0.1954 -0.2225  0.1741
23825W        W39719  13.243   2.067   2.575 -0.4565 -0.0827  0.2751
23826W        W39720   6.192  17.366   0.644 -0.0088  0.1541  0.1032
23827W        W39721  11.555   5.523   0.278  0.0607 -0.0525  0.0717
23828W        W39722  12.907   8.058  15.452  0.1412  0.1427  0.0101
23829W        W39723  11.743   9.243   0.943 -0.0943 -0.0558  0.0642
23830W        W39724   5.886   7.409   2.531  0.1535  0.0753 -0.1823
23831W        W39725  12.553  15.293  14.800 -0.0476  0.1833  0.0220
23832W        W39726  11.607  17.609  16.978  0.1819  0.0119 -0.3245
23833W        W39727   4.448  12.803   2.041 -0.2024  0.0974  0.0345
23834W        W39728   1.280  14.364   1.068 -0.3447  0.2769  0.1682
23835W        W39729  10.150  15.970  11.842 -0.0670  0.2536 -0.1543
23836W        W39730   6.283   8.588   1.212  0.2330  0.0008 -0.1197
23837W        W39731   3.359   2.425   5.103  0.3482  0.0684  0.0279
23838W        W39732  17.100   4.008   2.146  0.0025 -0.2986 -0.1277
23839W        W39733   8.030  15.911  15.235  0.0673 -0.1671 -0.0081
23840W        W39734   1.183   5.144   1.862  0.0919 -0.3091 -0.0793
23841W        W39735  13.464   3.840   6.233  0.1560 -0.1056 -0.0049
23842W        W39736   0.043  12.989   5.202  0.0770  0.1138  0.2220
23843W        W39737  17.609   4.271   0.979  0.3239 -0.0827  0.0082
23844W        W39738  14.448   9.237   1.384 -0.4282 -0.0856 -0.1250
23845W        W39739   3.504   0.607   5.009  0.1295  0.0355  0.0239
23846W        W39740   7.422   2.237   4.750 -0.0101 -0.0724  0.0805
23847W        W39741   5.061  17.097  12.798 -0.0487  0.1538 -0.1218
23848W        W39742  14.714   6.848   0.436 -0.1215 -0.3151 -0.0205
23849W        W39743   9.710   0.209   0.887 -0.0157 -0.0246 -0.0083
23850W        W39744   1.656   7.670   5.659  0.1495 -0.1446 -0.3228
23851W        W39745   7.793  12.182  13.423  0.2462 -0.0899  0.1601
23852W        W39746   3.795  10.737   6.352  0.2807  0.0890  0.1688
23853W        W39747   5.398  11.147   5.671 -0.0774 -0.3293  0.0241
23854W        W39748   7.887   8.453  13.882  0.1065 -0.1314  0.2342
23855W        W39749   6.069  14.214   4.390  0.1038  0.0388  0.2076
23856W        W39750  12.435   5.018   2.180  0.2348  0.1549  0.3203
23857W        W39751   6.082  14.560  13.020 -0.0649  0.3798 -0.3928
23858W        W39752   8.394   3.609  16.215  0.2232 -0.1628  0.3088
23859W        W39753  11.545  16.030  15.473  0.0491 -0.0192  0.2101
23860W        W39754   2.543  16.412  17.167  0.1468  0.0663  0.3650
23861W        W39755   2.023  16.495   1.906 -0.0901 -0.2198 -0.0873
23862W        W39756   8.935  13.602  15.423 -0.2324  0.1008  0.0001
23863W        W39757  11.044   3.421   0.270 -0.0474 -0.0500  0.1658
23864W        W39758  15.099   8.292   2.451  0.1876  0.0197 -0.2911
23865W        W39759   9.666   2.455   3.608 -0.2188  0.0701  0.1225
23866W        W39760   8.725   0.913  16.224 -0.0126 -0.0506  0.1351
23867W        W39761  15.721  12.659   5.112 -0.0234 -0.0124  0.2367
23868W        W39762  13.308   7.734  16.291  0.3028 -0.1169  0.1427
23869W        W39763   4.094  13.675  15.623 -0.3316 -0.1536  0.1589
23870W        W39764   4.470   4.162   4.417 -0.1770 -0.0778 -0.0603
23871W        W39765   7.780  15.852  13.255 -0.1236 -0.0524  0.1630
23872W        W39766  12.400  15.964  15.621 -0.2104  0.2606  0.0451
23873W        W39767   9.629  14.431  13.373 -0.0129 -0.3242  0.1709
23874W        W39768  12.693   0.208  12.915  0.0143  0.1328  0.1634
23875W        W39769   0.682   5.854   1.325 -0.2051 -0.2099  0.2216
23876W        W39770  10.496   7.774  16.385  0.0654 -0.0189 -0.1370
23877W        W39771   4.750   2.196   1.924  0.1387 -0.4973  0.3432
23878W        W39772  12.539  15.747   4.165  0.1000 -0.0138 -0.0663
23879W        W39773  17.045  11.971   1.963  0.1033  0.0232  0.0256
23880W        W39774  10.860  14.689   1.140  0.0826 -0.1885 -0.5295
23881W        W39775  12.852   3.686  13.837 -0.1261 -0.3135  0.0726
23882W        W39776  10.758   2.593   1.790 -0.2652  0.1239  0.2243
23883W        W39777   2.031   1.768   0.801 -0.3044  0.3625  0.0956
23884W        W39778  10.787  15.198  16.824  0.0149  0.1262  0.1083
23885W        W39779  11.735   7.339   4.062  0.2203  0.0384 -0.0742
23886W        W39780  17.100   8.841  14.333 -0.4262 -0.1329 -0.0490
23887W        W39781   3.252   9.449   6.027 -0.1096 -0.1228  0.1340
23888W        W39782   9.878   1.237  16.887 -0.2687  0.1630 -0.1029
23889W        W39783  14.371   2.413   3.029  0.0659  0.0741 -0.2290
23890W        W39784   9.654   0.659   4.408  0.1576 -0.0254 -0.1399
23891W        W39785  13.185   2.667   5.603 -0.1332  0.1821 -0.1025
23892W        W39786   5.536  13.864  15.112 -0.1503  0.0485 -0.2164
23893W        W39787  16.064   2.103   2.595 -0.0563  0.1063 -0.0367
23894W        W39788  12.896   1.546  13.425 -0.3485  0.2684  0.2239
23895W        W39789  12.927   2.798  17.195 -0.0473  0.3020 -0.0958
23896W        W39790  11.167   9.452   3.969  0.0784  0.1044 -0.1743
23897W        W39791   5.084  16.285   3.532 -0.0270 -0.0351 -0.1553
23898W        W39792   8.741   2.660   2.294 -0.0705  0.1574 -0.1793
23899W        W39793   0.612  11.153  11.621  0.1231 -0.3637 -0.0990
23900W        W39794   0.379  15.794   1.470 -0.1123  0.1136 -0.2460
23901W        W39795  11.937  16.749   5.111  0.2691 -0.1134  0.3528
23902W        W39796  12.655  12.136  16.530 -0.0073  0.1107 -0.0841
23903W        W39797   0.811  10.582  15.611 -0.0123 -0.0379  0.0343
23904W        W39798   4.108   1.700  14.729  0.0252 -0.1506  0.1937
23905W        W39799   0.031  14.205   4.613  0.0371 -0.2459  0.0799
23906W        W39800   1.357  14.786  13.369 -0.1316 -0.0397 -0.1997
23907W        W39801  15.944   7.176   1.468  0.0085 -0.1178  0.1963
23908W        W39802   8.303   5.450   1.127  0.0955 -0.0404  0.1872
23909W        W39803  15.046   8.303   4.471 -0.0343  0.0155  0.0917
23910W        W39804   7.068   0.979  11.974  0.1250  0.0583  0.0702
23911W        W39805   7.985  14.190   3.713 -0.0769 -0.1574  0.0335
23912W        W39806  14.625  16.507  17.218 -0.0294  0.0724  0.1016
23913W        W39807   3.434  13.778   0.402 -0.0020 -0.3535  0.0734
23914W        W39808   0.375   2.408  12.555 -0.0855 -0.0329  0.0155
23915W        W39809   2.400   2.404   2.142 -0.1327 -0.2882 -0.0503
23916W        W39810   2.650  11.139   3.666 -0.0512 -0.0700 -0.1797
23917W        W39811  13.196  14.711   0.350 -0.1666  0.4333  0.2898
23918W        W39812  10.356  17.249   5.604 -0.1583  0.0271  0.1736
23919W        W39813   4.072   7.873   0.698 -0.0036  0.1372  0.1418
23920W        W39814   0.732   0.873  15.195  0.1501 -0.0283  0.4292
23921W        W39815  13.326  12.935   2.323 -0.0260  0.1892  0.3458
23922W        W39816   2.050   4.410   3.891 -0.3522 -0.1637 -0.2799
23923W        W39817  16.525   6.443  14.615 -0.0431 -0.1003 -0.0830
23924W        W39818  12.805  16.540  16.183 -0.0923 -0.1617 -0.1420
23925W        W39819   5.221   7.379   3.852 -0.2376  0.0974 -0.0621
23926W        W39820  13.291   1.921  14.798  0.1351 -0.0958 -0.3995
23927W        W39821  15.654   8.862   5.576  0.1073  0.0037 -0.0027
23928W        W39822  15.338  16.526  12.941 -0.0008 -0.2754  0.1191
23929W        W39823  13.895   0.028  11.747  0.0525  0.1669  0.0102
23930W        W39824  14.752  14.277   5.112 -0.0979  0.0888  0.1289
23931W        W39825   6.854  13.350  12.392 -0.0639 -0.1515  0.2283
23932W        W39826  14.386  11.564  16.471 -0.4864 -0.0323  0.1728
23933W        W39827  10.344  15.161  17.154 -0.0864  0.0941  0.2721
23934W        W39828  12.259   7.957  15.360 -0.3582 -0.0555  0.3036
23935W        W39829   3.937   2.579  13.154 -0.0392  0.0399  0.2208
23936W        W39830   6.713  12.168  14.190  0.0108  0.0461 -0.2650
23937W        W39831   2.524   0.528   0.855  0.0301 -0.0264 -0.0812
23938W        W39832  10.480  16.214  13.080 -0.0191 -0.1893  0.0314
23939W        W39833   3.980   1.320   1.701  0.0818  0.1113 -0.1516
23940W        W39834  16.589  16.609   1.079 -0.0748 -0.0272  0.0465
23941W        W39835  11.054  13.102  12.379 -0.4326 -0.3139 -0.1184
23942W        W39836   5.319   9.039  15.580  0.0231 -0.1972 -0.0370
23943W        W39837  11.587  12.544   0.467  0.1778  0.2854 -0.0626
23944W        W39838  12.069   5.053  12.100 -0.1450  0.0249 -0.2680
23945W        W39839  11.089   8.918   2.822  0.1287 -0.2504  0.2672
23946W        W39840   5.582   1.186   0.792 -0.0951  0.0201  0.1097
23947W        W39841  15.441  17.559  14.147 -0.0574  0.2822 -0.1804
23948W        W39842   3.411  16.362   3.585  0.0522 -0.0523 -0.2567
23949W        W39843   4.473   2.418   6.008  0.2266 -0.2271 -0.1020
23950W        W39844   0.522   0.480  17.144  0.1962 -0.2072  0.0282
23951W        W39845   8.415   0.912  12.244 -0.0989 -0.2619  0.0612
23952W        W39846   1.281  16.008   0.888 -0.2346 -0.0939  0.0522
23953W        W39847  16.372   7.064   1.028  0.3435  0.1829  0.1462
23954W        W39848  14.609  11.358   3.979 -0.0936  0.2253  0.3177
23955W        W39849   3.840   5.714  15.250 -0.1504 -0.0268  0.0201
23956W        W39850   3.309  13.254   0.901  0.0851 -0.0639 -0.0520
23957W        W39851   7.610  14.989   0.986  0.1450 -0.3248 -0.0755
23958W        W39852   3.254   1.574  13.513  0.0390 -0.1313 -0.0891
23959W        W39853   7.087   5.403   0.256 -0.0871  0.1629 -0.1341
23960W        W39854  17.287   7.651  12.597 -0.0862  0.0265  0.1734
23961W        W39855   5.991  15.374   4.106  0.1130  0.1960  0.1074
23962W        W39856   4.705  11.924  16.298 -0.5306 -0.0238  0.3682
23963W        W39857  15.675  15.026   2.862  0.1107 -0.1454  0.1324
23964W        W39858  13.355   1.349  12.161  0.0612  0.1767 -0.0836
23965W        W39859  12.120   7.608  16.670 -0.3524  0.4003  0.0907
23966W        W39860   4.465   5.312  15.898  0.0691  0.0648  0.1339
23967W        W39861   1.840   4.744   6.176 -0.1700 -0.0496 -0.4000
23968W        W39862  12.659   2.601   6.215  0.0728  0.0308  0.1554
23969W        W39863  14.223  12.462  12.858 -0.2253  0.1403  0.2499
23970W        W39864   9.997  13.793  16.831  0.2122  0.1174  0.1489
23971W        W39865   0.899  12.110   4.807  0.0091  0.0030 -0.0044
23972W        W39866   0.166   6.428  14.957 -0.3001 -0.1876 -0.0183
23973W        W39867  11.087   2.222  11.262 -0.1873 -0.1057  0.3074
23974W        W39868   3.224  13.375   0.289  0.0685 -0.2112 -0.0458
23975W        W39869   7.124   1.467   1.055  0.1055 -0.3880  0.2759
23976W        W39870   8.707  12.061  12.968 -0.2342 -0.1731  0.0587
23977W        W39871  10.698  12.254  13.805  0.2685 -0.1271  0.0764
23978W        W39872   8.692  12.295   3.546 -0.2315 -0.3440 -0.3973
23979W        W39873  16.126   6.008   1.329  0.1450 -0.3850  0.3261
23980W        W39874   3.194   8.248  13.439 -0.1714 -0.3174  0.2474
23981W        W39875  16.293  15.598   2.786 -0.0388  0.1446 -0.2433
23982W        W39876  15.238   6.073  15.326 -0.0971  0.0642  0.2675
23983W        W39877  15.070  16.781   4.701  0.0456  0.0759 -0.1673
23984W        W39878  11.111  16.343  15.435 -0.2088  0.0436  0.4233
23985W        W39879  13.965  15.236  14.872 -0.3054  0.0259 -0.0907
23986W        W39880   3.630  17.527  13.045 -0.0516  0.1451  0.2208
23987W        W39881   4.942   1.060  12.064 -0.2113 -0.0393  0.0382
23988W        W39882  13.539  13.670  16.158 -0.2845 -0.1354 -0.3749
23989W        W39883   1.281  13.256  12.733 -0.1189 -0.2063 -0.3711
23990W        W39884   4.603  14.338   4.917 -0.2425  0.2010  0.1713
23991W        W39885   7.528   6.165  14.546  0.2242  0.0176 -0.0059
23992W        W39886  12.747   9.123   2.117 -0.0463 -0.0335  0.2211
23993W        W39887   9.385   0.432  17.262  0.2647 -0.1279  0.1665
23994W        W39888   6.631   1.401   4.035 -0.0806 -0.2269 -0.0091
23995W        W39889  16.006   5.738   5.218 -0.1302  0.3999 -0.0609
23996W        W39890   4.303  15.863  16.765 -0.1464 -0.1608 -0.1402
23997W        W39891  10.945  16.293  13.349 -0.0625  0.0583 -0.1745
23998W        W39892   3.170   2.255  13.638 -0.1917  0.3491 -0.1214
23999W        W39893   3.499  13.239   6.690  0.1179  0.0752  0.0983
24000W        W39894  10.460   5.942  16.128 -0.1818 -0.0146  0.0676
24001W        W39895  10.580   4.092  11.860 -0.1673  0.2080  0.0227
24002W        W39896   7.242   4.474   5.369 -0.1301 -0.2722 -0.0448
24003W        W39897  15.239  14.101   3.196  0.1890 -0.1834 -0.0256
24004W        W39898  15.055   6.867   1.414 -0.1040  0.0978 -0.0466
24005W        W39899  15.232  17.046   5.672  0.4479  0.3084 -0.0349
24006W        W39900   0.614   9.482  15.693  0.0304  0.3983 -0.1832
24007W        W39901   7.795  16.255  12.168  0.0395  0.0738  0.1973
24008W        W39902   8.727  17.545   0.537 -0.1465 -0.0920  0.5140
24009W        W39903   4.422  14.191  12.847 -0.1926 -0.0052  0.1050
24010W        W39904   9.923   5.303  15.701  0.1326 -0.1599 -0.3034
24011W        W39905   7.725   7.246  14.760 -0.0643  0.0450 -0.0613
24012W        W39906   3.233   9.590  13.780 -0.1361  0.0493 -0.1478
24013W        W39907   9.948  10.420   4.406  0.1481 -0.3052 -0.1800
24014W        W39908   8.568   5.309   4.641 -0.0231 -0.0987 -0.1930
24015W        W39909   9.865   3.413   2.857 -0.3868 -0.0079 -0.0081
24016W        W39910   3.677   1.329  12.433 -0.0547  0.1814 -0.1344
24017W        W39911  17.002  16.111   2.050 -0.1229 -0.1310 -0.1791
24018W        W39912   1.793   8.913   1.729 -0.1555 -0.2591 -0.0866
24019W        W39913   4.510  12.748  14.667  0.2739 -0.0523  0.1693
24020W        W39914  15.392   0.031  14.753  0.3276 -0.1190 -0.1738
24021W        W39915   3.074   3.700   5.248 -0.2085 -0.0280  0.1525
24022W        W39916   7.105   7.090  15.433  0.1105  0.1986  0.0224
24023W        W39917  12.803  17.162   6.150  0.2423 -0.0290 -0.0308
24024W        W39918  11.878   3.848   4.054  0.1154 -0.2116 -0.2332
24025W        W39919   0.443   7.659   0.994  0.0895 -0.0658  0.1456
24026W        W39920   1.985   3.537   1.292  0.1169 -0.0580 -0.0450
24027W        W39921   7.985   2.385  13.785 -0.0737 -0.2604 -0.2339
24028W        W39922   3.677   7.096   4.118 -0.0333  0.0869  0.0265
24029W        W39923   8.716   1.577  15.113  0.2428  0.2126 -0.0382
24030W        W39924  12.151   6.533  15.479  0.3043 -0.0534  0.2025
24031W        W39925   8.799   5.014  15.177  0.0423 -0.0534  0.0995
24032W        W39926   5.088  14.659   4.714  0.0388  0.2840  0.1419
24033W        W39927   9.591   6.485   0.368 -0.2265 -0.4925 -0.0756
24034W        W39928   0.028   7.186   1.763 -0.0370  0.3182  0.0620
24035W        W39929  11.557  12.854   5.611  0.2124 -0.0378  0.1979
24036W        W39930   2.181  15.794   4.139  0.0034  0.1767 -0.1633
24037W        W39931  10.954   5.765   5.319 -0.1568 -0.0043  0.3830
24038W        W39932  10.614   6.690   3.782  0.1705  0.0552 -0.0143
24039W        W39933   7.791  11.465  12.607 -0.2003 -0.2671  0.2105
24040W        W39934   5.779   3.665   5.075 -0.0563 -0.0231 -0.0099
24041W        W39935   3.866  12.708  11.897 -0.1329  0.0545 -0.1006
24042W        W39936  14.391   6.186  13.521 -0.0834  0.1278  0.1947
24043W        W39937   5.762  17.528   4.321  0.0277 -0.1712 -0.2025
24044W        W39938  14.125   4.309   3.087 -0.1552  0.2131 -0.0386
24045W        W39939   9.368   1.378  17.175  0.3003  0.0749  0.3575
24046W        W39940  17.201  15.489   0.009  0.0422 -0.2594 -0.3417
24047W        W39941   0.713   3.695   0.817 -0.0532 -0.1957 -0.0184
24048W        W39942  17.388  11.093  12.632  0.1464 -0.0841  0.1957
24049W        W39943   8.687   4.107   1.981  0.2200 -0.1472 -0.2132
24050W        W39944   8.018   6.115   3.199  0.0438 -0.1995 -0.0664
24051W        W39945  15.473   2.806   4.914  0.0348  0.0241  0.2965
24052W        W39946  12.559   7.100  15.592  0.3060  0.1817 -0.0558
24053W        W39947   1.969   1.899  12.333 -0.0703 -0.0056 -0.1000
24054W        W39948  10.020   2.376  12.753  0.0017  0.0540 -0.1499
24055W        W39949  13.945  15.550  16.230  0.0227 -0.1022  0.3155
24056W        W39950   3.622   7.955   1.433 -0.0436  0.0064 -0.0594
24057W        W39951  10.278   6.522   5.057 -0.1797  0.0379  0.1476
24058W        W39952  16.156  15.795   3.832  0.1632  0.0222  0.3992
24059W        W39953   9.470  11.093  13.493  0.1595  0.0693 -0.0362
24060W        W39954  16.187  11.674   5.502  0.4684 -0.0866 -0.0724
24061W        W39955   5.166  13.342   0.694  0.0199  0.0081  0.0335
24062W        W39956   0.274   5.998  12.588 -0.3719  0.1487  0.1609
24063W        W39957  16.415   8.521  12.900  0.1484 -0.5455  0.1077
24064W        W39958   8.763   2.272   3.213 -0.0670  0.1542  0.2628
24065W        W39959  15.589   2.576   2.585  0.1287 -0.1641 -0.1932
24066W        W39960   0.198  11.234  14.692  0.0894  0.1453 -0.1095
24067W        W39961   0.825   4.106  13.772  0.1146 -0.1191 -0.2884
24068W        W39962   2.416   8.232   3.051  0.0723  0.2183  0.0665
24069W        W39963  14.855   8.002  15.244 -0.1036 -0.0500 -0.2255
24070W        W39964   7.058   2.613   4.597 -0.0216  0.1456  0.3851
24071W        W39965   6.291   6.037   2.318  0.2865 -0.0528  0.1460
24072W        W39966  15.337   8.299  12.223  0.3932 -0.2478 -0.1161
24073W        W39967   2.741   8.323  16.748  0.2572 -0.2513  0.0459
24074W        W39968   1.104   4.629  15.013 -0.1026  0.0383  0.1511
24075W        W39969  17.025  16.777   4.635  0.4850  0.0232  0.2365
24076W        W39970  14.877   6.165   2.195 -0.0448  0.1781 -0.1108
24077W        W39971   4.570   4.230  12.698 -0.2401 -0.2191  0.0835
24078W        W39972  17.055  15.203  12.425 -0.4229 -0.2429 -0.2234
24079W        W39973  16.333  12.099  14.221 -0.2331 -0.4271 -0.2739
24080W        W39974   7.807  16.126   1.838  0.4116 -0.0069  0.1570
24081W        W39975  14.575   8.577   0.115 -0.0583  0.0146  0.0387
24082W        W39976   8.026  12.477   4.036  0.0488  0.0580 -0.1011
24083W        W39977   0.465   3.863   1.283  0.0575 -0.0668 -0.1196
24084W        W39978   6.365   8.982  13.837  0.1925 -0.1656  0.0117
24085W        W39979  10.023  13.628  13.377 -0.0908  0.1951 -0.0855
24086W        W39980  10.789  13.918   0.744  0.0407 -0.0849  0.1761
24087W        W39981   5.557   6.998   3.735 -0.2263  0.0935 -0.1300
24088W        W39982  15.655  15.589   5.131  0.1568  0.3978  0.0242
24089W        W39983   3.611  12.630   4.341  0.1352 -0.3925 -0.3887
24090W        W39984  10.609   0.987   3.764  0.2986 -0.5582  0.5253
24091W        W39985   7.074   2.999   2.842  0.1424 -0.1273  0.0013
24092W        W39986   5.590  15.623  15.195 -0.1306 -0.3643 -0.1439
24093W        W39987   1.618  15.274   0.443  0.0710 -0.0583  0.2737
24094W        W39988   0.897   1.444   2.651  0.2258 -0.0491  0.0462
24095W        W39989  16.389  16.104   1.283 -0.0315  0.0055  0.0555
24096W        W39990   5.480   9.593  14.818 -0.0807 -0.2252 -0.0464
24097W        W39991   2.060   6.539   2.440 -0.1206  0.1659  0.1128
24098W        W39992   9.247   2.293  14.473  0.0500  0.0300 -0.0069
24099W        W39993  16.449  13.394  14.383  0.1266 -0.0783  0.0939
24100W        W39994  12.856  16.370  15.741 -0.0516  0.2315  0.0552
24101W        W39995   0.341   1.488  16.209 -0.1545  0.2033  0.2393
24102W        W39996   1.925   6.470  13.824  0.3578 -0.0278  0.0367
24103W        W39997   9.993   8.374  16.735  0.2970  0.1035  0.0250
24104W        W39998  16.772   0.707   6.794  0.2519 -0.1773  0.1502
24105W        W39999   9.029  17.543  13.032 -0.2775  0.1914  0.1587
24106W        W40000   5.605  12.221   5.101  0.3143  0.1587  0.1022
24107W        W40001   4.647  14.406   1.284 -0.1735 -0.1464  0.4218
24108W        W40002   5.713   0.159   1.310 -0.1557 -0.2451  0.0146
24109W        W40003  10.064  12.592   3.798  0.1776  0.0393  0.0493
24110W        W40004   7.843   1.632   3.085 -0.2648  0.2487  0.1509
24111W        W40005   2.657   5.343  15.776  0.0477  0.2576  0.0222
24112W        W40006  11.256   8.914  15.459 -0.0530 -0.0685  0.1275
24113W        W40007  10.418   3.589  16.481 -0.1750 -0.1219 -0.2647
24114W        W40008   3.225   8.974   4.089 -0.4115 -0.3972  0.1636
24115W        W40009  12.333  13.077   0.215  0.2142  0.0372 -0.0046
24116W        W40010  14.779   1.863  12.956 -0.0674  0.0821  0.0612
24117W        W40011  15.083   0.923  15.057 -0.2005 -0.1065  0.0921
24118W        W40012  11.980   1.839  14.575  0.2969 -0.1428  0.4319
24119W        W40013  12.754  12.354  14.321 -0.0281 -0.2502 -0.2169
24120W        W40014  12.668   7.660  11.841  0.1014  0.0054 -0.0630
24121W        W40015  12.510   2.810   2.306  0.2701 -0.4470  0.0186
24122W        W40016  16.025  11.482   5.938 -0.1026 -0.5101  0.1728
24123W        W40017   2.581  14.156   4.232 -0.3112 -0.3472 -0.0296
24124W        W40018   5.974  14.431   3.941  0.0825  0.2282 -0.1434
24125W        W40019   9.712  17.168   2.126  0.0566 -0.0869 -0.2648
24126W        W40020   5.292   3.988  16.907  0.2606 -0.4057  0.0344
24127W        W40021   6.131   7.658  16.536  0.1944 -0.0570  0.3203
24128W        W40022   5.840   6.269  12.925 -0.2532 -0.1503 -0.0606
24129W        W40023   3.134   7.041  16.316  0.0417 -0.0223  0.0368
24130W        W40024   5.089  16.063   2.012  0.1755  0.1014 -0.1431
24131W        W40025   6.520   3.817   3.952 -0.1208  0.0825 -0.1615
24132W        W40026   4.204   2.932   5.963  0.0000  0.1621 -0.1896
24133W        W40027   8.240   6.175  11.655  0.3378  0.3736 -0.0742
24134W        W40028  10.414   1.340   1.505 -0.1193  0.2949 -0.0508
24135W        W40029   5.643   8.777   2.001 -0.2065 -0.4518 -0.1228
24136W        W40030  10.926   6.091  16.366 -0.1601 -0.0230 -0.1177
24137W        W40031   9.744  15.209  12.317 -0.0771  0.2874 -0.1409
24138W        W40032   8.506   8.458   0.159  0.0305 -0.1311  0.0803
24139W        W40033   6.135   9.128  15.495  0.3572  0.0154 -0.0599
24140W        W40034   3.016  14.978   4.561 -0.0397  0.0118 -0.0118
24141W        W40035   0.309  16.270   4.625  0.0466 -0.0674 -0.2770
24142W        W40036   6.900   0.896  12.446  0.0082  0.1695 -0.1125
24143W        W40037   3.525  11.906   1.175 -0.1091 -0.0319 -0.1134
24144W        W40038  15.662   3.871   5.898  0.0316 -0.3445 -0.0090
24145W        W40039  15.550   4.541  12.521 -0.0409 -0.1227  0.2458
24146W        W40040   5.281   9.571  13.472  0.1568 -0.2282  0.0843
24147W        W40041  10.250   9.043   1.968 -0.2090 -0.2003 -0.2181
24148W        W40042   1.734   3.112   5.355  0.1206 -0.0207  0.1099
24149W        W40043   2.882  12.225   2.180  0.2677 -0.2864  0.0028
24150W        W40044   9.685   7.785   2.831  0.0665  0.1596 -0.3409
24151W        W40045   3.391  13.537   4.423  0.0560  0.3152 -0.2828
24152W        W40046   7.140   0.461  15.415  0.0806 -0.6292  0.0122
24153W        W40047   4.629   2.382  16.055 -0.1248  0.3404 -0.2088
24154W        W40048  14.785   9.326  11.622  0.1011 -0.0468  0.0748
24155W        W40049   5.382   0.048   0.073 -0.4061 -0.2658  0.0835
24156W        W40050  15.610   8.067  16.468 -0.0599  0.0776 -0.2183
24157W        W40051   4.563   3.416   3.484  0.0138 -0.3406 -0.2802
24158W        W40052   8.274  13.523  12.671  0.0179  0.3048  0.0888
24159W        W40053   6.194  17.370  15.490 -0.0810 -0.0033 -0.2217
24160W        W40054  13.166  16.304   4.562 -0.0638 -0.0277  0.0992
24161W        W40055   3.462  15.141   4.785  0.1553 -0.2294 -0.2650
24162W        W40056   8.685   8.781   5.287 -0.0265  0.0890 -0.1899
24163W        W40057   8.511   3.253   2.369  0.5601  0.0448 -0.1513
24164W        W40058   0.099   9.431   0.444  0.1649  0.2168 -0.2413
24165W        W40059   1.603   6.815  14.119  0.0348  0.2667 -0.1872
24166W        W40060  13.955   5.250  16.345 -0.0582  0.4429 -0.1384
24167W        W40061   8.062  11.468  13.946 -0.1761  0.2610  0.0845
24168W        W40062   8.836   0.020   1.090  0.0598 -0.0352 -0.1406
24169W        W40063   4.685  16.633   4.876  0.2506  0.2103  0.1106
24170W        W40064   7.638   2.323  17.145  0.1654 -0.1703 -0.0973
24171W        W40065  15.156   5.854  14.562  0.3247  0.1869  0.0246
24172W        W40066  13.234  15.984  16.822 -0.1555 -0.3148  0.0396
24173W        W40067  10.524   8.873   5.542 -0.3203 -0.0269  0.0408
24174W        W40068   9.001   7.071  11.776 -0.0417 -0.1110 -0.2740
24175W        W40069  13.660  11.923  16.770 -0.2642 -0.2220 -0.1737
24176W        W40070   0.476   1.738   3.652  0.4533  0.0331 -0.3256
24177W        W40071  16.018   9.014  16.624 -0.2872 -0.0541 -0.0526
24178W        W40072  16.846  11.300  13.935 -0.1751  0.0439  0.0342
24179W        W40073  17.065  14.378   1.391  0.0543  0.2453  0.1495
24180W        W40074  13.307   6.497   5.494  0.2444  0.1767  0.1867
24181W        W40075   4.673   6.252   4.332 -0.3500 -0.0613  0.2968
24182W        W40076   0.527   1.065   2.578  0.2152  0.0980  0.0567
24183W        W40077   9.004   1.380   4.090  0.1382  0.0830 -0.0955
24184W        W40078  15.199   7.055   0.167 -0.0847  0.2320  0.0213
24185W        W40079   1.286  13.189  14.717  0.2301 -0.1792  0.1382
24186W        W40080  12.538  14.452  11.871 -0.1903  0.1414 -0.0239
24187W        W40081   5.450   6.091   2.577 -0.0729  0.1276  0.2932
24188W        W40082  12.726  15.542   1.387 -0.2952  0.1691  0.0483
24189W        W40083   6.081   1.144   0.291 -0.0282 -0.0664  0.2950
24190W        W40084  15.302   6.048   1.869 -0.1820  0.0321 -0.1823
24191W        W40085  14.725  12.537  16.142  0.1535 -0.1592 -0.1707
24192W        W40086   6.005   9.408  12.702 -0.2478  0.0856 -0.0532
24193W        W40087  12.408  15.019  16.390 -0.2808  0.0105 -0.0777
24194W        W40088   6.670   3.433   5.687 -0.0034  0.1501 -0.2045
24195W        W40089   8.438   0.829   0.832 -0.0595 -0.2233 -0.2183
24196W        W40090   2.628  17.564   3.898  0.0170  0.2097  0.2242
24197W        W40091  12.047   9.251  12.195 -0.1072 -0.1534 -0.0514
24198W        W40092   7.673   2.406  16.207 -0.2067  0.1715  0.0260
24199W        W40093   3.081   6.276   5.537 -0.2080  0.1706  0.1434
24200W        W40094   7.040  13.412  13.636  0.0910  0.1077  0.1122
24201W        W40095  11.695  12.450  15.821 -0.0881 -0.4825  0.2437
24202W        W40096   3.987  13.045  13.065 -0.2878  0.4306 -0.6472
24203W        W40097   6.655  15.133   0.652 -0.2048  0.2236 -0.1934
24204W        W40098   6.783   1.180   3.582  0.0270  0.1052  0.1235
24205W        W40099  13.938   8.570   3.537 -0.0164 -0.6123 -0.0491
24206W        W40100   6.153  11.087  12.024  0.0012  0.2670 -0.0503
24207W        W40101  10.736   4.266   4.886  0.1525  0.1586 -0.0053
24208W        W40102   6.927  16.578  16.785 -0.0413  0.0549  0.0807
24209W        W40103  12.184  11.582  14.357  0.1565  0.0951 -0.1515
24210W        W40104   5.629  16.194   2.154 -0.0077 -0.0604  0.2244
24211W        W40105   1.915   6.903   6.686 -0.1256 -0.2092 -0.0181
24212W        W40106   0.496   7.220   5.034 -0.0441  0.0324 -0.0262
24213W        W40107  16.226  16.630  13.429 -0.1777  0.3769 -0.2759
24214W        W40108   6.062   4.290  16.247 -0.1264 -0.1455 -0.0805
24215W        W40109   0.939   0.507   6.034  0.0470  0.1595  0.0724
24216W        W40110  12.878   0.052   0.732  0.2425 -0.1215 -0.1964
24217W        W40111   3.873   7.257  16.365  0.0351 -0.1380  0.0532
24218W        W40112   4.894   5.432  12.997 -0.0530 -0.0740 -0.3691
24219W        W40113  17.064  12.887   6.171 -0.1131 -0.0610 -0.0310
24220W        W40114   0.849  15.456   0.692 -0.0005  0.0051  0.2189
24221W        W40115   4.597   3.860   2.330 -0.0253  0.0785 -0.0735
24222W        W40116   9.506   6.381  14.442  0.0937  0.1429 -0.2431
24223W        W40117  15.773  13.757   2.652  0.0657 -0.1763  0.1185
24224W        W40118  10.748   3.200   2.465 -0.0841  0.0289  0.4876
24225W        W40119  13.436  17.059  15.164 -0.2600  0.0594  0.1770
24226W        W40120  15.306   1.391   6.110  0.1479 -0.0045 -0.0759
24227W        W40121  11.876   9.736   4.580  0.0227  0.0709 -0.1792
24228W        W40122   8.844   5.687   3.337  0.1984  0.1106 -0.0166
24229W        W40123   1.625   0.457   5.217  0.0523  0.2983 -0.1375
24230W        W40124  13.755   3.316   4.566 -0.1245  0.1697  0.1803
24231W        W40125  12.741   8.993   6.023  0.2107 -0.1521  0.2458
24232W        W40126   6.968   5.821  12.835  0.0083  0.2278  0.1238
24233W        W40127  15.069   8.824   4.602 -0.1950 -0.0057 -0.2233
24234W        W40128  13.833   2.012  14.649 -0.4263  0.1982  0.0857
24235W        W40129  17.232  11.072   0.033 -0.0121  0.1046 -0.0157
24236W        W40130  15.416   9.648   0.436  0.1087 -0.0211  0.1864
24237W        W40131   9.035  16.518  15.523  0.0042 -0.2924  0.2280
24238W        W40132  16.960   4.828  11.950  0.0364 -0.2417  0.0597
24239W        W40133   1.919   2.111   5.642  0.2483  0.1026  0.1869
24240W        W40134   4.031   3.215   0.551  0.2448  0.1068  0.0580
24241W        W40135  15.194   0.819   2.719  0.1842 -0.0759 -0.2319
24242W        W40136  14.794   9.867  13.376  0.1014  0.1948 -0.0856
24243W        W40137   6.654  15.186  17.130  0.0069  0.0367 -0.0178
24244W        W40138   5.426   1.654   2.221  0.2267  0.0035  0.2756
24245W        W40139  14.392  15.785   0.264  0.3354  0.0832 -0.2720
24246W        W40140  17.387   2.366  13.113 -0.2517  0.2375  0.4021
24247W        W40141   8.353  12.042  13.399 -0.1005  0.0788 -0.0245
24248W        W40142   6.416   2.262  16.102  0.1625 -0.0435  0.1570
24249W        W40143   7.293   4.990  13.244  0.1864 -0.0341 -0.0901
24250W        W40144   2.131   7.136   6.299 -0.1330  0.3006  0.1278
24251W        W40145  12.404  13.062  16.926 -0.0242  0.0261 -0.1182
24252W        W40146  14.484   0.794   0.070 -0.1465 -0.3510  0.0764
24253W        W40147  16.241  17.082   1.884  0.0196  0.0379 -0.2884
24254W        W40148   2.921  15.942  13.127 -0.1239 -0.1270 -0.0086
24255W        W40149  17.471   0.547  12.731 -0.0809 -0.3010  0.1622
24256W        W40150  12.382   1.923  14.369  0.0060 -0.2204  0.0881
24257W        W40151   5.044   4.301  12.424  0.0721 -0.0223 -0.1983
24258W        W40152  10.846   9.676  15.436  0.0219 -0.3323 -0.2994
24259W        W40153   2.445  14.876  16.567 -0.0327  0.1570 -0.1381
24260W        W40154  15.700  10.755   5.655  0.0189 -0.0306  0.2781
24261W        W40155  10.325  14.331   2.598  0.0715 -0.0733 -0.3080
24262W        W40156   3.723  13.855   6.720  0.0148  0.0744 -0.0084
24263W        W40157   2.633   7.722  15.265  0.2173 -0.1219  0.2059
24264W        W40158  15.637  12.367  16.171  0.0302 -0.0948 -0.3728
24265W        W40159   0.440   0.969   0.574  0.4680  0.1422  0.0384
24266W        W40160   3.279  11.023   4.044 -0.2958  0.1831 -0.1319
24267W        W40161  10.011  16.032   1.834  0.1898 -0.2607  0.1496
24268W        W40162   5.588   8.400   5.036  0.0604 -0.0495 -0.2722
24269W        W40163   2.547  16.832   0.329  0.2001 -0.0124 -0.1040
24270W        W40164  14.806  15.582   2.934 -0.2843  0.0418  0.3547
24271W        W40165   6.483   3.203   4.056  0.2399  0.0150 -0.2692
24272W        W40166  10.345  14.124   5.417  0.2804  0.0838  0.2132
24273W        W40167   1.990  13.140  15.481  0.1462 -0.0274 -0.2418
24274W        W40168   5.886   5.915   0.444  0.3059  0.0917 -0.1474
24275W        W40169   8.347   2.435   2.971 -0.2218  0.2288  0.0760
24276W        W40170  17.176  15.546  13.348 -0.3223 -0.1871  0.1866
24277W        W40171   7.229  10.085  13.031 -0.0385  0.0753 -0.1247
24278W        W40172   2.796   3.119   2.099 -0.0226 -0.0731 -0.0200
24279W        W40173   1.434   7.578  17.229 -0.1491 -0.0893 -0.0232
24280W        W40174   6.878  11.011   2.457  0.1757  0.3402  0.0741
24281W        W40175  13.331  10.715  16.165 -0.0906 -0.2426  0.0066
24282W        W40176   4.590  11.716   0.243 -0.1652 -0.0569  0.1465
24283W        W40177  10.159   7.081  11.010  0.0667 -0.0532 -0.0234
24284W        W40178   2.040  15.848   1.791  0.1875 -0.0544 -0.1244
24285W        W40179  12.144   5.006  12.633 -0.3053 -0.0726 -0.3118
24286W        W40180   0.882  13.602  12.791 -0.1971 -0.3839  0.1533
24287W        W40181   3.699  12.176   2.724  0.1426 -0.0558  0.0570
24288W        W40182   6.329   9.731   2.149  0.2432  0.2854 -0.1638
24289W        W40183   6.627   4.011   0.427 -0.0126 -0.1360  0.1236
24290W        W40184  17.290   2.094   0.072 -0.2908  0.1416  0.0352
24291W        W40185   7.606   8.303   4.832  0.3009 -0.1680 -0.0901
24292W        W40186   9.169  15.252   4.362  0.0042 -0.0467  0.0997
24293W        W40187  10.862   9.240   5.587  0.0700 -0.1095 -0.0422
24294W        W40188  15.858   3.653   0.058 -0.2016 -0.2919 -0.2401
24295W        W40189  10.858  13.052   0.266 -0.0620 -0.0557  0.0533
24296W        W40190  10.886   2.999   4.175 -0.0854 -0.0713 -0.1139
24297W        W40191  14.455  17.083   5.480 -0.1028 -0.0491 -0.0987
24298W        W40192  16.081   3.973   2.884 -0.0678 -0.4870  0.1416
24299W        W40193   4.343   4.412   0.037  0.0484 -0.0971 -0.1560
24300W        W40194   8.731   5.612   2.849  0.1404 -0.0365  0.1762
24301W        W40195  16.495  15.939  13.913 -0.1238  0.1083 -0.0077
24302W        W40196  10.876   6.770  13.740 -0.1524 -0.3012 -0.1763
24303W        W40197  14.934  16.522   1.296  0.1596 -0.3213  0.1243
24304W        W40198   2.398  13.554  14.730  0.2633  0.0163  0.0021
24305W        W40199   9.594  14.818  12.542  0.1943 -0.0454  0.0572
24306W        W40200  10.274   0.115  12.930 -0.4875 -0.0726 -0.0191
24307W        W40201   0.326   3.199   0.109 -0.0226 -0.0420  0.3633
24308W        W40202   9.634  13.990  12.591  0.0650 -0.2770 -0.1489
24309W        W40203   3.612   5.136   4.687 -0.0663  0.1929 -0.0487
24310W        W40204  16.583   3.430   4.715  0.0410  0.0113  0.2837
24311W        W40205  12.300   1.428  16.583  0.1459  0.0851 -0.1247
24312W        W40206   6.681   5.682  15.160 -0.1462 -0.1876  0.1200
24313W        W40207   9.181   5.699  11.521  0.1372  0.2448 -0.0190
24314W        W40208  15.131   5.242   5.262 -0.2601  0.0144 -0.0670
24315W        W40209   3.902  13.854   3.259 -0.0461  0.2246 -0.3168
24316W        W40210   9.864   9.097  16.622  0.0034  0.1023 -0.0758
24317W        W40211   5.129   0.556   6.450  0.0293 -0.2612 -0.1142
24318W        W40212  16.679  15.523   3.624 -0.0940  0.2033  0.1147
24319W        W40213   3.052  12.105  12.674  0.2705 -0.2536 -0.0873
24320W        W40214   2.107   4.009  16.421 -0.0768  0.0449 -0.1782
24321W        W40215  12.565  16.554   2.134  0.1833 -0.0120 -0.1967
24322W        W40216   2.409   9.829   1.949  0.1178  0.2101 -0.0769
24323W        W40217  13.516   9.223   2.375  0.2312  0.4049  0.2657
24324W        W40218   5.744   4.665  13.513 -0.1951  0.1094 -0.1340
24325W        W40219  14.605  11.229   2.689  0.4751  0.1617  0.1435
24326W        W40220  10.878  15.831  13.171  0.2533 -0.0348  0.1160
24327W        W40221  12.814   1.977   4.887 -0.1950  0.3049 -0.0127
24328W        W40222  13.687   2.214   1.367 -0.2861  0.0415 -0.1881
24329W        W40223  17.580  14.370  13.886 -0.0141 -0.3112 -0.0871
24330W        W40224   8.958  11.937  12.101  0.0819 -0.0863 -0.2932
24331W        W40225   6.808  17.055  15.459  0.1049 -0.1051  0.0135
24332W        W40226   0.139  17.302   3.140 -0.1515  0.4677  0.1518
24333W        W40227   2.617  15.724   1.338  0.1122 -0.2539  0.2500
24334W        W40228   7.396   1.771  14.216 -0.0427  0.1941 -0.1381
24335W        W40229   1.145  16.752  15.569  0.1304  0.0754  0.1123
24336W        W40230  13.067  12.354   1.224 -0.2089 -0.0284 -0.1144
24337W        W40231   6.384   7.257  17.253  0.0164  0.1711 -0.0398
24338W        W40232  13.778   6.400   4.199  0.2668  0.2209 -0.1657
24339W        W40233  10.742  12.124  11.461 -0.0262 -0.1671 -0.0418
24340W        W40234  17.197   6.113  14.142 -0.0221  0.0540 -0.1347
24341W        W40235   4.018  12.844   1.225  0.2663 -0.0977 -0.1261
24342W        W40236  16.977  10.303  15.884  0.2846  0.2298 -0.0009
24343W        W40237   6.268  12.574   0.560  0.2194 -0.3946 -0.3609
24344W        W40238   5.350  14.868   5.534  0.0743  0.2491  0.0491
24345W        W40239   9.385  14.643  15.261 -0.0076  0.1293 -0.2969
24346W        W40240  12.098   1.610  12.526 -0.0249 -0.1322 -0.0560
24347W        W40241   7.618   3.873  11.369  0.1169 -0.0793  0.3167
24348W        W40242   7.891   7.321  11.075  0.0356  0.1159  0.2819
24349W        W40243  15.526   9.582   1.271 -0.1613 -0.1099 -0.1406
24350W        W40244  15.030  15.828  12.439 -0.0822  0.4137 -0.0006
24351W        W40245   6.625   0.176  16.767 -0.2000  0.0885  0.3091
24352W        W40246   5.261  16.590  14.942 -0.1337  0.0742 -0.0968
24353W        W40247   6.203   8.783   4.914  0.0327  0.2380 -0.2378
24354W        W40248   3.449   9.963   4.006 -0.1791  0.0073  0.0242
24355W        W40249  16.904   1.742   5.235  0.0715  0.0177 -0.2556
24356W        W40250   7.993   7.386  12.502 -0.0291 -0.0038  0.2183
24357W        W40251   2.423   6.672   4.582 -0.0656  0.2836  0.1636
24358W        W40252   6.804   7.233   0.952 -0.0660 -0.0228 -0.1830
24359W        W40253   0.592  13.750   2.366  0.3323  0.1905 -0.0572
24360W        W40254  16.980  11.686   3.642  0.3200  0.2697 -0.1907
24361W        W40255  17.063   5.884   5.816  0.2108  0.2623  0.0982
24362W        W40256   1.414   3.990   0.681 -0.0768  0.2968 -0.1657
24363W        W40257   3.153   5.034   0.889 -0.0504  0.0597  0.0474
24364W        W40258   8.428  13.852  14.877  0.0331  0.2508  0.0977
24365W        W40259  11.350   2.150  16.160  0.0675 -0.2196  0.1690
24366W        W40260  16.670   9.442  14.925 -0.4086 -0.0610 -0.1032
24367W        W40261   9.329   2.253   3.951  0.0687 -0.0024  0.2158
24368W        W40262  14.610  10.290  13.080  0.1427  0.3600 -0.2619
24369W        W40263   1.097   4.215  11.681  0.0473 -0.0016  0.2746
24370W        W40264  13.451  10.415  12.808 -0.1989  0.4446  0.4018
24371W        W40265   9.984  15.346  10.741  0.2751 -0.0928  0.3680
24372W        W40266   7.224   7.454   6.706 -0.2242 -0.0554 -0.2218
24373W        W40267  10.323   7.901  13.917 -0.1315  0.0007 -0.2654
24374W        W40268   5.417  16.921   6.053 -0.2682 -0.0525 -0.0877
24375W        W40269   5.725   9.259  15.744  0.0690 -0.0857 -0.3130
24376W        W40270   6.929  15.710  14.899  0.0222  0.1617 -0.1184
24377W        W40271  11.138   8.757  12.666 -0.2598 -0.0636  0.1789
24378W        W40272   4.156  12.900   0.743 -0.1421 -0.2805 -0.1805
24379W        W40273   6.706  10.269   2.784 -0.2935 -0.0829 -0.1657
24380W        W40274   9.182   5.448  12.507 -0.1859 -0.0510  0.1381
24381W        W40275   7.239   3.691   2.072  0.2249 -0.2999 -0.2701
24382W        W40276   8.852  14.795   1.633  0.2547  0.2615  0.0064
24383W        W40277   7.263   5.980  11.931 -0.0728  0.0965 -0.1531
24384W        W40278   5.798  12.642   0.342 -0.0757  0.2398 -0.1634
24385W        W40279  10.448   3.296  15.019  0.2090  0.2815  0.4164
24386W        W40280  11.170   6.848  12.593  0.1598  0.2316  0.0149
24387W        W40281   4.387  10.336   3.593  0.0855 -0.0878 -0.2295
24388W        W40282   3.749   2.076   5.971 -0.3006 -0.0801 -0.3025
24389W        W40283   5.281  11.347  13.957  0.1206 -0.1481 -0.0813
24390W        W40284   0.688  10.412   4.414 -0.1573  0.2865  0.2358
24391W        W40285   5.923   2.887   3.659 -0.0717 -0.0467  0.1062
24392W        W40286  10.280   1.101  14.363  0.0037  0.0590 -0.3315
24393W        W40287   6.486  15.726  15.861 -0.1777 -0.2522  0.0586
24394W        W40288   9.352   2.495   5.347 -0.1231 -0.0581  0.0673
24395W        W40289   1.356   6.049   2.860  0.1401  0.0432 -0.3063
24396W        W40290   7.970   1.756  13.678  0.3444  0.2336  0.1294
24397W        W40291   4.246   6.530  13.630 -0.0709  0.1533  0.2274
24398W        W40292   9.177   8.727   3.881  0.1407 -0.1672  0.2945
24399W        W40293  17.246   1.986   4.513  0.2426 -0.0170 -0.2235
24400W        W40294  17.432  13.641  15.601 -0.0838 -0.1303 -0.1299
24401W        W40295   1.224  10.912  13.341  0.2229  0.1525  0.0317
24402W        W40296  11.431  16.641  12.592  0.1900 -0.2149  0.1098
24403W        W40297   0.233   5.263   5.880 -0.0994 -0.0585 -0.3022
24404W        W40298  17.446  16.419  15.942  0.3943  0.0381  0.1083
24405W        W40299  17.059   0.569  15.400  0.0678  0.0259  0.1391
24406W        W40300   9.460  12.735   3.555  0.3000  0.0678 -0.0907
24407W        W40301   6.143  14.514  14.184  0.1948 -0.0821 -0.3252
24408W        W40302  11.490  12.322  17.217  0.0876  0.3175 -0.1579
24409W        W40303  16.442   0.981  11.863  0.1064 -0.2856 -0.1074
24410W        W40304  16.561   8.971  12.697  0.0875  0.2042  0.1597
24411W        W40305   7.628  12.833   2.238 -0.1142 -0.0268 -0.2053
24412W        W40306   5.030  12.573   4.314  0.1515  0.1822 -0.0392
24413W        W40307  10.665   3.549   5.793 -0.0517  0.2955 -0.2593
24414W        W40308   4.766  10.650  14.390 -0.0165  0.0525  0.2237
24415W        W40309   9.860  13.725  11.860  0.2566  0.3108  0.1115
24416W        W40310  17.351  10.584   3.260 -0.0656  0.0981 -0.2236
24417W        W40311   5.759   9.618  16.173 -0.2085 -0.0338  0.0530
24418W        W40312  15.803  10.926  16.416  0.2586 -0.0112  0.0819
24419W        W40313  14.612   7.083  15.079 -0.0798  0.3036 -0.0403
24420W        W40314  13.520   7.906  15.026 -0.1847  0.1285 -0.0241
24421W        W40315   3.854  10.250  11.271 -0.0451  0.1321 -0.1684
24422W        W40316   3.573  16.410   2.752 -0.0149  0.2371 -0.0108
24423W        W40317   9.997   9.523  16.506 -0.1044  0.2569 -0.4037
24424W        W40318  14.089  16.046   2.370  0.0675 -0.1681  0.1032
24425W        W40319   1.730   8.382   1.871  0.2001 -0.1285  0.2823
24426W        W40320   0.047   2.818  16.166 -0.2392  0.0439 -0.0924
24427W        W40321   6.081  15.058   1.331 -0.0486 -0.1576  0.1293
24428W        W40322   1.473   8.628   1.003  0.1907 -0.3489 -0.0774
24429W        W40323  10.947   1.628   4.373 -0.1780  0.0781 -0.0306
24430W        W40324  13.344   6.157   0.421  0.1430  0.2741 -0.1360
24431W        W40325   9.721  15.623  16.667 -0.1126 -0.1101  0.1417
24432W        W40326   2.749   1.169   2.375  0.2069  0.3225  0.0535
24433W        W40327  17.380   4.446  13.005 -0.1084 -0.0489  0.2509
24434W        W40328  14.446  13.995   3.760  0.1998 -0.2191  0.0752
24435W        W40329  14.924   3.231   3.750 -0.3390  0.1654 -0.3707
24436W        W40330   1.646   3.385  13.975  0.0233  0.2846  0.2442
24437W        W40331   1.416  14.966   3.423  0.1239 -0.0166  0.0489
24438W        W40332   3.062  10.725  16.629 -0.0568  0.0661 -0.0476
24439W        W40333  14.309   6.578   4.323 -0.0577 -0.0557  0.1265
24440W        W40334   6.466   3.822   0.987 -0.0835  0.1295 -0.1641
24441W        W40335   7.921  10.771   1.441  0.0371 -0.3610 -0.3265
24442W        W40336  14.491   3.248   5.311 -0.1746  0.2324  0.0959
24443W        W40337   6.509   4.291   4.870 -0.2093  0.2243  0.1513
24444W        W40338   6.349   2.127  17.161 -0.0481 -0.0349  0.2233
24445W        W40339  14.216  10.172   0.990  0.3937  0.1218  0.1021
24446W        W40340  10.301   7.966  17.232  0.0149  0.1689 -0.2587
24447W        W40341   4.348   4.261  15.806 -0.2202 -0.0192  0.0721
24448W        W40342  17.220  15.552   1.170 -0.3984 -0.0115  0.4037
24449W        W40343   0.196   8.551   4.918 -0.2079 -0.2725 -0.0223
24450W        W40344  16.576   2.097  13.478 -0.1523  0.1806  0.0293
24451W        W40345   9.711   7.519  11.689 -0.2644 -0.1663 -0.1185
24452W        W40346   7.379   0.360   1.857 -0.0479  0.1993  0.4198
24453W        W40347   3.968   1.972   4.424  0.0443  0.0299  0.1614
24454W        W40348  11.198   4.005  14.011  0.1742 -0.2363 -0.0963
24455W        W40349   3.484   5.310  15.176  0.1742 -0.2364 -0.1467
24456W        W40350  13.821  14.519  14.351 -0.1349 -0.0825 -0.0813
24457W        W40351   0.136  12.347  15.456 -0.1126  0.1528  0.0097
24458W        W40352   0.394  11.328  13.033  0.4225  0.0847  0.0404
24459W        W40353  12.385   1.674   0.442 -0.2591  0.0302  0.0124
24460W        W40354   2.084  11.306  17.109 -0.0537  0.1294  0.0808
24461W        W40355   3.469  12.611  14.578  0.1706  0.0039 -0.2436
24462W        W40356   7.898  12.140  16.293 -0.1370  0.1378 -0.1293
24463W        W40357   2.978   2.681   2.617  0.1976 -0.0810  0.1212
24464W        W40358  15.270   7.599   0.880  0.1500 -0.3344  0.2727
24465W        W40359   2.084  10.463  15.004  0.1620  0.1008 -0.0506
24466W        W40360   4.764  13.684   0.024  0.4531  0.0741  0.0842
24467W        W40361  16.765   0.434   6.107  0.1786 -0.0536 -0.0054
24468W        W40362  12.763   2.057  15.542  0.0153  0.0030 -0.0681
24469W        W40363   4.055  13.635  17.081  0.0073 -0.1937 -0.1724
24470W        W40364  11.615  16.721  14.875 -0.1115 -0.1369 -0.0879
24471W        W40365  10.528  16.824   2.811  0.0484  0.2294  0.0700
24472W        W40366  12.682   9.517  14.074 -0.1164 -0.1495  0.0495
24473W        W40367   8.263   1.266   5.843 -0.0064 -0.2304 -0.0657
24474W        W40368   5.480   9.675   1.800  0.0063 -0.2679  0.2156
24475W        W40369  15.566   9.311  15.068  0.2300  0.0443 -0.1531
24476W        W40370   2.059  15.180  16.817 -0.1377 -0.1437 -0.0396
24477W        W40371  13.331   6.427  14.117  0.0135  0.1243 -0.5392
24478W        W40372  13.078   0.198  13.819 -0.1221 -0.0060 -0.3478
24479W        W40373   3.843   7.790   2.562  0.1430  0.0043  0.4666
24480W        W40374  17.180  11.491   4.094  0.0543 -0.3132  0.4824
24481W        W40375  13.303  14.119  13.185  0.2037 -0.0912  0.3236
24482W        W40376   9.112   7.141  14.502 -0.1776  0.0057  0.1555
24483W        W40377  10.060  13.286   5.368 -0.0635 -0.1261  0.0603
24484W        W40378   5.147  10.934  13.137 -0.3989 -0.0039  0.1790
24485W        W40379  10.421  17.488  13.746 -0.1910 -0.3145  0.3298
24486W        W40380   3.475   1.747   4.108 -0.0315  0.1194  0.2647
24487W        W40381   6.759  15.908   5.898 -0.3122  0.2553 -0.0593
24488W        W40382   3.295   4.548  12.506  0.1807  0.2760  0.1608
24489W        W40383  10.771   9.910  16.437  0.1619 -0.0274  0.5468
24490W        W40384  16.666   8.245   5.708 -0.0032 -0.0106 -0.0383
24491W        W40385  17.110  14.649  14.644 -0.4162 -0.0664  0.1290
24492W        W40386   8.746  11.680   1.905  0.0470  0.0097  0.2279
24493W        W40387   1.923   4.253   2.927 -0.1518  0.1291  0.2557
24494W        W40388   8.402   7.907  15.743 -0.1560 -0.1480  0.1193
24495W        W40389   6.829  16.035   0.292 -0.1147  0.4020 -0.2372
24496W        W40390  10.577   5.410   5.616 -0.1446 -0.0630 -0.3061
24497W        W40391  13.967   5.848  14.139 -0.0407  0.1941  0.1027
24498W        W40392   8.300   4.189  12.517 -0.1111  0.1211 -0.0637
24499W        W40393  14.132  10.995   5.089 -0.1244 -0.0151 -0.4182
24500W        W40394   1.662   3.591  15.281 -0.1121 -0.0418 -0.1015
24501W        W40395  15.214  12.282   3.066 -0.0512 -0.0844  0.1456
24502W        W40396   2.676   3.577   3.867 -0.1108  0.2043  0.2119
24503W        W40397   3.542  16.274  12.877  0.0415 -0.2035 -0.1630
24504W        W40398   1.960  16.303   1.466  0.0343  0.1259 -0.4414
24505W        W40399   2.390   0.737  13.979 -0.0975 -0.0141  0.2507
24506W        W40400   7.051   2.684  12.194 -0.3545 -0.0072  0.0459
24507W        W40401   6.785   4.389  15.748  0.3315  0.1946 -0.0792
24508W        W40402  15.584   3.191  16.931 -0.0337 -0.0612  0.0017
24509W        W40403   3.197  11.830  16.016 -0.0515 -0.1616  0.2167
24510W        W40404   4.009  14.700  12.131 -0.0653 -0.2386  0.1100
24511W        W40405   4.374   2.772   1.820  0.1070 -0.1482 -0.2321
24512W        W40406   1.126   6.493  13.197 -0.2869  0.0423 -0.2435
24513W        W40407  13.671  17.245  16.330 -0.1625 -0.0248 -0.2172
24514W        W40408  13.825   4.263   4.583  0.1369 -0.1253 -0.2009
24515W        W40409  15.626   5.361  17.197  0.1237  0.2806  0.1613
24516W        W40410  13.040  17.219   2.312 -0.1399  0.2351  0.2937
24517W        W40411   8.066  16.200  13.587 -0.1189 -0.1224  0.1035
24518W        W40412   2.441  15.985  16.960  0.0902  0.0490 -0.1107
24519W        W40413  12.334   5.049  11.681 -0.1322 -0.2105 -0.2831
24520W        W40414   7.007  10.312  15.613 -0.1846  0.1111 -0.1640
24521W        W40415   7.101   1.481  17.009  0.0494  0.0726 -0.1074
24522W        W40416  10.480  10.751  17.028  0.0051  0.1744 -0.0655
24523W        W40417   2.903  14.570   0.140  0.3273 -0.2113 -0.2356
24524W        W40418   6.018   6.423   1.088 -0.3379  0.2808 -0.1205
24525W        W40419  16.015   3.381  12.651  0.1387 -0.1239  0.3121
24526W        W40420   2.455  10.168   1.465 -0.2708  0.2230  0.2679
24527W        W40421   6.731   2.299  12.247 -0.0983 -0.0769  0.1039
24528W        W40422   5.414   8.227   4.520 -0.2936 -0.3496  0.0796
24529W        W40423  14.720   9.517   3.751 -0.1347 -0.1025  0.0380
24530W        W40424  17.450   3.607  16.882  0.2151 -0.1627  0.0332
24531W        W40425   2.100  16.652   3.707  0.0302  0.2753 -0.0421
24532W        W40426  15.956   1.221  16.854 -0.0902 -0.1396  0.0527
24533W        W40427   6.963   8.187  15.297 -0.3193  0.2515  0.0286
24534W        W40428   9.671   4.953  15.320 -0.0107 -0.0140 -0.1783
24535W        W40429   6.430   0.547   5.889 -0.0562 -0.2008 -0.1790
24536W        W40430  14.771   6.815  12.975  0.0003 -0.3413 -0.2500
24537W        W40431  16.615   7.040  11.707 -0.2082  0.1794  0.3560
24538W        W40432   3.865  12.872  13.562  0.5882  0.2506 -0.2382
24539W        W40433  15.891  16.351   4.359  0.2163  0.1018  0.0932
24540W        W40434   8.613   1.880  12.902 -0.2156  0.0148  0.1343
24541W        W40435   2.104  10.295   2.608  0.0692 -0.4403  0.1974
24542W        W40436   8.880  11.330  17.111  0.1729 -0.0539 -0.3729
24543W        W40437  16.501   8.837   5.588 -0.1911 -0.1377 -0.1004
24544W        W40438   2.768  14.646  12.461 -0.2064 -0.0454  0.0277
24545W        W40439   1.354   6.140   4.776  0.1897  0.0370 -0.0372
24546W        W40440  13.678   4.806  13.659  0.2342 -0.2678 -0.1036
24547W        W40441   4.423   6.135   5.515 -0.1274  0.0490 -0.2388
24548W        W40442  13.525  15.105  16.373  0.0310 -0.1529 -0.1801
24549W        W40443   9.592   1.094   4.653  0.3209 -0.1664  0.0360
24550W        W40444   5.234   3.781   0.963  0.0819 -0.1913 -0.1960
24551W        W40445   7.645   2.294  14.156  0.2716 -0.2914 -0.1453
24552W        W40446   8.274  15.370   3.049 -0.1365 -0.0045 -0.1577
24553W        W40447  15.674   3.068   1.804 -0.2066 -0.1416 -0.2371
24554W        W40448  16.864   4.811  13.835  0.3356 -0.2336  0.1127
24555W        W40449  10.534  17.544  15.972  0.0845 -0.2144  0.1592
24556W        W40450  14.363   8.283  12.561 -0.1963  0.0083 -0.2140
24557W        W40451   6.594   6.631  15.613  0.2017 -0.2753  0.1642
24558W        W40452  11.132  14.755   5.582 -0.3254 -0.0675  0.0573
24559W        W40453   9.405   4.932  14.385 -0.0551 -0.0997 -0.1035
24560W        W40454  17.048   7.213   4.107 -0.0535  0.0616 -0.0330
24561W        W40455  11.753  16.123   1.263  0.1962 -0.0646 -0.2047
24562W        W40456   6.682   2.143  12.695  0.2140  0.0744 -0.2842
24563W        W40457   3.058   0.894   1.869 -0.2186 -0.1342 -0.1916
24564W        W40458  14.945   4.458   5.668 -0.2567  0.0404 -0.1853
24565W        W40459   3.047   6.023   1.432 -0.1886  0.2090  0.0374
24566W        W40460  12.264  10.219  13.786 -0.0225 -0.0049  0.0514
24567W        W40461  13.848  12.420   4.252 -0.3994 -0.3121 -0.1941
24568W        W40462   8.459   8.874   0.642 -0.0424  0.0510 -0.1986
24569W        W40463   9.959  11.582  15.792 -0.1440  0.4287 -0.2215
24570W        W40464   5.870  10.041   3.340  0.0509  0.3828 -0.0775
24571W        W40465   9.495  14.061   5.656  0.1380  0.1765  0.4922
24572W        W40466   2.270   7.499   0.974  0.1012  0.2560  0.1029
24573W        W40467  10.779  12.843  12.697  0.0333  0.1261 -0.1130
24574W        W40468  16.247   5.874  12.693  0.0932  0.0249  0.1807
24575W        W40469  11.885   1.893  15.915  0.2133  0.0199  0.2477
24576W        W40470   5.550  14.709  15.442  0.1899  0.1746  0.1492
24577W        W40471  17.389   9.576  15.791 -0.0173  0.0223  0.0683
24578W        W40472  15.342   4.434  13.853  0.0765 -0.4783 -0.0893
24579W        W40473  12.251  17.119   0.838 -0.0013 -0.0770  0.2538
24580W        W40474  12.311   5.092   3.850 -0.0090  0.0562  0.3188
24581W        W40475  10.085  11.656  14.664 -0.0838 -0.2296 -0.1063
24582W        W40476   7.558  15.729   1.512 -0.1699 -0.0622  0.2669
24583W        W40477   1.060  15.966  15.921  0.0686  0.0706  0.1587
24584W        W40478   5.395   6.971  14.824  0.0440 -0.0797 -0.0377
24585W        W40479   6.904  10.263  16.667  0.1999 -0.2227 -0.1205
24586W        W40480  12.382  14.249  15.772  0.0826  0.0076 -0.1364
24587W        W40481   6.120   1.056   5.237  0.1284  0.0507 -0.0663
24588W        W40482  11.850  15.479  13.337  0.2095  0.1386 -0.0611
24589W        W40483   1.276  12.111   0.734 -0.2067 -0.1325  0.0902
24590W        W40484  15.961  11.206   1.033  0.1412 -0.1919 -0.3574
24591W        W40485  17.103   6.142  16.472  0.0366 -0.1517 -0.0799
24592W        W40486   5.250   3.716   0.144 -0.0349 -0.0345  0.0073
24593W        W40487   2.729   4.461  12.598 -0.0529  0.1614  0.1080
24594W        W40488  17.633   1.716  14.250  0.0878  0.2389  0.1892
24595W        W40489   9.577  15.368   1.569  0.1812  0.0575  0.0954
24596W        W40490   8.640   9.170   1.736  0.1240  0.4834  0.1934
24597W        W40491   2.294   8.664   5.782 -0.0616  0.0286  0.3553
24598W        W40492   0.467  13.695  16.178  0.3437 -0.1047  0.0203
24599W        W40493   5.917  12.278   5.517  0.0306  0.1714  0.2956
24600W        W40494   5.862   2.778  13.522  0.1027 -0.2133 -0.5119
24601W        W40495   0.252   8.873  16.020 -0.1500  0.1926 -0.3750
24602W        W40496   3.435   7.863   5.752  0.2117  0.3518  0.0036
24603W        W40497   4.776   4.877   5.229 -0.1060 -0.3252  0.2103
24604W        W40498   3.811   9.622   3.940  0.0864  0.0083  0.0282
24605W        W40499  11.891   6.374  16.090  0.0409  0.1109  0.0390
24606W        W40500  15.110   7.643   3.617 -0.2051  0.1257  0.1264
24607W        W40501  11.813   2.380   3.733 -0.0871 -0.0413 -0.2272
24608W        W40502   5.835   6.939   3.301 -0.0851  0.0751 -0.1484
24609W        W40503   6.817   9.847  14.630  0.2176  0.0107  0.0154
24610W        W40504  15.622  12.428   2.800  0.0270 -0.1374 -0.3813
24611W        W40505   3.258  11.630  12.173  0.2261 -0.0407  0.2751
24612W        W40506  14.439   5.114  13.214 -0.1175 -0.3166  0.1567
24613W        W40507   4.992  17.277  13.382 -0.2702 -0.0698  0.2104
24614W        W40508   7.511  13.093  16.176  0.1380 -0.2498  0.0273
24615W        W40509  16.877  13.809  14.476  0.0292  0.0123  0.2883
24616W        W40510   1.446   4.196   2.715 -0.0811 -0.0648 -0.1292
24617W        W40511  10.299   0.203  14.527  0.0125  0.1393 -0.1091
24618W        W40512   0.427  14.479  16.593 -0.0765  0.0582 -0.0699
24619W        W40513   8.838   4.409   1.034 -0.2813  0.1750 -0.1476
24620W        W40514   0.143   8.774  15.480 -0.1609  0.4797  0.3222
24621W        W40515   1.704   0.547  13.211 -0.3242 -0.1832  0.0639
24622W        W40516  12.807   4.356   1.726  0.1110 -0.1096  0.1859
24623W        W40517   6.605  16.579  15.953  0.0768  0.1528  0.0682
24624W        W40518   0.363  16.256   0.595 -0.1543 -0.3830 -0.0761
24625W        W40519  13.507   2.642   1.576 -0.1668  0.0541  0.0063
24626W        W40520   2.493  17.530   6.195 -0.1013  0.1793  0.0730
24627W        W40521  14.757   6.028  16.119  0.2048  0.0022  0.0530
24628W        W40522   4.199  10.204   1.901 -0.0148 -0.2734 -0.1933
24629W        W40523  16.410   8.034  11.773  0.1211  0.3654 -0.2847
24630W        W40524  11.251  10.894   3.999  0.2283 -0.1916 -0.3963
24631W        W40525  10.075   4.893  17.003 -0.0218  0.0641 -0.2096
24632W        W40526  14.977  12.082  13.914  0.3550 -0.1456  0.3042
24633W        W40527  10.560  10.665   3.623  0.2324 -0.0536 -0.2221
24634W        W40528  14.137   5.208   3.349  0.0674  0.0104  0.1020
24635W        W40529  15.181   1.073  13.045 -0.1176 -0.1356  0.2976
24636W        W40530   5.470  13.044  14.560 -0.2950 -0.0284  0.1315
24637W        W40531   1.114  11.797   0.381 -0.1538  0.1606  0.1019
24638W        W40532  11.073   5.193  13.416 -0.0812  0.6324 -0.1089
24639W        W40533   4.675  12.937  14.235 -0.2566  0.1200 -0.0017
24640W        W40534   4.683   9.623   5.016  0.3953 -0.1656 -0.3592
24641W        W40535   3.023  11.446   3.850  0.3357 -0.0051  0.0867
24642W        W40536  14.414   5.638   3.237 -0.0835  0.1656 -0.1575
24643W        W40537  13.876   6.415   2.197 -0.1775  0.0423  0.0848
24644W        W40538   7.787   3.358   0.066  0.1104 -0.0269 -0.2644
24645W        W40539   8.284   1.600  16.743  0.3343 -0.3035  0.2692
24646W        W40540  17.119   5.664  14.323 -0.0880 -0.1534  0.1456
24647W        W40541   3.513  11.188  16.417 -0.2482 -0.0959  0.0389
24648W        W40542   2.062   7.057   0.435  0.0064  0.2319 -0.0334
24649W        W40543   9.193   1.923  14.785  0.0748  0.2386  0.2410
24650W        W40544  13.045   4.980  12.867 -0.0913  0.1037 -0.0963
24651W        W40545   4.074   9.252  13.698 -0.0590  0.0189 -0.6085
24652W        W40546  12.466  13.697  12.918 -0.2607  0.3330  0.1009
24653W        W40547   8.792   6.134   0.973  0.0344 -0.0974 -0.1128
24654W        W40548   6.542   2.268   4.701  0.3428  0.1332 -0.0114
24655W        W40549  16.751   0.356   0.532 -0.4335  0.0413  0.1255
24656W        W40550  12.055   7.907  15.832 -0.2523  0.3949 -0.1756
24657W        W40551   5.153  15.107   1.710 -0.1835 -0.2919 -0.1228
24658W        W40552  12.407  10.333  11.273 -0.0645 -0.1568 -0.1741
24659W        W40553   1.666   9.910   3.870  0.3076 -0.4025  0.2310
24660W        W40554  10.547   4.197   1.781  0.0715 -0.1573 -0.1486
24661W        W40555  14.307   1.057   1.005  0.0543 -0.0508  0.0912
24662W        W40556   7.794  11.025   2.091  0.0608  0.2604 -0.0021
24663W        W40557  11.991  12.575   4.606 -0.0210 -0.3260 -0.0365
24664W        W40558   2.892   8.167  15.378  0.2710 -0.0407  0.1347
24665W        W40559   4.150   8.380  15.552 -0.0497  0.2555 -0.1795
24666W        W40560  15.640   8.931   0.859  0.3671 -0.1644  0.0788
24667W        W40561   5.589   8.048   2.915 -0.2279  0.0353 -0.2084
24668W        W40562   9.612  11.681   0.284  0.1845 -0.0201  0.3392
24669W        W40563   5.555  13.076  16.537 -0.0684  0.0299  0.2045
24670W        W40564   2.685   6.591   2.413  0.0402  0.0264  0.0883
24671W        W40565  16.875   7.122   2.470  0.1108  0.4125  0.1826
24672W        W40566  15.973   2.693  13.823 -0.0218 -0.0158 -0.1944
24673W        W40567   9.277  11.132  16.866  0.0147  0.3507 -0.1387
24674W        W40568   8.058  16.564   4.576 -0.0605 -0.0662  0.0668
24675W        W40569   9.059   9.807   5.436 -0.0651  0.1242  0.0899
24676W        W40570   3.774   4.691   6.171  0.0593  0.2449  0.1249
24677W        W40571  13.284  11.572   5.687  0.1602  0.1624 -0.2374
24678W        W40572  15.786  12.070   4.640 -0.0550 -0.0863  0.1745
24679W        W40573   1.273  12.882   5.757  0.3019 -0.2223  0.0206
24680W        W40574   5.096   4.975  12.146  0.2038  0.0695 -0.1087
24681W        W40575  11.130   5.038  12.452 -0.2057  0.2097  0.1070
24682W        W40576  14.678   2.233   5.042  0.1911  0.4352 -0.1677
24683W        W40577   7.764  14.301  14.560 -0.1075 -0.0425 -0.1694
24684W        W40578  16.532   4.224   2.873 -0.0033 -0.1643 -0.0494
24685W        W40579  16.950   7.547   0.465  0.0615 -0.0887 -0.3477
24686W        W40580   1.486   1.930   3.098  0.1523 -0.2481  0.2327
24687W        W40581  11.300   0.598   2.610  0.0797  0.1379 -0.6655
24688W        W40582  16.688   4.808  16.936 -0.0482  0.0190  0.0542
24689W        W40583   6.106   3.605  13.387 -0.0438  0.1787 -0.1810
24690W        W40584  14.687   6.315   3.705 -0.1627  0.1393 -0.2270
24691W        W40585   9.102  12.369   4.131 -0.0196 -0.0230  0.2070
24692W        W40586  14.236   8.069  16.553  0.0068  0.0630 -0.2031
24693W        W40587  15.106  13.534   1.151 -0.1345 -0.0606  0.0583
24694W        W40588   5.245   0.399   4.258 -0.2418 -0.0139 -0.0263
24695W        W40589   0.017  13.055   3.740 -0.1700  0.1541  0.0025
24696W        W40590  15.888   0.589  12.366  0.1085  0.1975 -0.1746
24697W        W40591  10.531   4.618  14.435  0.1749 -0.2362 -0.5664
24698W        W40592  14.010  16.227   0.589 -0.0432  0.0402  0.0396
24699W        W40593  11.099   7.652   4.905 -0.1380 -0.2970 -0.2165
24700W        W40594  15.228   0.974  16.260  0.0627  0.0378 -0.1427
24701W        W40595   5.064  14.358   6.304 -0.1927 -0.0120  0.0388
24702W        W40596   3.151   7.996   2.512 -0.0015  0.1598  0.2534
24703W        W40597  10.876   6.060   2.733  0.5291  0.1657  0.0177
24704W        W40598   9.594   3.404   4.957 -0.2117 -0.1602 -0.0972
24705W        W40599   7.701  14.758  17.001 -0.1497 -0.1262  0.0135
24706W        W40600  16.855   2.687   3.539  0.1907  0.1009 -0.1297
24707W        W40601   9.124  16.498   0.162 -0.2303 -0.3427  0.1004
24708W        W40602  13.019  14.635  17.244 -0.3426 -0.1986  0.2077
24709W        W40603   2.161   9.233   3.690  0.1839 -0.2103  0.0995
24710W        W40604  15.909   4.845  15.893 -0.1423 -0.1910  0.1110
24711W        W40605   1.935   7.604   5.131 -0.2341 -0.0537  0.0505
24712W        W40606  13.589  10.822   4.437 -0.0168  0.2881 -0.0146
24713W        W40607   1.394  13.589   4.870  0.1716  0.0982  0.2694
24714W        W40608   1.758  13.802   3.051  0.0548 -0.1972 -0.1586
24715W        W40609   6.089   1.424   3.721 -0.0755 -0.2340  0.0590
24716W        W40610   4.536   6.204   3.052  0.0653  0.0744 -0.0965
24717W        W40611  11.262  15.409   4.788  0.0222  0.3309  0.1727
24718W        W40612   6.867  10.187   4.333  0.1643  0.0370  0.2072
24719W        W40613  15.994  12.145  11.474 -0.0833  0.0094  0.0300
24720W        W40614   1.908   7.891   3.956 -0.1592  0.0474  0.0328
24721W        W40615  11.726   5.317  11.860 -0.3220 -0.2185 -0.2238
24722W        W40616  11.320   7.222  15.882  0.1413  0.1590 -0.0038
24723W        W40617  14.325  12.440  15.703 -0.0967  0.2933  0.1987
24724W        W40618   9.617  11.688  10.777  0.0191 -0.4561  0.0780
24725W        W40619  16.119   3.686  16.436 -0.2471  0.2381  0.1755
24726W        W40620   1.803   2.255  13.673  0.3134  0.0347 -0.1499
24727W        W40621  13.965  14.371   2.591  0.0189  0.1173  0.0858
24728W        W40622  14.357  11.799  14.819  0.2369 -0.1196  0.0308
24729W        W40623  17.589  14.653   1.324  0.1604 -0.2171 -0.0613
24730W        W40624  10.110   1.474  12.993 -0.1802 -0.3766  0.2265
24731W        W40625  14.021  17.041  14.021 -0.2654 -0.1446  0.0089
24732W        W40626   2.296   5.210  14.308  0.0385 -0.0641 -0.0865
24733W        W40627  12.357   8.323   2.469  0.0719  0.1795  0.0122
24734W        W40628   0.701  12.700   3.970 -0.0894  0.0387  0.2605
24735W        W40629   4.354  14.082  17.143 -0.1582 -0.3027  0.1919
24736W        W40630   5.435  11.573  16.706 -0.0283  0.1948 -0.1740
24737W        W40631   2.637   2.840   5.842  0.1412  0.1924  0.0517
24738W        W40632   2.440   7.789   5.424 -0.1384  0.0515  0.1409
24739W        W40633   8.767   8.258  15.663  0.1893  0.0879  0.0542
24740W        W40634   2.865  15.809   2.181  0.2306 -0.2219 -0.2447
24741W        W40635   4.073   6.613  15.506  0.0767 -0.2009  0.3415
24742W        W40636   3.194   7.828  14.557  0.0133  0.1865  0.0533
24743W        W40637  15.082   2.660   2.359  0.3111  0.1946 -0.2000
24744W        W40638   3.441  11.719  15.547 -0.0627 -0.0297 -0.2004
24745W        W40639  10.816  14.636   2.891 -0.0529 -0.0379  0.0586
24746W        W40640  14.718  14.073  14.836 -0.0161  0.2173 -0.3797
24747W        W40641   4.057   9.885  16.165  0.1005  0.0852 -0.0258
24748W        W40642   5.418  14.403   0.054  0.0047  0.1020  0.0406
24749W        W40643  12.917   8.821   4.787 -0.2496  0.0552 -0.1454
24750W        W40644  16.720   7.600  14.398 -0.1867  0.1937  0.1902
24751W        W40645   2.985   4.260  14.728  0.0007 -0.0979 -0.1137
24752W        W40646   1.273   2.755  12.432 -0.0231  0.1123  0.1090
24753W        W40647   4.419   1.183  12.751 -0.0016  0.0660 -0.4636
24754W        W40648   9.909   1.647  13.578 -0.1587 -0.3935 -0.2881
24755W        W40649   7.841  14.960   5.826  0.0843 -0.2818  0.2628
24756W        W40650   7.240  14.134   0.304 -0.2364 -0.1558  0.0604
24757W        W40651   9.885   8.883   6.132 -0.1789 -0.0512  0.0827
24758W        W40652  16.250  17.460   4.496 -0.1000  0.0144  0.0177
24759W        W40653   4.001   1.588   0.967  0.0129  0.0281 -0.1017
24760W        W40654  12.075  14.871  14.154  0.4167 -0.0039  0.0771
24761W        W40655   6.677   3.176   1.592  0.0935  0.3655  0.1209
24762W        W40656   9.078   6.294  16.083 -0.1548 -0.0168  0.0075
24763W        W40657   9.271   4.508   4.129 -0.4659  0.1254 -0.0627
24764W        W40658  10.804   3.084   3.239  0.0786 -0.0970  0.1167
24765W        W40659  14.561  12.813  14.500  0.3216  0.0226  0.0321
24766W        W40660   2.589   4.778   4.795  0.1270  0.0219  0.0251
24767W        W40661   0.342  13.995  14.596  0.0814  0.1884  0.4469
24768W        W40662  15.861  17.250  16.025 -0.1156 -0.4552 -0.2726
24769W        W40663  10.633  13.174  15.737  0.0481  0.1178  0.0121
24770W        W40664  11.571   7.693   0.996  0.0990  0.1713 -0.1426
24771W        W40665  12.589   1.206  16.260  0.0760 -0.1766  0.3441
24772W        W40666  15.259   4.306  12.113 -0.0571 -0.0904 -0.1690
24773W        W40667   7.558  12.412  15.417  0.0432  0.2405 -0.1127
24774W        W40668  10.409   6.802  15.872 -0.3399 -0.2719  0.0165
24775W        W40669  16.282   6.031  14.845 -0.0182 -0.0191  0.0989
24776W        W40670   3.421   2.701   3.287 -0.1425 -0.2772  0.1298
24777W        W40671   7.995   9.251   4.590  0.0001 -0.0107 -0.1429
24778W        W40672  12.288  13.612  14.070 -0.0341 -0.3953 -0.0543
24779W        W40673   0.660   3.387   1.274 -0.1475  0.3082  0.1725
24780W        W40674  11.328  10.450   2.954  0.2759  0.1090 -0.4440
24781W        W40675   0.493   5.101  13.193  0.2279  0.0382 -0.0275
24782W        W40676   3.131   1.005   4.732 -0.1443 -0.1445  0.2944
24783W        W40677   1.346   0.827   4.212  0.2227  0.1381  0.0922
24784W        W40678   1.662  12.608   0.151  0.0077  0.1513  0.2312
24785W        W40679  14.579   3.794  14.505  0.1417  0.1210  0.0027
24786W        W40680  16.236  13.749   4.336 -0.3202 -0.1569 -0.2679
24787W        W40681  12.045   9.198   1.394 -0.1681 -0.0040 -0.3054
24788W        W40682  10.948   5.707   2.289  0.0878 -0.3319  0.1646
24789W        W40683   6.332   8.492  14.753 -0.2173  0.0652 -0.0286
24790W        W40684   9.287  10.712  11.445  0.0745 -0.0631  0.0005
24791W        W40685   7.990   3.235  16.125  0.1099 -0.0998 -0.3087
24792W        W40686  11.751  17.198   5.118 -0.3390 -0.2079 -0.0477
24793W        W40687  15.635   5.045  16.796  0.0318  0.1145  0.0325
24794W        W40688   0.919  12.039  11.062 -0.0959  0.0407  0.0663
24795W        W40689   8.492   9.437  11.576  0.0378  0.2110  0.2028
24796W        W40690   5.896  11.855   5.240  0.0195  0.0867  0.0315
24797W        W40691   5.933  10.039  15.282 -0.3832  0.0324  0.0142
24798W        W40692  11.472  17.259   1.246 -0.2605 -0.0505  0.1405
24799W        W40693   5.159   7.384   1.753  0.0147  0.1514 -0.2652
24800W        W40694   9.597   8.731   5.396 -0.2287 -0.1742  0.0660
24801W        W40695   8.241  10.041  11.966 -0.0991 -0.2019 -0.2082
24802W        W40696   2.882  17.632   5.710  0.1938  0.3133  0.0408
24803W        W40697  10.275  15.387   4.881 -0.2480 -0.3057  0.2503
24804W        W40698   2.318  14.492   3.558  0.1763  0.0722  0.1115
24805W        W40699   8.147   3.973   1.277  0.0207  0.0884  0.1386
24806W        W40700   2.383  16.586   1.546 -0.0362 -0.3526 -0.0683
24807W        W40701  16.475  12.052  11.952 -0.1705  0.1026  0.1053
24808W        W40702   8.754  15.906   1.366  0.0094  0.1437  0.0857
24809W        W40703   1.891   4.884  14.597  0.0912  0.3038  0.2856
24810W        W40704   0.285   6.717   3.163 -0.0032 -0.0090  0.0254
24811W        W40705   2.943  14.473  14.575 -0.0256  0.1119 -0.2287
24812W        W40706   5.412  12.705   2.990  0.1546 -0.0624 -0.0103
24813W        W40707  13.185   1.640   4.000  0.0116 -0.2640  0.1539
24814W        W40708   9.283   1.770   1.391 -0.2719  0.0561  0.1346
24815W        W40709  15.956  15.007   4.696 -0.3537  0.1813 -0.0311
24816W        W40710  16.553   9.467   3.550 -0.1977 -0.1215 -0.1328
24817W        W40711  11.502   4.398  16.954 -0.1376 -0.1280 -0.5050
24818W        W40712  14.520  16.052  15.044  0.0706  0.0251  0.1423
24819W        W40713  14.950   6.474  15.223  0.0795  0.1206 -0.0461
24820W        W40714  14.125   2.628  13.911 -0.2796  0.1547  0.3147
24821W        W40715  16.350   7.713  12.552  0.0843  0.2522  0.0980
24822W        W40716  16.651   1.899   5.617  0.0815 -0.0896 -0.1591
24823W        W40717   4.121   0.404   2.101  0.1794 -0.0728  0.0315
24824W        W40718  14.831  16.752   5.597 -0.0490  0.1457 -0.2092
24825W        W40719  15.987   4.338  12.356 -0.2457  0.0376  0.0414
24826W        W40720  14.271   0.404  15.004  0.0784 -0.2825  0.1369
24827W        W40721   9.529   3.261  14.847  0.1216  0.0951  0.3842
24828W        W40722   5.217  13.616  17.044  0.0271  0.1181 -0.0333
24829W        W40723   3.192  13.611  13.893  0.0908  0.2568 -0.0946
24830W        W40724   1.585   2.744  13.828 -0.1876  0.1835  0.0008
24831W        W40725   1.765   4.943  16.486 -0.2755 -0.3524 -0.1909
24832W        W40726  13.175   3.830   2.599 -0.1547 -0.1914  0.0742
24833W        W40727  12.266   2.416   1.545  0.2229 -0.1647 -0.1312
24834W        W40728  15.636   8.121   1.722 -0.0287  0.2923  0.1335
24835W        W40729   5.667   3.498   4.159 -0.2918 -0.1333 -0.2277
24836W        W40730  12.005  10.218   4.703  0.4261 -0.4243 -0.0131
24837W        W40731   1.711  14.039   7.019 -0.0665  0.0801  0.1330
24838W        W40732   9.971   7.368  14.086 -0.5435 -0.0153 -0.1845
24839W        W40733  12.526  16.101   3.809  0.1275 -0.0995  0.2021
24840W        W40734   3.107  14.279  17.117 -0.1402  0.1257 -0.0368
24841W        W40735   6.608   3.413  12.812  0.2151  0.1088 -0.1810
24842W        W40736  12.196   9.291  15.776  0.1328  0.2245  0.1742
24843W        W40737  10.203   6.852  15.446  0.1020  0.2493  0.0080
24844W        W40738   3.050  11.719  14.020  0.0838 -0.1633 -0.0293
24845W        W40739  15.660   0.888  16.581 -0.1908  0.1070 -0.2292
24846W        W40740   9.259  11.038   2.740 -0.1322  0.0341 -0.0270
24847W        W40741   1.271   1.784   3.964  0.2091  0.0130 -0.0484
24848W        W40742  10.995   8.689   1.001 -0.3001 -0.0301  0.0026
24849W        W40743   2.263   5.197   3.370 -0.1956  0.1601 -0.2610
24850W        W40744   9.585   3.177  17.107  0.1216  0.0243 -0.2373
24851W        W40745   3.010  13.029  15.472  0.0223 -0.0272 -0.2678
24852W        W40746  11.513   6.989   5.637  0.1051 -0.1353 -0.1826
24853W        W40747  15.792   1.578  13.424 -0.0893  0.2651 -0.2007
24854W        W40748   8.655   0.049  11.901 -0.1577 -0.0389  0.0413
24855W        W40749   3.045   4.040  17.004  0.1674 -0.0638  0.0329
24856W        W40750  12.463  11.698   0.582 -0.3653  0.2249 -0.1666
24857W        W40751   3.451  10.129   1.320  0.0991 -0.2707 -0.3485
24858W        W40752   6.589   9.084   4.658 -0.0327 -0.0192 -0.2691
24859W        W40753  14.577  10.321  14.859 -0.3752  0.1388 -0.1670
24860W        W40754  11.359  15.834  15.032  0.0886 -0.1384  0.0135
24861W        W40755   9.328   2.642  14.128 -0.1083 -0.0231  0.0869
24862W        W40756   1.543  16.904   2.628  0.0207 -0.1328 -0.1887
24863W        W40757   6.556   0.261   5.120  0.0858  0.3775  0.0287
24864W        W40758  12.715   2.061  12.341  0.0990  0.0330  0.0817
24865W        W40759   1.127   2.030  14.753 -0.2510  0.1889 -0.2503
24866W        W40760  16.386   9.348   1.660  0.1354  0.0268  0.0235
24867W        W40761   2.258  14.748  12.378  0.0012 -0.1623  0.0639
24868W        W40762  12.582  16.700   5.232 -0.1550  0.1482  0.2252
24869W        W40763   4.060  16.997  12.235 -0.1137  0.3605 -0.0153
24870W        W40764  10.358  10.285   4.814  0.0222  0.0064 -0.2125
24871W        W40765   6.512   6.426   0.960  0.0319 -0.0312  0.2246
24872W        W40766   4.128   1.960   5.330 -0.2230 -0.3425 -0.2884
24873W        W40767   1.029   2.926   5.973  0.0920  0.3301  0.4125
24874W        W40768  13.052  16.710   4.827 -0.4412 -0.2969  0.0674
24875W        W40769  12.499  16.833  14.721  0.2571 -0.1808  0.0927
24876W        W40770  17.114   6.498   4.870 -0.1283  0.0414 -0.0661
24877W        W40771   4.751   7.406  16.377  0.2912  0.0742 -0.3184
24878W        W40772   5.259   5.669  12.764  0.0503 -0.3509 -0.0803
24879W        W40773   8.879   9.808   0.215 -0.1056 -0.2420 -0.2491
24880W        W40774  11.491   9.763  16.049 -0.0156  0.0232 -0.0618
24881W        W40775  16.725  15.398  16.583 -0.1447 -0.0593 -0.0210
24882W        W40776   0.767  17.211   0.488 -0.1928 -0.1070 -0.1688
24883W        W40777   5.030  12.132   1.653 -0.2510  0.1995  0.2272
24884W        W40778   3.395   0.553   2.202  0.1589 -0.3038  0.0289
24885W        W40779   4.773  13.318  11.023 -0.0090 -0.1262 -0.0053
24886W        W40780   4.574  17.108  16.137 -0.0956  0.4875  0.0103
24887W        W40781   4.699  11.695   4.453  0.1608  0.1742 -0.1169
24888W        W40782   7.192   1.860   1.966  0.2886  0.0969  0.2359
24889W        W40783   7.644   1.425   4.042  0.0386 -0.4603 -0.1036
24890W        W40784   9.433   1.389   1.870 -0.0498 -0.1205  0.0356
24891W        W40785   0.718   0.529   0.378  0.0909  0.0830 -0.0140
24892W        W40786  11.806  10.971   1.539  0.2239 -0.2112  0.2768
24893W        W40787   5.865  14.768   0.970 -0.1435  0.1459 -0.4325
24894W        W40788  13.564   5.592   3.131  0.2141  0.0075  0.0416
24895W        W40789  15.114  14.847  15.174  0.0927  0.0841  0.0733
24896W        W40790   8.857   9.464   1.226  0.1359  0.1444 -0.1366
24897W        W40791  11.473   7.342   2.294  0.1246 -0.0666 -0.0805
24898W        W40792   4.737  15.240  12.314  0.2040 -0.1169  0.0568
24899W        W40793  17.199   2.879  12.921  0.1653  0.0480  0.0418
24900W        W40794   8.901   4.848   3.182 -0.2798 -0.1717  0.2930
24901W        W40795   4.384   1.541   4.437  0.1987  0.0941  0.1624
24902W        W40796   0.014   9.608  17.263  0.0162  0.0582  0.3780
24903W        W40797  17.399   7.890   1.298 -0.0987 -0.0372 -0.3918
24904W        W40798   3.223   7.313  14.838  0.2417  0.1405  0.0777
24905W        W40799   9.968  15.032   5.459 -0.2214  0.1734 -0.2343
24906W        W40800  14.689  12.430  13.733  0.3366  0.2333 -0.1767
24907W        W40801  13.186   5.803  12.503  0.0306 -0.0161 -0.0764
24908W        W40802  16.613   2.574   0.050  0.0143 -0.1057 -0.2032
24909W        W40803  10.965   0.500   4.666 -0.0886  0.3016 -0.0206
24910W        W40804   0.053  11.972  11.629  0.0455  0.3539  0.0837
24911W        W40805  16.271   1.931   3.128  0.1847  0.0439 -0.0161
24912W        W40806  13.244   9.897   1.832  0.1605  0.2385 -0.2193
24913W        W40807  14.501  15.855   1.975  0.0760  0.2667  0.2963
24914W        W40808   2.282  17.556   1.033 -0.1214  0.2436  0.1638
24915W        W40809  12.041   4.681   5.825  0.0923  0.1286  0.3040
24916W        W40810   7.745  10.358   5.770 -0.1889 -0.0922 -0.3218
24917W        W40811  16.124   6.971   4.179 -0.2479  0.0522 -0.5222
24918W        W40812   1.781   6.662   5.298  0.0319  0.2996 -0.1792
24919W        W40813   6.555  11.489  13.613  0.0320 -0.1436 -0.1507
24920W        W40814  16.120  17.069  13.736  0.0822  0.0389  0.0340
24921W        W40815  10.686  10.033   4.212 -0.1893 -0.1321  0.0900
24922W        W40816  14.177   4.069   1.594  0.0366  0.3434  0.0430
24923W        W40817  10.120   7.797  14.816 -0.1071  0.0090 -0.0999
24924W        W40818  13.696   6.305  15.489  0.0403 -0.3199  0.0640
24925W        W40819  15.676  14.300  14.898  0.0892 -0.1252  0.0345
24926W        W40820   1.373  11.782  17.214 -0.0088 -0.0728  0.0668
24927W        W40821   6.445   3.558  13.731  0.2097 -0.0997  0.0886
24928W        W40822   5.828   8.028  13.363 -0.0089 -0.0631  0.0965
24929W        W40823  12.935  13.311   5.403  0.1715 -0.1894  0.1080
24930W        W40824   6.014   3.896  12.130 -0.2519 -0.0844 -0.1091
24931W        W40825  10.023  15.627   5.204  0.2249 -0.0141 -0.3289
24932W        W40826  17.221  13.590   5.726  0.2289 -0.0958  0.0345
24933W        W40827   0.468  15.734  11.712 -0.3865 -0.2820 -0.1756
24934W        W40828  14.955   6.888  12.483  0.2052  0.0503 -0.0913
24935W        W40829   2.627  15.253   4.598 -0.1094  0.2093  0.3427
24936W        W40830   1.024  10.552  16.801  0.2230  0.4266 -0.1024
24937W        W40831   0.226   7.871   4.298  0.0565  0.2315 -0.3682
24938W        W40832   8.016  13.917   1.623  0.0039  0.0567  0.3916
24939W        W40833   1.622   5.427   2.784 -0.1995 -0.1715  0.0968
24940W        W40834  17.321  15.311   3.831  0.0446  0.0742  0.1184
24941W        W40835  10.579  17.046  14.009  0.1941  0.1494 -0.0074
24942W        W40836  13.559  16.468  15.127 -0.2209 -0.0803 -0.2104
24943W        W40837   9.411   0.507   2.693 -0.0343  0.0849  0.0065
24944W        W40838   3.238   4.347   4.555 -0.1575  0.1786  0.2106
24945W        W40839  14.369   8.967   2.693 -0.3421  0.0613 -0.2610
24946W        W40840   8.814   2.974   4.214 -0.4106 -0.1683 -0.3651
24947W        W40841   0.083   4.028  14.226  0.0047  0.1446  0.0843
24948W        W40842   0.369   2.530   4.865  0.0509  0.0408  0.3199
24949W        W40843  17.039   3.347   4.429 -0.1821  0.2249 -0.0121
24950W        W40844  11.536   0.084   3.968  0.2494  0.3595 -0.1836
24951W        W40845   9.621   2.048   3.237  0.3468  0.0028  0.2530
24952W        W40846  10.788  10.582   5.022  0.2649  0.2031  0.0408
24953W        W40847  15.141  14.748  13.814  0.4522 -0.0128  0.1106
24954W        W40848  13.079   0.597  13.486 -0.1562  0.1577  0.0085
24955W        W40849   7.520   5.230   4.723 -0.1483 -0.2094  0.2780
24956W        W40850   4.255   7.054   5.333  0.5136  0.2092 -0.0805
24957W        W40851   0.859   9.623   3.762 -0.2610 -0.2218 -0.2013
24958W        W40852   6.201   7.996   6.468  0.0550 -0.0078  0.0165
24959W        W40853  10.536   1.732   3.588  0.1347 -0.2268 -0.3684
24960W        W40854  15.822  15.352  12.896 -0.0322  0.0188 -0.1902
24961W        W40855  13.349   4.782   3.218 -0.2437  0.0020  0.0244
24962W        W40856   4.111   5.286  12.301 -0.3780 -0.2467 -0.0275
24963W        W40857   7.442  17.377   3.637  0.2447 -0.0593 -0.2782
24964W        W40858  16.091   8.718   3.168  0.0356  0.2364 -0.0815
24965W        W40859  14.314   1.260   6.197 -0.1567  0.0043  0.1207
24966W        W40860  14.579  11.669  16.005 -0.0617  0.2779  0.2627
24967W        W40861   3.972   0.161  17.011  0.3322 -0.0474  0.1970
24968W        W40862  16.405   4.316   5.119  0.3903 -0.0219  0.0103
24969W        W40863  13.696  15.210  13.925  0.0069  0.4263 -0.0489
24970W        W40864   7.619  16.808  15.558  0.0610 -0.0859  0.1667
24971W        W40865  10.309   9.446  14.345  0.0463 -0.0841 -0.1853
24972W        W40866   1.120  13.456  14.286  0.0598  0.3966  0.0657
24973W        W40867   9.925   8.798   1.522  0.3124  0.1436  0.0803
24974W        W40868  12.909   1.856   2.957 -0.0064 -0.0873 -0.2077
24975W        W40869   4.939  15.798   0.536  0.1013 -0.2172 -0.0404
24976W        W40870  13.512   0.870  12.143 -0.0952  0.1589 -0.1588
24977W        W40871  10.560   5.933   0.987  0.1520  0.3829 -0.0667
24978W        W40872  16.526   0.270  13.157  0.4113  0.1936 -0.1287
24979W        W40873   7.506  12.915   1.542 -0.5133 -0.0256  0.1067
24980W        W40874   4.865  12.006   0.603  0.0847  0.4526  0.1393
24981W        W40875  13.097  15.074   3.314 -0.1166 -0.1320 -0.1691
24982W        W40876   9.225   9.794  13.909  0.1285 -0.0183  0.0400
24983W        W40877  13.287  10.623   1.731 -0.0155 -0.2744  0.1422
24984W        W40878  14.379   9.416  13.016  0.0255 -0.1398 -0.1930
24985W        W40879  10.533   3.070   5.073 -0.1771  0.3064 -0.1486
24986W        W40880   6.749  14.470   4.812  0.0254 -0.2260  0.1709
24987W        W40881   0.874  14.542   2.634  0.0369  0.1231 -0.0516
24988W        W40882  10.706   8.155  14.256 -0.0974 -0.1093  0.1278
24989W        W40883   4.719  13.204   0.961 -0.0492 -0.3679  0.2477
24990W        W40884  15.219  11.916   0.931 -0.2014 -0.0293 -0.2172
24991W        W40885   6.902   7.917   3.242  0.0289 -0.1299 -0.1499
24992W        W40886  15.563   2.147   3.707  0.1604 -0.1624 -0.0832
24993W        W40887  17.387  16.373   0.163 -0.1799 -0.1652  0.1020
24994W        W40888   6.515  12.027   0.605 -0.0701 -0.0407  0.0470
24995W        W40889  16.198  11.683   1.681  0.1105 -0.2109  0.2434
24996W        W40890  12.108  11.111   1.031 -0.0662 -0.0948 -0.0785
24997W        W40891   2.231  17.514   4.295  0.1655 -0.0391 -0.1018
24998W        W40892  11.831  12.233  16.801 -0.3197  0.1816 -0.2800
24999W        W40893  14.638  16.786   2.133  0.2763 -0.1124  0.1929
25000W        W40894   8.698  15.468   3.686  0.1511 -0.0253  0.1688
25001W        W40895   8.425  14.130  16.579  0.0024  0.0640 -0.4083
25002W        W40896  11.949   4.598  16.979 -0.3775 -0.0726 -0.2317
25003W        W40897   9.889   9.360   1.360 -0.2141  0.2614  0.1914
25004W        W40898   3.885  14.433   3.341  0.1707  0.0879 -0.0457
25005W        W40899  15.470  10.642  14.437 -0.0248  0.4089 -0.2009
25006W        W40900  17.343   8.211   5.000 -0.1956  0.3210 -0.1585
25007W        W40901   0.471  14.766  15.712  0.1339 -0.2918  0.0546
25008W        W40902   1.113  10.398   2.602 -0.0352  0.1178  0.1398
25009W        W40903  12.817   1.506   6.054 -0.2757  0.2935 -0.1843
25010W        W40904   9.206   1.241  14.212 -0.1228 -0.0249  0.0532
25011W        W40905   7.846   3.985   0.189  0.0325 -0.1825 -0.0594
25012W        W40906   6.328  13.557   3.036 -0.1255  0.0753 -0.2731
25013W        W40907  13.534  12.346   1.133 -0.0732 -0.3533  0.1709
25014W        W40908  13.128  13.388  15.592 -0.1200 -0.0105 -0.0591
25015W        W40909   9.952  11.259  12.976  0.0695  0.0835  0.1705
25016W        W40910  13.008   7.901  15.930 -0.1059  0.0908  0.0310
25017W        W40911  10.445   3.607   1.661 -0.2022  0.1382 -0.0588
25018W        W40912   5.014   3.725  14.266 -0.0935 -0.1464 -0.2030
25019W        W40913  13.171  13.694   2.362  0.0684  0.1817 -0.0436
25020W        W40914   0.074  16.752  16.271 -0.0030 -0.1352  0.2465
25021W        W40915   0.132  12.357   2.761 -0.0310 -0.0123  0.1120
25022W        W40916   8.032  11.757   5.692  0.0142  0.2585 -0.0158
25023W        W40917   7.668  10.330   3.277 -0.0832  0.2031 -0.1053
25024W        W40918   1.716   5.855  14.341 -0.0435 -0.1910  0.1128
25025W        W40919  11.329   2.641   1.129 -0.4179  0.2368 -0.3052
25026W        W40920   6.191   3.862  14.802 -0.1872  0.2647 -0.1128
25027W        W40921  13.932   3.016  12.155  0.3704  0.1209  0.4282
25028W        W40922   1.188  17.339  16.714 -0.1308 -0.0610  0.1809
25029W        W40923  10.909   1.950  15.946  0.1244  0.0469  0.0410
25030W        W40924   6.564  11.760   1.911  0.2827 -0.0110  0.1206
25031W        W40925  13.449  11.678  13.851 -0.0857 -0.1296 -0.4532
25032W        W40926  16.539  12.257   4.749  0.1149 -0.0754 -0.1623
25033W        W40927   3.476   4.315  13.393 -0.1310  0.0550 -0.1145
25034W        W40928  11.453   4.761  15.406 -0.1609 -0.0767 -0.0791
25035W        W40929   8.927   1.319   2.239 -0.1694  0.1424 -0.0169
25036W        W40930  14.658  13.662   0.005 -0.1298 -0.1151 -0.1981
25037W        W40931   3.506   3.264  15.000  0.1113  0.0140 -0.0750
25038W        W40932   9.994   6.019   0.216 -0.1581 -0.1444  0.0168
25039W        W40933  14.301   1.596  12.982 -0.0912  0.3719 -0.1649
25040W        W40934  10.234   7.316  15.645  0.1898 -0.1647 -0.0126
25041W        W40935  11.679   9.528   6.016 -0.2130  0.1918  0.0772
25042W        W40936   5.513  15.613  14.028 -0.0621 -0.2679  0.3166
25043W        W40937   3.658   3.749   2.389 -0.1080  0.0764  0.3736
25044W        W40938  14.749   1.256  16.365  0.0751  0.0063  0.0882
25045W        W40939   4.777   1.159   2.862 -0.0904  0.0465  0.1403
25046W        W40940   4.633   6.411  15.760  0.2357  0.0381 -0.1203
25047W        W40941   4.524   9.821   0.466  0.0369 -0.0455 -0.3186
25048W        W40942   4.470   8.383  12.628  0.1019  0.1090  0.0491
25049W        W40943  10.013  17.285  15.275  0.2660 -0.2766  0.0784
25050W        W40944   0.393   5.907  13.856  0.1177  0.1478  0.1016
25051W        W40945   2.719   9.838  12.048 -0.0917  0.0585  0.0053
25052W        W40946   7.021   6.735  11.978  0.1476  0.1232 -0.1900
25053W        W40947   1.645   1.735   0.105  0.2394  0.1048 -0.0386
25054W        W40948   4.900   1.676  13.973 -0.1296  0.0662  0.0084
25055W        W40949  15.765   6.271   2.182 -0.2535  0.2629  0.1043
25056W        W40950   0.187   5.419   2.709 -0.0257 -0.1267 -0.2694
25057W        W40951   6.262   8.125   4.321  0.1612 -0.1106 -0.0036
25058W        W40952   6.730  13.006   5.325 -0.0421  0.1517  0.0375
25059W        W40953   2.403   8.391  13.007  0.2712  0.0089 -0.1252
25060W        W40954   4.973  14.101  16.412 -0.0705 -0.0136 -0.3249
25061W        W40955   6.820  14.260   5.587  0.0961  0.0260 -0.0536
25062W        W40956   7.191  11.371  15.323 -0.1482  0.2251 -0.3586
25063W        W40957  17.129   3.536   5.920 -0.1867 -0.3219 -0.2058
25064W        W40958   3.096   8.714  12.712  0.1406 -0.0505 -0.4094
25065W        W40959   7.408   0.719  15.070  0.2506 -0.1207  0.0689
25066W        W40960   6.169  15.199  13.618 -0.0505  0.2216  0.0460
25067W        W40961  15.045   0.296   0.167 -0.1151  0.1113  0.1950
25068W        W40962  13.813  13.740   1.868  0.1151  0.2370  0.1762
25069W        W40963   5.475  13.470  12.719 -0.1452  0.0547 -0.2153
25070W        W40964   6.852   9.344   0.171 -0.0988  0.1447  0.2204
25071W        W40965   7.661   3.167   2.275  0.0525 -0.0682 -0.0136
25072W        W40966  16.900   7.223  12.898 -0.0635  0.2091 -0.0930
25073W        W40967  10.751  13.440  12.109 -0.0140 -0.3823  0.1973
25074W        W40968   7.848  14.909   2.309  0.1919 -0.2433 -0.1238
25075W        W40969  11.500  16.974  14.341 -0.1077  0.2610  0.1322
25076W        W40970   0.249   5.578   6.266  0.1548 -0.0779  0.0622
25077W        W40971  15.201  17.299  12.299  0.1178 -0.2778 -0.1421
25078W        W40972   9.959  11.049   2.004  0.1882 -0.2074  0.2826
25079W        W40973  16.450   0.164  16.601 -0.0176  0.2276  0.0759
25080W        W40974   0.353  12.640   6.086  0.2023 -0.2588 -0.0793
25081W        W40975   5.035   4.201   1.145  0.1949  0.1113 -0.1063
25082W        W40976   9.534  15.849   0.629 -0.0547 -0.4968  0.3131
25083W        W40977   0.760   2.334  12.175 -0.1628 -0.1651 -0.3443
25084W        W40978  14.759   5.289   3.352  0.2619  0.0723 -0.2044
25085W        W40979  15.014   0.338   0.746  0.2669 -0.0753  0.2042
25086W        W40980   5.271  15.438  15.706  0.1915 -0.1429 -0.3016
25087W        W40981   9.182   0.874   0.136 -0.1185  0.3758 -0.0707
25088W        W40982   8.683   0.006   2.216 -0.1504  0.0378  0.0404
25089W        W40983  15.473   9.880   4.766 -0.0549 -0.2554 -0.1883
25090W        W40984  12.955   3.421   0.788 -0.0428 -0.0236 -0.0927
25091W        W40985   6.330   3.158  15.482 -0.2282  0.0414  0.3365
25092W        W40986   6.145   0.694  14.314 -0.1232 -0.0890  0.3451
25093W        W40987  12.534   0.084  15.270  0.1491  0.1198  0.1436
25094W        W40988   6.108  15.533  12.827 -0.0840 -0.0377  0.1634
25095W        W40989   1.139   0.074   1.632 -0.0477  0.1675 -0.0614
25096W        W40990  16.491   5.895  12.195 -0.1411  0.1356  0.1480
25097W        W40991   5.856  11.422   2.488 -0.1282 -0.1541 -0.2133
25098W        W40992   9.117   0.919   3.818  0.0693 -0.2708  0.1097
25099W        W40993   1.332   1.004   5.982  0.2966  0.2369 -0.0538
25100W        W40994   2.305  12.085   3.726 -0.0588 -0.1132  0.2697
25101W        W40995  12.508   8.343  15.576 -0.1074 -0.1577  0.0002
25102W        W40996   8.273  10.745  16.705 -0.0200  0.2562 -0.0578
25103W        W40997   3.082   0.363  12.581 -0.2688 -0.1084 -0.4983
25104W        W40998  13.751   9.161  12.196  0.0032  0.1121  0.4020
25105W        W40999  13.640   8.489   0.366 -0.3001 -0.1053 -0.3237
25106W        W41000  14.383   4.828   0.973  0.1537 -0.0166  0.2320
25107W        W41001  10.435  15.921  14.151 -0.1066 -0.2276  0.2401
25108W        W41002  17.268  12.721   0.486  0.1623  0.0280 -0.3039
25109W        W41003  15.353   8.848  15.127 -0.1567  0.0216  0.1184
25110W        W41004   5.174   5.609  14.916 -0.0614  0.1316  0.0810
25111W        W41005  12.343   9.829  11.337 -0.1482 -0.3607 -0.0390
25112W        W41006   8.137   3.573   0.310 -0.1381  0.0516 -0.0425
25113W        W41007  11.935   8.801  12.388  0.2170  0.1909  0.0393
25114W        W41008  10.910   4.642  12.680 -0.2165  0.2436  0.0159
25115W        W41009  12.137   1.062   3.898  0.1841 -0.3020 -0.1172
25116W        W41010  12.664   3.023   2.779 -0.2374 -0.0124  0.0746
25117W        W41011   6.621  12.973  16.290 -0.0691 -0.1671  0.2240
25118W        W41012   1.300  12.697  12.795  0.0899  0.0310  0.2493
25119W        W41013   9.121   8.711  13.109 -0.0032  0.0069 -0.0557
25120W        W41014   1.207   2.174   0.349 -0.1151 -0.1432 -0.1145
25121W        W41015   0.461  15.263  13.825 -0.1299 -0.1011  0.1165
25122W        W41016  10.974   6.221  13.444 -0.0521 -0.1370 -0.2279
25123W        W41017   7.363   6.445   0.979 -0.2312 -0.0867 -0.1270
25124W        W41018  11.647   6.273  17.095  0.0265  0.1371 -0.0688
25125W        W41019   3.130  15.251  13.740 -0.0094 -0.2007  0.3361
25126W        W41020  12.174   1.424  14.217  0.0325  0.5153  0.0282
25127W        W41021  12.360  13.916   3.703 -0.0416 -0.2460  0.0889
25128W        W41022   2.443   5.781  15.902  0.4390 -0.1520  0.1401
25129W        W41023   5.276   1.526  14.761  0.0970  0.2848 -0.0369
25130W        W41024   4.834  15.891  13.231 -0.2459 -0.0447 -0.2243
25131W        W41025   4.218  13.109   2.385 -0.3692  0.1728  0.0597
25132W        W41026   3.169   9.993  12.334 -0.0897  0.1950 -0.0508
25133W        W41027  14.081  15.396  16.678  0.1940 -0.0704 -0.2848
25134W        W41028   2.340   1.826   5.662  0.2707 -0.0890  0.0841
25135W        W41029   5.976  10.581   0.225  0.0772 -0.1953 -0.0092
25136W        W41030  14.450  12.174  16.406  0.2069 -0.0341 -0.0623
25137W        W41031   3.027   9.343   4.875  0.0866 -0.5456 -0.0939
25138W        W41032  10.806  14.419  12.152 -0.0032 -0.1132  0.1084
25139W        W41033   2.475  14.333  14.244  0.0054 -0.1632  0.1666
25140W        W41034   3.862  16.689   1.395 -0.1415  0.0105  0.2184
25141W        W41035  13.942   6.867   2.470 -0.0786  0.1678 -0.1502
25142W        W41036   3.711   3.385   4.797 -0.2877 -0.3581 -0.0000
25143W        W41037   4.047  10.902  16.428  0.0480 -0.0869  0.3976
25144W        W41038  15.598   0.456   3.983  0.1718  0.1391  0.2216
25145W        W41039   1.629  13.805   4.016 -0.1995 -0.0832 -0.2884
25146W        W41040   7.592  11.558   5.490  0.0197  0.2057 -0.1870
25147W        W41041   5.954   1.548  15.808 -0.3321  0.0042 -0.1904
25148W        W41042   1.421   4.933  16.934 -0.2923 -0.0263  0.0794
25149W        W41043   7.651  10.597   0.053 -0.0075  0.2370 -0.1255
25150W        W41044  13.481  15.163   5.403 -0.0453 -0.0180 -0.2160
25151W        W41045   3.046   2.156   1.235 -0.0266 -0.2007 -0.0869
25152W        W41046   9.802   0.629  16.120  0.2432 -0.1209 -0.0070
25153W        W41047  14.486   2.489  12.931  0.0396  0.0098 -0.1130
25154W        W41048  14.523   3.883  16.478  0.2079  0.0052  0.0189
25155W        W41049  13.219   1.003  12.478  0.2193  0.1743 -0.0155
25156W        W41050   6.400  16.548  12.651  0.1647 -0.2028 -0.2615
25157W        W41051  13.232   8.188   1.374  0.1950 -0.0806  0.2919
25158W        W41052  11.580   2.678   3.329  0.2003  0.1830  0.2295
25159W        W41053   4.877   4.836  15.581  0.1878  0.0060  0.2724
25160W        W41054  11.150  11.739   4.793  0.1099  0.1061 -0.1280
25161W        W41055   6.625   6.952  11.793  0.4693 -0.2400  0.2533
25162W        W41056  17.393  11.568   6.199 -0.1050  0.0360  0.1526
25163W        W41057  11.704   1.705   5.417  0.0343 -0.1822  0.0067
25164W        W41058   1.974   5.830  12.424  0.0351  0.3858  0.4255
25165W        W41059  10.905   5.362  14.618  0.0967  0.1657  0.1924
25166W        W41060  17.539  16.830   1.514  0.2165  0.1515  0.0553
25167W        W41061   2.797   6.142   2.222 -0.4498  0.2549  0.0141
25168W        W41062   5.251  16.167  13.098 -0.0091  0.2834 -0.2337
25169W        W41063   6.609   7.661   5.290  0.2418  0.4333  0.1471
25170W        W41064   8.670  13.082   4.689  0.0526 -0.2454  0.0384
25171W        W41065  14.212  10.827   1.757  0.0297  0.0064  0.0161
25172W        W41066  10.106   8.389  15.991 -0.0078  0.0319  0.1372
25173W        W41067   5.887  11.673   1.343  0.0088  0.2496  0.1419
25174W        W41068   9.506   0.226   5.203 -0.1214  0.0948 -0.1283
25175W        W41069  15.311   5.358  13.490 -0.2582  0.5971 -0.0029
25176W        W41070   8.366  17.528   5.905  0.2389 -0.0946 -0.2165
25177W        W41071   3.441   0.046  15.585 -0.3637 -0.0739 -0.1963
25178W        W41072  16.666  14.414  17.070 -0.1550 -0.1842  0.2019
25179W        W41073  11.943  10.362  16.927  0.2138 -0.0801  0.1866
25180W        W41074   9.668  15.889   0.129 -0.1736  0.0434 -0.0514
25181W        W41075  12.339   3.316   0.287 -0.1858  0.0593  0.4524
25182W        W41076   1.584   4.627  14.869 -0.3014  0.1076  0.2775
25183W        W41077   9.436   8.979  15.836  0.1788  0.0066  0.5342
25184W        W41078  15.482   9.415  17.282  0.1989 -0.0177  0.0723
25185W        W41079  13.107   0.474  12.104  0.1423 -0.0778  0.0364
25186W        W41080   4.517   0.487  13.131  0.0730  0.0379  0.1114
25187W        W41081   5.927   0.837   6.375 -0.2225 -0.0956 -0.1853
25188W        W41082   2.098   7.734   5.895  0.1121 -0.0289 -0.0527
25189W        W41083   8.552  12.807   3.825  0.0005  0.1641  0.1082
25190W        W41084   2.372   5.066   2.450  0.0436  0.3074  0.0308
25191W        W41085   2.136   2.349  16.029  0.0071 -0.1258 -0.2872
25192W        W41086  11.310   2.084   2.473 -0.1744 -0.0228 -0.3740
25193W        W41087   4.024  14.685   0.746  0.0705  0.1187 -0.1016
25194W        W41088  17.014   6.340   1.157  0.0079 -0.1270 -0.2291
25195W        W41089   4.739  14.739   2.344 -0.2678  0.3175 -0.2336
25196W        W41090   6.343  13.698  16.628  0.1134 -0.0674  0.1827
25197W        W41091  13.934   9.052   2.164 -0.2132  0.0826  0.2276
25198W        W41092   0.019  13.468  16.015  0.1189  0.1268 -0.2357
25199W        W41093  13.492  10.523   0.329 -0.0988  0.0053 -0.2974
25200W        W41094   0.157   2.875   0.744 -0.2222  0.2982 -0.0646
25201W        W41095  13.083  11.946  16.785  0.1338 -0.0760  0.0531
25202W        W41096  13.346  17.501   0.744 -0.0994 -0.0552 -0.0446
25203W        W41097   5.499  13.545   6.135 -0.1713  0.0754  0.1417
25204W        W41098  11.422   8.534  15.743  0.0387 -0.0711 -0.0417
25205W        W41099  15.054  14.037  13.138  0.0029 -0.0414 -0.1586
25206W        W41100  16.774   6.126   2.603 -0.0219 -0.0008  0.4201
25207W        W41101  16.802  11.192  15.207 -0.0660  0.0226  0.1617
25208W        W41102   1.399  16.637   0.241  0.4342  0.0389 -0.1896
25209W        W41103   1.086   5.215  16.664 -0.4892 -0.0272  0.0511
25210W        W41104  10.052  16.542   3.373 -0.2456 -0.4054 -0.2751
25211W        W41105  14.319  12.779  16.112  0.4416 -0.0141  0.2318
25212W        W41106  15.007  11.028  13.063  0.1798 -0.1266 -0.0461
25213W        W41107   6.315   8.860  13.305 -0.0793  0.2244 -0.1177
25214W        W41108  13.099   4.896   6.591 -0.0626  0.2695 -0.1178
25215W        W41109   3.582   9.077  16.963  0.2490 -0.0850  0.1536
25216W        W41110   8.757  14.199   1.207 -0.0663  0.0763  0.1366
25217W        W41111  10.707  17.250   3.018 -0.0597  0.2055 -0.1301
25218W        W41112   3.195   9.997   0.635  0.0433 -0.0820 -0.0161
25219W        W41113   1.056   7.951   4.235 -0.1766  0.2450 -0.1538
25220W        W41114  15.532   1.861  11.515 -0.0701 -0.0033 -0.0504
25221W        W41115  11.492   9.039  13.779  0.3108  0.0802  0.1286
25222W        W41116   2.169   1.142   3.030 -0.2807  0.3084  0.0394
25223W        W41117   7.176   3.022  14.447 -0.0679 -0.0740 -0.1851
25224W        W41118  12.983  12.453  16.726  0.1398 -0.1016  0.3269
25225W        W41119  15.420   7.653  16.124  0.2834  0.2500 -0.0375
25226W        W41120   6.148   9.405  13.984 -0.3419 -0.0373 -0.2373
25227W        W41121  16.084   9.221  11.911 -0.3074  0.1356 -0.0680
25228W        W41122  10.361  17.377  14.319  0.0303 -0.2527 -0.0723
25229W        W41123   0.117  13.595   5.355  0.1958 -0.1389 -0.0509
25230W        W41124   6.874   5.044  17.072 -0.0367 -0.0137  0.0898
25231W        W41125   7.488   7.732  14.315 -0.2578  0.2929 -0.0641
25232W        W41126  14.338   2.815   4.352  0.0373  0.0226 -0.1085
25233W        W41127   1.686  14.214  13.772 -0.1479  0.0384 -0.0767
25234W        W41128   6.527   7.600  13.062  0.1620  0.1597 -0.2020
25235W        W41129   1.957   8.829   0.979 -0.0999 -0.1461  0.2449
25236W        W41130   2.181  13.636   5.609 -0.2942  0.1615 -0.0486
25237W        W41131   7.728  14.813   5.371  0.1734  0.0607  0.0064
25238W        W41132  10.264   2.085  11.831 -0.4300 -0.3206 -0.0508
25239W        W41133   8.392   6.663   2.344 -0.0409 -0.0829 -0.1723
25240W        W41134  12.029  16.021   3.990 -0.2253 -0.1152  0.1709
25241W        W41135  11.691   2.603   4.584 -0.2680  0.1676  0.0454
25242W        W41136  15.119   8.914  11.650  0.2033  0.0347  0.4047
25243W        W41137  17.021   9.015   4.906 -0.1424 -0.1146 -0.1034
25244W        W41138   5.603  12.207  15.534 -0.1101  0.3135 -0.3211
25245W        W41139   3.813   4.395   2.955 -0.5797 -0.0181 -0.2173
25246W        W41140   2.061  17.172  12.132 -0.1254  0.3283  0.0436
25247W        W41141  11.585  17.386   4.381 -0.1202 -0.2421  0.2708
25248W        W41142   3.134   7.607  16.208  0.0276  0.0962  0.1372
25249W        W41143   5.171  16.687   1.021 -0.0508  0.3455  0.0375
25250W        W41144   5.603   8.244  12.267  0.1466 -0.0505 -0.1694
25251W        W41145  14.338   2.897   2.384 -0.0602 -0.2657  0.1354
25252W        W41146  12.627   6.454   6.501  0.0379  0.3131  0.1641
25253W        W41147   0.524  16.227  16.119  0.0579 -0.0427  0.1041
25254W        W41148  15.415   5.754  16.805  0.1447 -0.0674 -0.2066
25255W        W41149  12.523   5.676  13.769  0.1204 -0.1702  0.0597
25256W        W41150  15.188   5.145  16.045  0.0549 -0.1602  0.0142
25257W        W41151   4.667  12.315  14.986  0.1166 -0.0011 -0.0362
25258W        W41152   2.474  13.583   2.506 -0.0353  0.1096  0.2644
25259W        W41153  14.736   9.198  12.113  0.2466  0.1767  0.1774
25260W        W41154   3.980  14.659   4.385 -0.1955  0.1908 -0.1788
25261W        W41155   4.030  17.275   4.138  0.0247  0.1646 -0.0608
25262W        W41156   1.581  14.934  15.254 -0.0253 -0.0071 -0.2775
25263W        W41157   2.637  15.205   5.822  0.1783  0.0057  0.2362
25264W        W41158  13.395   0.151   6.128  0.0209 -0.3318 -0.3169
25265W        W41159  17.403   6.660   2.369 -0.2522  0.0625  0.0709
25266W        W41160   5.533   4.728   5.126  0.1466 -0.3117  0.0902
25267W        W41161   3.960   9.889  13.837 -0.0151  0.0401 -0.0321
25268W        W41162  11.038   8.012   0.027 -0.2827  0.1745  0.2434
25269W        W41163   9.139  12.096   4.783  0.4410  0.1634  0.0416
25270W        W41164   6.620  10.625   2.226 -0.1432 -0.0818 -0.1370
25271W        W41165   7.988   4.467   3.064 -0.0247 -0.1495 -0.1062
25272W        W41166   5.475  16.439   2.596  0.0204 -0.1112 -0.1317
25273W        W41167   4.630   3.808   4.763 -0.2336 -0.1355  0.0015
25274W        W41168   3.488  12.613  17.053 -0.0621 -0.2238 -0.2387
25275W        W41169  14.614  15.015  12.536  0.1238 -0.0591  0.4237
25276W        W41170  17.167  14.383  13.055 -0.0892 -0.2392 -0.1006
25277W        W41171  15.169  12.750  16.316  0.0576  0.2324 -0.2852
25278W        W41172  11.289   2.067  12.308  0.1548  0.0293  0.3507
25279W        W41173   5.848  17.116   5.835 -0.1028  0.1430 -0.0841
25280W        W41174   7.601   1.631   1.664  0.1825  0.0262 -0.1679
25281W        W41175  15.692  13.386  13.629  0.1472 -0.2045 -0.0512
25282W        W41176  10.361   6.309   2.825 -0.0258 -0.3942  0.3341
25283W        W41177   6.866   5.220  15.491  0.3153 -0.0474  0.0513
25284W        W41178   2.176  12.612   0.443  0.2640 -0.2589  0.1513
25285W        W41179  11.915  11.141  14.354 -0.1984 -0.0846  0.1118
25286W        W41180   5.122  14.171  14.993  0.2866  0.3277  0.1873
25287W        W41181  10.569   9.602   1.112  0.1692 -0.0629 -0.1494
25288W        W41182   5.095  15.414   0.847 -0.2427  0.0064  0.0335
25289W        W41183  12.390  10.135   1.693  0.1709 -0.1145  0.1666
25290W        W41184   4.371  16.353   0.204 -0.1047  0.0539  0.1272
25291W        W41185   3.105   7.758  15.119  0.0536  0.4322  0.1106
25292W        W41186   4.613   0.881   1.197 -0.0167 -0.1030  0.2847
25293W        W41187   4.242   1.402   0.017 -0.1210  0.0069  0.0819
25294W        W41188   6.730  16.332   1.669 -0.2375 -0.0827 -0.1196
25295W        W41189  13.210   1.545   2.523 -0.1291  0.0354  0.3851
25296W        W41190  10.733  10.351  12.327 -0.0341  0.0805 -0.0480
25297W        W41191  12.196  12.680  12.852 -0.0961  0.1130 -0.0083
25298W        W41192  13.951  13.646   0.855 -0.0747 -0.0004 -0.0983
25299W        W41193   2.334   7.278   5.039 -0.1859  0.2436  0.0711
25300W        W41194  11.107   7.559  15.587 -0.1599  0.0078  0.0649
25301W        W41195  14.327   6.724   6.556  0.1612  0.1172  0.0765
25302W        W41196   9.881  10.124   3.952  0.4031  0.1518  0.1836
25303W        W41197  16.174  12.599  16.458  0.2087  0.1200 -0.0966
25304W        W41198   4.064   1.079  13.948  0.0241  0.0039  0.0139
25305W        W41199  15.224   1.582   0.978  0.0998 -0.2445 -0.0448
25306W        W41200   7.689   9.659   5.962 -0.0371  0.1164  0.0722
25307W        W41201   6.592   0.085  13.536 -0.0563 -0.1450  0.1218
25308W        W41202  11.446  16.761  16.182 -0.3010 -0.0883 -0.0997
25309W        W41203  11.323  16.282   0.324 -0.1625 -0.0145 -0.0396
25310W        W41204  13.536  14.575   2.077  0.1448  0.0711 -0.0717
25311W        W41205   2.117  11.497  13.620  0.4240  0.1466 -0.0167
25312W        W41206   5.054  14.068   5.239 -0.2930 -0.4103 -0.0855
25313W        W41207   0.798   1.581   1.776  0.0627 -0.0692 -0.0432
25314W        W41208   5.044  11.687  13.621  0.0578  0.2424  0.1079
25315W        W41209   0.367  12.783  17.219 -0.0848 -0.1241 -0.0890
25316W        W41210  10.848   0.430   2.279  0.2979  0.4382 -0.0702
25317W        W41211  14.798  15.721  14.716 -0.2424  0.1468  0.0673
25318W        W41212  12.073  11.013  15.676 -0.0844  0.0965  0.0082
25319W        W41213  16.084   6.545  16.255  0.3156 -0.1029 -0.0814
25320W        W41214  15.048   8.501   5.872 -0.0027  0.2150 -0.0946
25321W        W41215  13.305   7.023  13.956 -0.3034 -0.1405 -0.0941
25322W        W41216   4.891  17.200   1.771  0.2879 -0.2881  0.0080
25323W        W41217   9.350   6.540   2.080  0.2396  0.2625 -0.0693
25324W        W41218  13.687   6.674  15.146 -0.0548 -0.2227 -0.0654
25325W        W41219   2.466  11.823   2.868 -0.2622 -0.0053 -0.1236
25326W        W41220   0.966   3.957   3.372  0.2686 -0.0441 -0.0179
25327W        W41221  17.542   1.706  11.648  0.1035 -0.0603  0.0714
25328W        W41222   1.867  14.424   0.148 -0.1818 -0.1936  0.2625
25329W        W41223   8.613   0.398   6.283  0.0267 -0.0885  0.0835
25330W        W41224  12.284   0.176  16.274 -0.0511  0.1447 -0.1939
25331W        W41225   0.090   2.970  15.709 -0.2135 -0.0378 -0.2894
25332W        W41226  11.054   5.152  15.271  0.0726  0.0364  0.2921
25333W        W41227   2.853   2.994   0.878  0.1228 -0.0687 -0.2064
25334W        W41228  16.505   1.377  16.148 -0.1845 -0.0110  0.1309
25335W        W41229   4.118   9.639   3.129 -0.0605 -0.0012 -0.2279
25336W        W41230   9.405  16.509  16.964 -0.0709 -0.2049  0.1862
25337W        W41231  14.739   1.474  14.456  0.0658 -0.0497 -0.2637
25338W        W41232   8.556  15.842  12.560 -0.0036 -0.1165 -0.1817
25339W        W41233  13.110  15.832  13.067 -0.2273  0.0112 -0.1860
25340W        W41234   9.674   1.583  15.627 -0.3475 -0.2188  0.2017
25341W        W41235   8.481  12.991   5.873  0.2161 -0.2469 -0.0786
25342W        W41236   1.628   4.301   5.703 -0.0767 -0.1671  0.0752
25343W        W41237  16.785  15.671  17.084  0.2235  0.4551 -0.0452
25344W        W41238   2.200  15.253   1.927 -0.2556  0.0386 -0.1432
25345W        W41239   1.509   1.657   3.524 -0.1033 -0.3234 -0.0157
25346W        W41240   1.151  13.879   1.374  0.0036  0.3310 -0.3085
25347W        W41241   6.816  15.466   0.956  0.0052  0.2678 -0.3584
25348W        W41242   2.005  10.870   2.699 -0.2095  0.1129 -0.1933
25349W        W41243  16.572   0.795  14.383 -0.3236 -0.4147 -0.0007
25350W        W41244   9.333  12.114  13.169  0.2186 -0.3484 -0.4697
25351W        W41245  12.829  10.303   2.677 -0.3776  0.0219 -0.0286
25352W        W41246   0.560   4.903  14.979  0.1388 -0.0553 -0.1202
25353W        W41247  17.576   8.919   6.335  0.0680  0.2916 -0.0184
25354W        W41248   9.751  11.392   5.267 -0.1770  0.0639 -0.3513
25355W        W41249  16.864   3.786   4.199 -0.0724  0.2538 -0.1087
25356W        W41250  13.536  16.039   5.347 -0.3552  0.1140  0.0785
25357W        W41251  12.517  17.482   3.962  0.0673  0.1978 -0.2164
25358W        W41252   4.192   4.262   5.617  0.0127  0.2216 -0.1002
25359W        W41253  10.601  13.005  14.521 -0.1251  0.1615 -0.0110
25360W        W41254   3.230   4.862  15.199 -0.0580  0.0141 -0.1636
25361W        W41255  16.349   9.740  15.165 -0.0636 -0.1717 -0.1688
25362W        W41256   4.772   1.914   6.041  0.0523 -0.1029  0.1337
25363W        W41257   3.439   5.507  12.309  0.1606  0.0950 -0.0105
25364W        W41258   0.830  10.863   4.303 -0.0581  0.0763  0.1473
25365W        W41259   8.930   6.543   3.232 -0.0198 -0.3348 -0.0932
25366W        W41260  10.245   0.810  13.271 -0.0064  0.2281  0.1002
25367W        W41261  10.036   0.623   2.969  0.3947  0.2800 -0.0316
25368W        W41262   8.846   3.953  12.401  0.0799 -0.0480 -0.1322
25369W        W41263  16.870  14.677   2.070  0.4953  0.0177  0.1999
25370W        W41264   1.614  11.594   2.350  0.0949  0.0572  0.1662
25371W        W41265  15.939   0.680  13.062 -0.2452  0.0773  0.4353
25372W        W41266   6.558   5.590   3.303 -0.0705 -0.0399  0.1374
25373W        W41267  11.253  11.284  11.482  0.1248 -0.0034  0.1007
25374W        W41268  15.225   7.231  14.327 -0.1412  0.0517  0.1126
25375W        W41269   6.956   0.153   4.082 -0.1969  0.2057  0.1498
25376W        W41270  12.709   3.739   0.423  0.1552 -0.1763  0.3572
25377W        W41271   9.194   9.228   0.936 -0.1694  0.2283  0.0854
25378W        W41272   3.288   0.387   6.294  0.0003  0.0462  0.1405
25379W        W41273  14.553   1.799  14.095  0.1306  0.1191 -0.1121
25380W        W41274  16.271  14.408   2.145 -0.1233  0.1673  0.2197
25381W        W41275   6.262  13.470   2.264 -0.1957 -0.0391 -0.1157
25382W        W41276   6.641  17.178   6.112  0.1199 -0.0399  0.1336
25383W        W41277   0.892  10.928   3.232 -0.2837  0.0822  0.0331
25384W        W41278   9.738   7.266   3.439  0.2274 -0.3075  0.0111
25385W        W41279  14.679  12.244  13.268  0.0191 -0.3694 -0.2159
25386W        W41280  11.380   0.515   4.169  0.3099 -0.0033 -0.1420
25387W        W41281  12.515  13.717   1.496  0.0204 -0.0848  0.3026
25388W        W41282   8.038  17.499  16.214 -0.3451 -0.1117  0.0405
25389W        W41283   2.043   9.424  16.594  0.0811 -0.1577 -0.2791
25390W        W41284   3.755  16.403  11.532 -0.0230  0.1448  0.3554
25391W        W41285   8.668  17.002   1.387 -0.1277  0.0095 -0.0384
25392W        W41286  12.973   9.094   5.543  0.0663 -0.0492 -0.4043
25393W        W41287  13.842   9.384  15.892  0.1868 -0.0661  0.2543
25394W        W41288   3.960   7.403   5.149 -0.1379 -0.2214  0.0227
25395W        W41289  17.504  12.028  14.360 -0.0245  0.0162  0.0875
25396W        W41290   7.709  12.565   3.377 -0.0144  0.1457 -0.1046
25397W        W41291  12.118  14.703  15.911 -0.0903  0.2541 -0.1379
25398W        W41292   3.151   4.335   0.663 -0.1733  0.1429 -0.1870
25399W        W41293   2.280   1.977   2.488 -0.2566 -0.3065  0.1977
25400W        W41294   6.520   1.678   3.632 -0.2489  0.1565 -0.0868
25401W        W41295  10.988   5.126   0.606  0.3005 -0.0508  0.0768
25402W        W41296  11.690  11.706  14.501 -0.2941 -0.1976  0.1129
25403W        W41297  14.979   2.923  12.059 -0.1135  0.0383  0.2642
25404W        W41298  14.224   5.999   3.582  0.0185  0.2123  0.0277
25405W        W41299   4.353   6.166  14.333 -0.3058 -0.1066  0.0356
25406W        W41300  13.949   1.806   0.602 -0.3098  0.0782  0.1503
25407W        W41301   5.176  11.943   5.029  0.5137  0.0792  0.0360
25408W        W41302  13.758   5.415  16.813  0.0511  0.0406 -0.0213
25409W        W41303   9.856   9.514  14.518 -0.5417  0.0130 -0.0910
25410W        W41304   1.465   2.358   2.371  0.2089 -0.2092  0.0812
25411W        W41305  15.030   3.965  14.441 -0.3872  0.3016  0.0197
25412W        W41306   8.763  16.195   3.181  0.0103 -0.0297  0.1162
25413W        W41307  15.504  16.247  14.261  0.0610  0.0248  0.1858
25414W        W41308   4.546   6.403   3.586  0.1424  0.1011 -0.0119
25415W        W41309   5.347   1.565   5.375 -0.0453 -0.1293  0.0982
25416W        W41310  10.304  16.595   1.054 -0.0445  0.1031 -0.0846
25417W        W41311   3.509   0.380  17.130 -0.0516  0.0054  0.2939
25418W        W41312   4.778  11.034  15.761 -0.3555  0.1201 -0.0822
25419W        W41313  11.808   2.216  16.405 -0.1264 -0.1221  0.1810
25420W        W41314  16.190   7.469   4.277  0.1452 -0.2862 -0.0739
25421W        W41315   3.108   9.332   2.608  0.0905 -0.2281 -0.3124
25422W        W41316  12.579   2.070   0.707  0.1051  0.2343  0.1584
25423W        W41317  15.529   6.143  12.232 -0.2124 -0.2351  0.1900
25424W        W41318   3.105   9.146   3.183  0.2632  0.0237 -0.3286
25425W        W41319  10.958   8.442  15.987 -0.2275 -0.0517 -0.0857
25426W        W41320  10.167  10.881   4.190  0.0555  0.0278 -0.1356
25427W        W41321   0.961   1.160  10.964  0.3689 -0.0189 -0.1528
25428W        W41322  11.310  15.964  12.944 -0.0884 -0.1616 -0.0972
25429W        W41323   8.167   5.350   0.313  0.2634 -0.0980  0.0251
25430W        W41324   5.591  12.259   2.891 -0.1870 -0.2210 -0.1429
25431W        W41325   5.117  10.578  17.282  0.0228  0.3761 -0.2936
25432W        W41326   7.305   7.548   3.958  0.0043  0.1910  0.0731
25433W        W41327   7.848   4.208  16.650 -0.0022  0.1742 -0.2390
25434W        W41328   1.780  10.296   4.776  0.2280  0.2011 -0.0054
25435W        W41329  14.711  11.860  14.316  0.0154  0.3179 -0.0518
25436W        W41330  11.911   1.686   3.036 -0.0269  0.0255  0.2095
25437W        W41331   3.488  10.535   6.724  0.2529 -0.0670  0.2879
25438W        W41332  14.328   8.588   0.563 -0.2162  0.3436  0.0495
25439W        W41333  11.022  17.493   0.050  0.3253  0.1060 -0.1372
25440W        W41334   8.391  12.756   4.388  0.1212  0.2208  0.2546
25441W        W41335  13.057   7.053   2.200  0.0285 -0.0628 -0.0582
25442W        W41336   7.630   0.414   5.705  0.4311  0.3463  0.2104
25443W        W41337   8.261  16.036  12.088  0.1808 -0.0537 -0.0350
25444W        W41338   4.062  12.671   5.971 -0.2181 -0.0429 -0.1276
25445W        W41339  10.359  13.730  11.895 -0.2252  0.1890 -0.2148
25446W        W41340   0.436   7.369  17.299 -0.1857 -0.2196 -0.0209
25447W        W41341  14.353  15.232  17.094  0.0759  0.0383 -0.1233
25448W        W41342   8.328  11.416   5.252  0.0335  0.2947  0.0026
25449W        W41343  10.714  16.807   0.820  0.0023  0.1189 -0.2399
25450W        W41344   0.431   8.691  14.902 -0.1579 -0.1952 -0.2370
25451W        W41345   9.077  10.752  15.878 -0.1740  0.0725 -0.0931
25452W        W41346   1.813   2.693  12.302  0.1192  0.0468  0.0139
25453W        W41347   0.549  16.826  12.411  0.0255  0.0839 -0.0589
25454W        W41348  15.735   8.034  16.010  0.0741  0.0964 -0.0744
25455W        W41349  17.184  13.793   3.507 -0.2333  0.0963  0.0134
25456W        W41350  13.761  11.047  15.778  0.0204 -0.2249  0.0235
25457W        W41351  13.032   2.935   6.374  0.2641 -0.2253 -0.0582
25458W        W41352   6.567   2.327   1.312 -0.0567  0.3111 -0.0389
25459W        W41353   9.573   1.499  12.625 -0.1696  0.1184  0.0663
25460W        W41354   3.785  12.675  13.975 -0.0042 -0.0528 -0.0249
25461W        W41355   7.496  12.890  16.621  0.1457 -0.1027 -0.2375
25462W        W41356  15.236   6.503  12.382  0.0435  0.3524 -0.2148
25463W        W41357  13.785   5.593   2.103 -0.0891  0.1617  0.0666
25464W        W41358   1.117  12.186  12.897  0.1115  0.0623 -0.0418
25465W        W41359   6.525   7.743   4.329  0.2028 -0.0512 -0.3179
25466W        W41360  17.105   5.741   2.695 -0.0924 -0.0642 -0.1077
25467W        W41361   5.266  12.164  11.852 -0.0305  0.3002 -0.0164
25468W        W41362  11.136  12.867   4.750 -0.0034  0.5830 -0.2606
25469W        W41363  13.103  14.444  12.864 -0.3522  0.0722  0.0633
25470W        W41364   8.275   1.237  15.327  0.1905  0.2110 -0.2349
25471W        W41365   9.890  10.230   0.977  0.1059  0.3192  0.0612
25472W        W41366   1.039  12.751  15.582  0.1424  0.2021  0.2144
25473W        W41367   7.574  15.938  15.355 -0.0238 -0.0585 -0.1086
25474W        W41368   7.318   0.980  13.409  0.3084  0.0990  0.0960
25475W        W41369  17.448   7.130  11.665  0.0198  0.2237 -0.0560
25476W        W41370   0.639   5.355   4.510 -0.2038  0.0710  0.0629
25477W        W41371   5.972   8.360   3.064  0.3559 -0.0101  0.0672
25478W        W41372  12.324   5.074   5.608 -0.0227  0.2967 -0.1428
25479W        W41373   0.462   5.715   0.035  0.0587 -0.0702 -0.1658
25480W        W41374   3.222   1.198  12.112 -0.1399 -0.2814 -0.2373
25481W        W41375   7.800   5.614  16.417  0.0707  0.1307  0.0328
25482W        W41376  16.626  17.258  15.427 -0.1754  0.1406  0.1232
25483W        W41377  12.219  15.426   4.887 -0.0801  0.3819 -0.4650
25484W        W41378  14.672  13.507   4.681  0.1974 -0.0362 -0.3497
25485W        W41379  17.354   2.576  15.718 -0.0798  0.0217 -0.0148
25486W        W41380  13.908   1.203   4.197  0.1849 -0.0020 -0.0773
25487W        W41381   0.067  12.978   0.306  0.1797  0.1493  0.0624
25488W        W41382   4.598  11.516   5.150  0.0745  0.0035  0.2578
25489W        W41383  13.583  12.053   3.156 -0.1775  0.0470  0.2332
25490W        W41384   1.607  11.309   4.698  0.1395 -0.1476 -0.0161
25491W        W41385   0.117   3.753   0.879 -0.1129 -0.0561  0.0608
25492W        W41386  13.475   1.072   2.686  0.0348  0.1083 -0.1858
25493W        W41387  15.615  15.975   6.473 -0.3016  0.1612  0.0614
25494W        W41388   4.563   4.917   2.827 -0.2891 -0.0378  0.2791
25495W        W41389   9.440   1.729  15.177 -0.1328 -0.0536 -0.4563
25496W        W41390  12.540   4.579   0.163  0.2766 -0.0410  0.0253
25497W        W41391   0.886  16.013  16.470 -0.2214 -0.1187  0.0740
25498W        W41392   8.736   9.332   0.727  0.2739  0.2338 -0.2527
25499W        W41393  11.899  16.449   3.702 -0.0065  0.0212 -0.0162
25500W        W41394   1.065   6.844  15.300  0.2519 -0.0085 -0.0051
25501W        W41395   2.414   8.788   5.301 -0.0183 -0.1559 -0.1572
25502W        W41396  15.157  10.558   5.996  0.1441 -0.1286 -0.2383
25503W        W41397  16.193  17.170  14.672  0.2879  0.2369 -0.4691
25504W        W41398   2.479   8.611   3.801  0.0304 -0.0297 -0.1103
25505W        W41399  12.512  14.038  15.297  0.0941 -0.1705  0.0234
25506W        W41400  16.565   8.799   0.825  0.0066 -0.1993 -0.0269
25507W        W41401   3.345  10.200  13.163 -0.1834 -0.1197  0.1388
25508W        W41402   6.943   4.308   4.533 -0.0350  0.0484 -0.0199
25509W        W41403   3.345   8.425  13.886  0.2519 -0.0216  0.2093
25510W        W41404  11.074   3.478  14.898  0.0703  0.1734  0.1100
25511W        W41405  12.303   7.310   3.827  0.1240 -0.1662  0.0580
25512W        W41406   3.650  11.410   4.244  0.5066  0.0817 -0.0414
25513W        W41407   2.527   0.142   1.655  0.1035 -0.2233  0.0421
25514W        W41408  17.339   3.729  13.326  0.3064 -0.1081 -0.3906
25515W        W41409  13.041   7.390  15.990 -0.0445  0.1188  0.0046
25516W        W41410   6.764  15.525   5.595  0.3417 -0.0024 -0.2013
25517W        W41411  12.898   1.057  13.352  0.0505 -0.0287  0.1202
25518W        W41412   9.212  16.933  17.077 -0.1663  0.2433  0.1558
25519W        W41413  13.809   0.875   1.829  0.4893 -0.2041 -0.0230
25520W        W41414   0.967   6.340   4.329 -0.0377  0.0336 -0.1433
25521W        W41415  10.611   7.764   3.034 -0.1485  0.1626  0.0452
25522W        W41416   4.510  17.032  15.553 -0.1564 -0.2055  0.0504
25523W        W41417  10.702   5.512  14.108  0.3959  0.2718  0.1345
25524W        W41418  11.578   1.151  11.866  0.4386  0.0321 -0.0542
25525W        W41419  12.278  10.978  11.902 -0.0738  0.1482 -0.1619
25526W        W41420  13.324   1.038  14.627 -0.4112 -0.0519 -0.1876
25527W        W41421   6.196   7.781   6.013 -0.1815  0.1496 -0.1853
25528W        W41422  15.937   9.507   5.624 -0.2336 -0.0069  0.0574
25529W        W41423   7.303  12.343   4.479 -0.1645 -0.1542  0.0388
25530W        W41424  11.857  10.345   2.131 -0.0872  0.0806  0.0020
25531W        W41425   8.484  17.339  13.023 -0.0529  0.0072 -0.0552
25532W        W41426   5.942  16.696  12.823 -0.2990  0.2664 -0.1631
25533W        W41427   2.325  12.450   4.044  0.1060  0.0473 -0.1285
25534W        W41428   9.323  10.702   3.139 -0.0507 -0.1139 -0.1845
25535W        W41429  16.915  15.432   0.808 -0.2528 -0.0562 -0.1837
25536W        W41430  15.762  13.068   0.990 -0.0967 -0.2635 -0.0718
25537W        W41431   6.585   8.941   0.407  0.4320  0.2064 -0.4813
25538W        W41432  16.901  10.781  12.808 -0.2477  0.1854 -0.0572
25539W        W41433  14.585   3.810  13.935  0.1291 -0.0510  0.2013
25540W        W41434  16.120  13.078   5.175  0.0517 -0.1281 -0.1438
25541W        W41435   8.680  13.179  16.684  0.1206  0.0506  0.1722
25542W        W41436   5.619   0.953  16.451  0.0067  0.1516 -0.0387
25543W        W41437   7.305  12.764  12.004  0.1389  0.1407 -0.1441
25544W        W41438   9.463   3.698   2.837 -0.0086 -0.2276 -0.2267
25545W        W41439   4.430  16.089   0.647  0.2236 -0.0438  0.2297
25546W        W41440   0.544   7.895  16.045  0.0618  0.1371  0.1130
25547W        W41441  11.505  11.089  12.100  0.1951 -0.0914 -0.1106
25548W        W41442  10.629   7.909   0.344  0.0690 -0.1000 -0.3915
25549W        W41443   6.616   7.210  15.453  0.2762 -0.1096 -0.3454
25550W        W41444   4.252   0.804  16.150 -0.0056  0.0798 -0.0602
25551W        W41445   3.943   9.544   2.660  0.1432  0.0171  0.0545
25552W        W41446   8.165   7.446   3.830 -0.1501  0.0792  0.2104
25553W        W41447  16.138  15.380  16.403 -0.0708  0.0653  0.1805
25554W        W41448   9.807  16.329  17.233 -0.0587 -0.0899  0.1656
25555W        W41449   8.069  10.537   3.861  0.1446 -0.0785 -0.0881
25556W        W41450   5.862  16.941   5.291 -0.5558 -0.1299 -0.0530
25557W        W41451  10.656  11.465  14.134  0.3654  0.2659 -0.1096
25558W        W41452   5.062  13.255  16.520  0.0833  0.0241 -0.1346
25559W        W41453  11.469  14.009  15.376 -0.0539  0.0681 -0.0499
25560W        W41454  15.214   6.724   2.982 -0.1088  0.1614 -0.4278
25561W        W41455  15.641  11.804  16.934 -0.2362 -0.1388 -0.1816
25562W        W41456  11.148   3.343   5.963 -0.2514 -0.1207  0.2239
25563W        W41457  10.778   1.476   3.906  0.3657  0.1392  0.1666
25564W        W41458  14.304  12.370  11.878  0.1075  0.4688  0.1240
25565W        W41459  15.263  17.012  13.248 -0.1164  0.0329 -0.2986
25566W        W41460  10.873  10.318   2.261  0.2236  0.0674 -0.4782
25567W        W41461   7.482  13.290   4.739 -0.0478  0.3378 -0.0523
25568W        W41462   1.350   2.413  16.614 -0.4507  0.0867 -0.2588
25569W        W41463  16.921  16.371   2.594  0.1291 -0.1191  0.1844
25570W        W41464  11.949   4.308   1.153  0.0047  0.2575  0.2063
25571W        W41465   5.344   8.946  12.133 -0.0618 -0.1010  0.0743
25572W        W41466   9.224   3.581  15.051 -0.1303 -0.1265 -0.1930
25573W        W41467   4.478   7.500   5.115 -0.1238 -0.2847 -0.4359
25574W        W41468  11.242  10.786  16.192  0.1867  0.0127 -0.0076
25575W        W41469   2.549   7.977  15.664  0.4864 -0.1019  0.1061
25576W        W41470   6.775  10.617  14.176 -0.3856 -0.2015  0.2120
25577W        W41471  16.999  10.919  12.354  0.2853  0.1699  0.1467
25578W        W41472  12.217   3.828   1.066  0.0851  0.2943 -0.1831
25579W        W41473   5.996  10.304   1.470 -0.0111 -0.1288  0.0522
25580W        W41474   8.341  16.127  14.373  0.1490 -0.1671 -0.0618
25581W        W41475  11.645  11.728  17.203 -0.0751  0.0143 -0.0172
25582W        W41476   7.554   5.001   1.031  0.2786  0.4363 -0.0626
25583W        W41477  14.309  11.128   0.672  0.2348  0.1802  0.0218
25584W        W41478   6.243  17.081   3.658  0.1214 -0.1072  0.0586
25585W        W41479   7.150   2.231  11.285 -0.1679  0.3438 -0.0412
25586W        W41480  16.631   4.333   4.223  0.3899  0.2971  0.0253
25587W        W41481   2.764   9.756   2.773  0.0463  0.1812  0.0459
25588W        W41482   5.067   4.074   3.193 -0.0811 -0.2507 -0.0390
25589W        W41483  12.750   7.348  13.140 -0.2483  0.0454  0.0164
25590W        W41484  16.754  15.632   1.851  0.1383 -0.4555 -0.1841
25591W        W41485   9.985  15.772   2.271 -0.1282 -0.1913  0.1014
25592W        W41486  12.556  12.545  13.370 -0.3771 -0.0368 -0.1052
25593W        W41487  11.134   5.139   4.361  0.1296  0.1545  0.2110
25594W        W41488   5.769  10.656  12.167 -0.0332 -0.4844  0.0326
25595W        W41489   9.315   7.473   1.092  0.4501 -0.0097 -0.0242
25596W        W41490  14.325  16.347  13.340 -0.0478 -0.0276  0.3333
25597W        W41491   1.750   1.709   4.890  0.1350 -0.0336  0.1367
25598W        W41492   7.742  14.314   4.243 -0.0493  0.3047  0.1045
25599W        W41493  12.274   0.625  13.749 -0.0129  0.1327  0.1883
25600W        W41494  17.612  15.699  11.618  0.1997 -0.2041 -0.1322
25601W        W41495  17.157  12.120   1.133  0.1637 -0.1795  0.3418
25602W        W41496  15.390   6.948   2.572 -0.0403  0.2110  0.4224
25603W        W41497  15.127  14.308  14.114  0.0550  0.2173 -0.0886
25604W        W41498  17.057  13.440   1.926  0.0010  0.4561  0.0452
25605W        W41499   0.499   2.643  13.520 -0.0310 -0.0795  0.2985
25606W        W41500   4.474  14.596   3.532 -0.1198 -0.1517 -0.0687
25607W        W41501   0.079   2.856  13.703  0.3560 -0.0338  0.0346
25608W        W41502  15.581  15.806   2.144  0.0532 -0.1419 -0.2410
25609W        W41503  15.639  17.072   2.718  0.1243  0.1100  0.1127
25610W        W41504  12.743  11.438  12.906  0.1849  0.2889 -0.0679
25611W        W41505   2.014   8.751   3.597  0.1184  0.2126  0.0253
25612W        W41506   8.045   8.132   5.062  0.2626  0.0157  0.2072
25613W        W41507   9.202  13.661   0.669  0.1533 -0.0406 -0.0698
25614W        W41508  11.946  16.594  15.934 -0.1408 -0.0122 -0.1794
25615W        W41509  16.558   7.570   0.822  0.3490  0.0627 -0.0902
25616W        W41510   7.407   0.141  12.453  0.1726  0.2150 -0.3983
25617W        W41511  10.381   5.010   5.413  0.2233  0.0516  0.1464
25618W        W41512  14.960  14.309  12.749  0.0077 -0.2140 -0.1312
25619W        W41513  14.573  16.170  14.526  0.0810  0.2938  0.1416
25620W        W41514  12.947  11.433   4.393  0.1824 -0.1581 -0.0641
25621W        W41515   3.926  12.815   2.003 -0.0439 -0.0244  0.0725
25622W        W41516  10.286  11.446  11.616 -0.1953  0.1309  0.0465
25623W        W41517   8.193  13.151   4.129  0.2046  0.0320 -0.3926
25624W        W41518   6.019   1.108  13.912  0.0281 -0.0740 -0.0275
25625W        W41519   8.521  12.241   2.592  0.2147  0.3923 -0.0484
25626W        W41520   2.640   7.974   2.609 -0.1448  0.2400 -0.4785
25627W        W41521   9.692   1.440  14.176 -0.0808  0.0435  0.1240
25628W        W41522  13.698   7.975   1.355  0.0236  0.1165  0.1002
25629W        W41523   2.978   2.012  12.246  0.0712 -0.0789  0.1880
25630W        W41524  13.640   2.582  11.427  0.0614 -0.2009 -0.0671
25631W        W41525   9.499   6.240  13.459  0.1699 -0.4163  0.0024
25632W        W41526  16.125  16.083   5.819  0.0188 -0.1186 -0.0453
25633W        W41527   8.235   8.866   0.092 -0.0596  0.1008  0.1812
25634W        W41528   3.730   0.430   5.727 -0.0168 -0.5247 -0.0359
25635W        W41529  15.025  16.084   2.839 -0.2405  0.0967 -0.1150
25636W        W41530   5.232   0.310  15.101  0.1318 -0.2463 -0.2458
25637W        W41531  12.306   4.330  16.671  0.1062  0.0415 -0.1688
25638W        W41532  11.532  13.636  12.954  0.0813  0.1674 -0.0674
25639W        W41533   1.729   1.818   2.627  0.0018 -0.1400  0.1932
25640W        W41534  16.958   9.561  15.335  0.1960 -0.1261  0.0379
25641W        W41535   6.060  11.926  12.561 -0.0222 -0.0187 -0.2481
25642W        W41536  17.105   9.659   3.664  0.2949 -0.1012 -0.4545
25643W        W41537   1.347   2.077  17.017  0.3086  0.0416 -0.0994
25644W        W41538   8.946   7.353   1.429 -0.2059  0.1736 -0.1876
25645W        W41539  12.089  12.045  13.643  0.0452 -0.0484  0.1519
25646W        W41540  14.404   9.549   2.349  0.0826  0.1180 -0.1803
25647W        W41541   2.341  10.525  15.748  0.3710 -0.2889  0.2013
25648W        W41542  10.536   9.159   0.421  0.1797 -0.1322 -0.4121
25649W        W41543   8.381  13.983   3.389  0.2003  0.0983 -0.1208
25650W        W41544  14.418   3.351  14.240  0.2726 -0.1263 -0.2623
25651W        W41545   7.283   3.428   5.074 -0.0048  0.1565  0.2881
25652W        W41546   7.325  15.796  12.190 -0.1669 -0.1162 -0.2506
25653W        W41547  12.923  13.796   2.819  0.0935 -0.0374 -0.0262
25654W        W41548   7.445   2.389   6.100 -0.1509 -0.0401 -0.1017
25655W        W41549   9.793  16.983   0.786 -0.0217 -0.0317 -0.0126
25656W        W41550  14.174   6.191  17.168  0.3211  0.1346  0.0035
25657W        W41551   3.916  12.508   4.786 -0.0214 -0.0918 -0.0761
25658W        W41552   1.280  16.128   2.281 -0.1364  0.1400  0.0495
25659W        W41553  13.040   1.238   3.676 -0.1907 -0.0955  0.1960
25660W        W41554   8.542  16.493   4.159  0.1628 -0.0246  0.1096
25661W        W41555   0.426   6.491   2.729 -0.1497 -0.0171 -0.2809
25662W        W41556   0.586   6.006  12.979 -0.3045 -0.0393  0.1969
25663W        W41557   5.677  16.531  14.216  0.2851 -0.2250  0.4108
25664W        W41558   8.434   2.879  16.956 -0.0347 -0.2285 -0.0637
25665W        W41559   4.751  13.013  12.489 -0.2949 -0.1784 -0.1650
25666W        W41560   2.374   6.700  15.136  0.1956 -0.0398 -0.0319
25667W        W41561  16.188  11.256  16.304 -0.1234 -0.1200 -0.1526
25668W        W41562   0.814   7.585  16.335 -0.3145  0.2959  0.3836
25669W        W41563   2.811  12.309   3.217 -0.0133  0.0281  0.3136
25670W        W41564   7.207   6.927  16.959 -0.0911  0.0029 -0.0811
25671W        W41565  16.447   8.110   5.000  0.0141 -0.4715 -0.5251
25672W        W41566  16.013   6.245   5.991  0.0647  0.2254 -0.0014
25673W        W41567   9.325   2.749   6.498  0.0472 -0.0945 -0.0623
25674W        W41568   7.680  12.464   2.853  0.1618 -0.2855  0.0390
25675W        W41569  14.841   3.702  14.949  0.3697  0.0802 -0.1551
25676W        W41570   4.375   1.324   1.409 -0.1065 -0.2936  0.3588
25677W        W41571   4.129  14.371   1.104  0.0531 -0.0921 -0.1012
25678W        W41572  11.812  16.047  15.921  0.1180 -0.0126 -0.3897
25679W        W41573  13.323  15.866   3.367 -0.0439 -0.0511  0.0401
25680W        W41574   8.583  13.944  14.181  0.0574  0.0464  0.4001
25681W        W41575  11.814   6.365  13.803 -0.4357 -0.2516 -0.1767
25682W        W41576   3.635  12.047  13.836  0.1408  0.0409  0.1964
25683W        W41577   8.939   0.860  15.765  0.0846 -0.0792  0.0034
25684W        W41578   4.955  14.560   3.829 -0.1392  0.0744 -0.2215
25685W        W41579   6.353   4.114  16.737 -0.0553  0.1144 -0.1337
25686W        W41580   2.850   2.374   3.999 -0.0569 -0.3036  0.2907
25687W        W41581  16.613  17.152  15.965  0.0239 -0.2997  0.1749
25688W        W41582  13.639  14.572   1.327 -0.2661  0.2014  0.4647
25689W        W41583   4.517  16.005   4.167 -0.1748  0.0232  0.0318
25690W        W41584  11.194   1.022  14.080  0.3319 -0.1937  0.1562
25691W        W41585  11.709  16.205  12.017 -0.4349 -0.3024  0.0405
25692W        W41586  11.984   1.449  15.043 -0.0161 -0.1082  0.0319
25693W        W41587  10.556   0.522   1.881 -0.1906 -0.3611  0.0382
25694W        W41588   4.520  11.561  12.994  0.0899  0.0451  0.2799
25695W        W41589   3.190   8.294  14.529 -0.2643  0.2028 -0.1065
25696W        W41590   5.876   6.426   2.435 -0.0307  0.2008 -0.0696
25697W        W41591   6.034  13.080  15.399 -0.2658  0.0363 -0.0639
25698W        W41592  14.096   1.247   3.681 -0.0244  0.3393 -0.0132
25699W        W41593   7.481  12.442  17.155 -0.0284 -0.1484 -0.3040
25700W        W41594   6.244   2.584   2.965 -0.0316  0.2736  0.1908
25701W        W41595   4.861   4.288   1.577 -0.2042  0.0155 -0.2072
25702W        W41596   7.614  11.856  15.518 -0.2017  0.1673 -0.0493
25703W        W41597  10.270  15.316   5.857 -0.0126 -0.1067  0.0117
25704W        W41598  11.103  16.329   3.710 -0.0006 -0.4168  0.2026
25705W        W41599  13.339  17.521  12.113  0.0617 -0.0912 -0.2664
25706W        W41600   3.093  11.460   4.504 -0.2205  0.1634 -0.0165
25707W        W41601   3.398  12.781   3.271 -0.0356 -0.1547 -0.0475
25708W        W41602   2.946  11.394  15.702  0.2660  0.1565  0.0056
25709W        W41603  16.739   1.564  15.349 -0.0651 -0.1632  0.1992
25710W        W41604  15.524   2.354   1.282  0.0410  0.3420 -0.0785
25711W        W41605   7.002   9.587  15.501 -0.1937  0.0986 -0.2556
25712W        W41606  12.993   1.840  15.918 -0.0201 -0.2462  0.1306
25713W        W41607   5.746  15.830  12.661 -0.4928  0.1969  0.1509
25714W        W41608   0.473  10.943   6.108  0.0942 -0.3741  0.0751
25715W        W41609   6.417   4.360  14.279 -0.1789 -0.2817  0.0212
25716W        W41610   2.781   1.344   5.578 -0.0584  0.0612  0.1474
25717W        W41611   4.772  13.357  16.963  0.0100  0.1964  0.1185
25718W        W41612  12.468   9.360  16.337  0.0325 -0.1876 -0.5488
25719W        W41613  12.350   8.895   3.824  0.1871  0.2074 -0.4447
25720W        W41614  15.279  12.920   5.115 -0.1304  0.0441  0.2426
25721W        W41615   8.793   1.725   4.459 -0.0499 -0.0757  0.2541
25722W        W41616  15.759   6.331   1.158 -0.0229 -0.1653 -0.1570
25723W        W41617   1.204  11.441   1.766  0.2206  0.0940  0.0799
25724W        W41618  16.474   6.940   1.530  0.1093 -0.2095  0.0670
25725W        W41619   2.709   2.611   1.081 -0.1030 -0.1010 -0.1790
25726W        W41620  12.310   2.802  15.048 -0.1841 -0.1118  0.0491
25727W        W41621  12.185  11.902  17.037  0.0477  0.2265  0.2844
25728W        W41622   0.336  14.053   1.133 -0.0544  0.2439 -0.0762
25729W        W41623   2.221   2.894  13.190  0.0411 -0.0527 -0.0533
25730W        W41624   6.189   6.411   1.951  0.1246  0.0279 -0.2839
25731W        W41625   4.736   6.939   6.548  0.0146 -0.1882 -0.4108
25732W        W41626  10.267  12.360  11.373 -0.0276 -0.1393 -0.0098
25733W        W41627  13.962   5.446   4.537  0.1378 -0.1391  0.2251
25734W        W41628   4.804   0.160   4.161 -0.4211  0.1944 -0.0792
25735W        W41629   0.123  17.246  13.321  0.0826 -0.0628 -0.0349
25736W        W41630   4.264   5.236   1.247  0.1264  0.0507 -0.0078
25737W        W41631  11.972  15.422   3.918 -0.0151  0.2959 -0.1775
25738W        W41632   3.344  10.405  12.112  0.0421 -0.1385 -0.0525
25739W        W41633   2.299  13.578  12.540 -0.0948 -0.2982 -0.3129
25740W        W41634   7.494  15.409  11.788  0.1984 -0.0272 -0.2082
25741W        W41635   4.817   2.863   0.890  0.1621  0.1062  0.0297
25742W        W41636  15.534  10.604   5.098 -0.0322 -0.2850  0.0387
25743W        W41637   1.792   0.503   4.750 -0.0261 -0.2368 -0.0775
25744W        W41638  13.636  13.126   0.169 -0.0634 -0.1610 -0.0826
25745W        W41639   6.114  14.806  16.016 -0.0708 -0.0856 -0.2977
25746W        W41640  14.762   4.870   2.959 -0.0660 -0.1913  0.3293
25747W        W41641   0.912   3.399  16.951 -0.0294 -0.0533  0.0333
25748W        W41642   0.059  10.742  14.330 -0.1048  0.0303 -0.1206
25749W        W41643  12.088   1.849   0.832 -0.0930  0.0929 -0.2106
25750W        W41644   9.561  13.709   2.626 -0.0569  0.1494 -0.2995
25751W        W41645   9.902   8.718   3.087 -0.2268 -0.2323 -0.6226
25752W        W41646  16.726  10.716   0.082  0.0838  0.0833 -0.0234
25753W        W41647  16.105   4.841  14.023 -0.0044 -0.1551  0.0205
25754W        W41648  12.602  11.686  15.814  0.1542 -0.1011  0.1721
25755W        W41649   1.222  11.421  13.505  0.2065  0.3986  0.1177
25756W        W41650   2.461   0.768   6.743  0.4879 -0.0962  0.2437
25757W        W41651   7.798  13.798  12.594  0.3862 -0.1018 -0.1063
25758W        W41652   7.601  14.433   5.931  0.0739  0.2259  0.1176
25759W        W41653   3.288  13.177  14.092  0.1933  0.1510 -0.1525
25760W        W41654  10.261  16.033   4.186 -0.0680 -0.0759 -0.2827
25761W        W41655  14.078  10.174   4.406  0.0963 -0.2011 -0.0504
25762W        W41656   6.330  16.935  14.627  0.0235  0.2874  0.0635
25763W        W41657   3.523   6.120  12.186  0.0616  0.1032  0.2522
25764W        W41658   4.640  10.573  16.507  0.2039  0.1064  0.3504
25765W        W41659   1.790   9.233  17.070 -0.2285 -0.2405 -0.0942
25766W        W41660  16.838   1.340   1.011  0.0627 -0.1199  0.0957
25767W        W41661   8.332   2.317  13.386  0.0268  0.2307  0.0477
25768W        W41662  17.252  17.417   0.903  0.2423 -0.1884  0.2016
25769W        W41663  15.813   7.027  16.359  0.2218  0.0571 -0.2124
25770W        W41664   4.856   2.869  16.072  0.0804  0.0076  0.0297
25771W        W41665  14.396  15.984   2.808 -0.1682 -0.0169 -0.1547
25772W        W41666   8.028  10.943  14.724 -0.1996 -0.1066  0.0994
25773W        W41667  17.102  10.610  14.400 -0.1723  0.2561  0.0609
25774W        W41668   6.670  14.409  13.904  0.0320  0.0492 -0.0096
25775W        W41669  14.252   6.760  13.765 -0.2561  0.1997 -0.0661
25776W        W41670   2.028   3.384   3.597  0.2607  0.0061  0.2005
25777W        W41671   7.707  13.720   2.793  0.1357  0.0705  0.1024
25778W        W41672   1.370   0.962   1.854  0.2546 -0.0903 -0.3280
25779W        W41673   6.808   3.001   4.446 -0.0592 -0.6142  0.1151
25780W        W41674  13.956  16.007   3.962 -0.3889  0.0891 -0.1631
25781W        W41675   7.639   4.738  16.596  0.0443 -0.1017 -0.0405
25782W        W41676   5.009   0.506  15.844 -0.1660 -0.0887 -0.0286
25783W        W41677  11.846   8.239  15.483  0.0442  0.1772 -0.1625
25784W        W41678  10.811   1.549  13.500  0.2676 -0.0118  0.0088
25785W        W41679   5.972  10.926  15.107 -0.2600  0.0577 -0.3854
25786W        W41680  11.359   6.300  15.957 -0.0376  0.0374  0.1591
25787W        W41681   1.107   3.659  12.706  0.3205 -0.0244 -0.1007
25788W        W41682   4.758   5.720  14.537 -0.0166  0.0964  0.0988
25789W        W41683  13.992   3.877  16.864  0.0735  0.3404  0.1393
25790W        W41684  16.017   5.408  16.645 -0.1561 -0.0486 -0.2391
25791W        W41685  17.137   1.417  13.065  0.0629 -0.1280 -0.1887
25792W        W41686   1.140   1.521  14.488 -0.0774  0.2843 -0.0065
25793W        W41687   5.845  13.894   1.717  0.2532 -0.1214 -0.0813
25794W        W41688   0.553   2.155   1.879  0.2583 -0.0786 -0.4511
25795W        W41689   8.618  13.283  11.798 -0.0030  0.3294 -0.2033
25796W        W41690  12.887  11.800   0.917 -0.3006 -0.1913  0.3921
25797W        W41691   0.180   2.807   1.777  0.1687 -0.0931 -0.2586
25798W        W41692   0.688  14.855   5.003  0.0023  0.1613  0.2421
25799W        W41693   4.791  13.631  16.354 -0.0115  0.0085  0.2463
25800W        W41694   0.781  12.926   4.456 -0.1714 -0.1847 -0.2060
25801W        W41695  14.317   1.915   0.310  0.1364  0.1125  0.0531
25802W        W41696  14.706   0.527   3.920  0.0113 -0.1174 -0.0515
25803W        W41697   7.386  15.050   0.545 -0.1176 -0.0120  0.3319
25804W        W41698  10.272  16.992   3.382  0.2516  0.1873 -0.0288
25805W        W41699   7.316   5.741   3.036  0.4445  0.0029 -0.1511
25806W        W41700   5.067   2.364  12.848 -0.1063  0.1075  0.1841
25807W        W41701   8.711  15.409  13.836  0.2348 -0.0577 -0.0730
25808W        W41702   6.293  16.529   3.700  0.0465 -0.0992 -0.1573
25809W        W41703   6.240  15.278   0.883 -0.0495 -0.2755  0.2747
25810W        W41704  14.661  13.861   1.332 -0.1244  0.0366 -0.0570
25811W        W41705   6.769   8.688  13.766 -0.1044 -0.0054  0.0858
25812W        W41706  15.547  13.288   1.948 -0.0815 -0.2699 -0.0267
25813W        W41707  16.777   9.073  14.615 -0.0857  0.2012  0.0943
25814W        W41708   6.728  16.625  13.551 -0.0727  0.0090 -0.1221
25815W        W41709   2.374  10.738   3.902 -0.0536 -0.2461  0.0296
25816W        W41710  15.977   7.605  15.156 -0.0247 -0.3888 -0.0278
25817W        W41711   6.947  17.115   6.478  0.2424  0.3102 -0.2579
25818W        W41712   2.808  16.943  13.575  0.0650 -0.1777 -0.2264
25819W        W41713   1.247  15.748   3.959 -0.2900  0.0172 -0.0409
25820W        W41714   6.989  15.190   4.238 -0.2190 -0.1687  0.0631
25821W        W41715  16.725   8.814  13.832 -0.1383  0.0945  0.2483
25822W        W41716   6.975  16.058   2.495  0.0771 -0.0184  0.1710
25823W        W41717   6.452  12.074   5.151  0.2236 -0.1865  0.1341
25824W        W41718  13.615  16.124   3.027  0.0415  0.1957  0.1449
25825W        W41719  15.331   6.456  11.901  0.0118  0.1571  0.1497
25826W        W41720   9.864  17.184   5.734  0.1547  0.0273 -0.0550
25827W        W41721   9.792   7.367  12.208  0.2585  0.2090  0.1490
25828W        W41722  15.668  12.155   4.140 -0.1902  0.0280 -0.0711
25829W        W41723  17.053   3.681   0.938 -0.2613 -0.2452 -0.0008
25830W        W41724   5.175   7.044   0.439 -0.0226  0.0714 -0.2165
25831W        W41725  16.696   4.959   3.300 -0.1725  0.2481  0.0889
25832W        W41726   1.034  16.927  13.403 -0.1378 -0.4217 -0.0548
25833W        W41727   8.899  17.144   5.376 -0.0331  0.1658 -0.1632
25834W        W41728   7.485   3.033  14.925 -0.0007 -0.0308  0.0225
25835W        W41729   8.466   6.000   3.922  0.2173 -0.0183  0.0210
25836W        W41730  16.478  16.373   2.107 -0.0495 -0.0097  0.0429
25837W        W41731   5.338  16.991   0.614 -0.0429  0.0745  0.1247
25838W        W41732  16.023   6.935  13.020  0.1331 -0.1554 -0.1268
25839W        W41733   6.445   8.739   5.885  0.0227  0.0517 -0.0506
25840W        W41734  12.883   6.344  14.507  0.2059 -0.1357  0.0985
25841W        W41735   4.541   5.139   5.613  0.1390  0.3106  0.1396
25842W        W41736  16.510   4.623   2.483  0.2971  0.1337  0.0793
25843W        W41737   7.213   3.070   3.827  0.0917 -0.1613  0.0041
25844W        W41738   7.134   4.324   5.791 -0.0499 -0.0689 -0.1770
25845W        W41739   4.374  12.750   1.534 -0.0090  0.1020 -0.2142
25846W        W41740  11.762  11.012  12.873  0.0252 -0.0917  0.0257
25847W        W41741  12.234   3.525  17.106 -0.2348 -0.0126  0.5431
25848W        W41742   2.866  12.625  14.781 -0.0869 -0.0562 -0.0162
25849W        W41743   7.057   1.748   5.670  0.0516  0.1414  0.3482
25850W        W41744   0.455   9.167   4.390 -0.0298 -0.0113 -0.0126
25851W        W41745   7.973   4.580  12.340  0.2290  0.3767  0.1438
25852W        W41746   2.063   7.647  14.350 -0.0862 -0.0478 -0.0449
25853W        W41747  12.944  17.124  16.788  0.1132 -0.4716 -0.0448
25854W        W41748  15.373   6.209   0.824 -0.0280  0.0562 -0.0371
25855W        W41749   3.126   2.492  16.097 -0.1283  0.0692 -0.0107
25856W        W41750   5.041   8.230   2.039  0.2567  0.2587 -0.1443
25857W        W41751  15.145   8.483  14.500  0.0367  0.0185  0.1287
25858W        W41752   6.828   5.087  11.975 -0.1642 -0.0177  0.0160
25859W        W41753   8.502   0.385   1.219 -0.0058  0.0102 -0.2909
25860W        W41754   8.351   4.450  13.165  0.0039  0.2761  0.0579
25861W        W41755  11.573  13.737   1.038 -0.2990  0.0479 -0.0123
25862W        W41756  13.906   0.749  15.317 -0.1764  0.0040 -0.0767
25863W        W41757   4.564   8.715  13.588  0.0755 -0.2038 -0.1085
25864W        W41758   1.811   2.757   2.944  0.1177 -0.0361  0.1420
25865W        W41759   3.054   9.617  14.204 -0.0293  0.1572  0.0040
25866W        W41760  14.207  10.881   3.131 -0.0060  0.2759  0.1608
25867W        W41761  11.479  16.291  16.861  0.0251 -0.1422 -0.0615
25868W        W41762   9.475   6.826  15.363  0.0917  0.0485 -0.5020
25869W        W41763  17.264  15.486  16.740 -0.2547 -0.3273  0.0921
25870W        W41764   6.189  15.320  15.808 -0.0806  0.2116 -0.0171
25871W        W41765  14.701   7.372   3.344  0.0351  0.0845 -0.1808
25872W        W41766  10.363  17.515   3.334  0.1016  0.2066  0.1890
25873W        W41767   3.141   0.285  16.707 -0.1323  0.1174  0.1126
25874W        W41768  16.167  16.872  12.187  0.0493  0.0659 -0.0223
25875W        W41769  11.043  11.339  13.287 -0.0719 -0.2559 -0.0199
25876W        W41770   6.017   6.966   2.767  0.0420  0.1254  0.1922
25877W        W41771  14.521  12.003   2.338 -0.1069  0.1033 -0.0622
25878W        W41772  14.781  13.717   3.019 -0.1717  0.1708 -0.2245
25879W        W41773  10.321   3.670  11.994  0.0904  0.0235  0.0004
25880W        W41774   7.249   9.359  17.169  0.2189  0.2826 -0.2576
25881W        W41775  15.948   2.583   4.884 -0.1783  0.1552  0.1260
25882W        W41776  12.308   8.516  12.665 -0.2538 -0.0385 -0.1325
25883W        W41777   6.023  16.300   2.550  0.0628  0.1923  0.0377
25884W        W41778   2.522   1.904  12.370 -0.1140 -0.0008  0.1344
25885W        W41779   8.408   8.852  16.207  0.0171 -0.1093 -0.1436
25886W        W41780   7.238   0.640   5.332 -0.0869  0.0653  0.1573
25887W        W41781   3.248   6.715  15.846 -0.1960  0.1633  0.0626
25888W        W41782   5.022   2.617   2.607  0.0895  0.1268  0.2550
25889W        W41783   3.943  10.732   2.813  0.2142  0.3791  0.5031
25890W        W41784   6.384   4.955   1.222  0.0696 -0.0729  0.1177
25891W        W41785   7.515  16.543   6.455 -0.0424 -0.1164 -0.1319
25892W        W41786   2.380   6.943  16.384  0.2144 -0.3108 -0.1989
25893W        W41787  15.386   7.201   1.101 -0.0168  0.0136 -0.5002
25894W        W41788  16.777   6.346   0.133 -0.0119  0.0088  0.0373
25895W        W41789  17.586  11.348  13.232  0.0098 -0.3836 -0.3017
25896W        W41790   7.272  10.036  13.573 -0.0671 -0.1571  0.0905
25897W        W41791  12.887   1.860   1.875 -0.0952 -0.1375  0.1599
25898W        W41792  12.706  16.410   0.178  0.2732 -0.1758 -0.0124
25899W        W41793   7.678  14.954  15.653  0.1361 -0.0755 -0.0555
25900W        W41794  12.340  12.818   5.461  0.3159  0.1706  0.2245
25901W        W41795   9.598   6.983  14.462 -0.1544 -0.1613  0.3542
25902W        W41796  14.038  13.370  15.200  0.2036  0.1344  0.0432
25903W        W41797   9.390  17.316  16.572 -0.1838  0.3059  0.0609
25904W        W41798   6.949   2.119   1.584  0.0531 -0.2190 -0.2465
25905W        W41799  17.537   6.952   3.353 -0.0659 -0.2444  0.0473
25906W        W41800  12.972   9.734   4.942  0.1028 -0.2387  0.1505
25907W        W41801  15.917  15.377  14.103 -0.2978  0.0572  0.1223
25908W        W41802  10.191  14.322  14.842  0.0138 -0.1075 -0.0625
25909W        W41803  15.821   1.651   3.439  0.1333 -0.0296 -0.2973
25910W        W41804  16.798   8.436   4.987 -0.0635  0.0002  0.0728
25911W        W41805  13.629  10.651  15.049 -0.1335 -0.0160  0.0054
25912W        W41806  13.506   1.225   0.984  0.0870  0.2420 -0.2853
25913W        W41807  10.645  16.825   1.839 -0.2015  0.0283 -0.3492
25914W        W41808   9.157  15.744  12.693 -0.1632 -0.0270  0.3209
25915W        W41809  15.355  10.011   2.251 -0.0536  0.2920  0.1184
25916W        W41810   8.245  16.939   3.790  0.0976  0.0125  0.0520
25917W        W41811   4.377   5.567  17.181 -0.2868  0.2793  0.3214
25918W        W41812   6.637   6.487   3.836 -0.2830  0.0588  0.1333
25919W        W41813   3.869  10.627  14.935 -0.2419  0.1270  0.2971
25920W        W41814   0.551   7.300  16.074  0.0711 -0.3831 -0.0108
25921W        W41815  15.790  12.456  12.260 -0.1857  0.0689  0.1263
25922W        W41816   3.057   0.953   3.694 -0.1411 -0.2750 -0.1480
25923W        W41817   7.948   2.397   6.055  0.2689 -0.2914  0.0101
25924W        W41818   3.093   6.605   5.148 -0.0756 -0.2469 -0.0407
25925W        W41819  12.959  11.342  16.125  0.0774 -0.2033  0.1267
25926W        W41820  14.772   8.883   3.154  0.0630 -0.0369 -0.0808
25927W        W41821   6.777  16.238  12.402 -0.0803  0.1212  0.2474
25928W        W41822   1.137   1.474  11.826 -0.1700 -0.2490 -0.0909
25929W        W41823   2.168  10.973  13.497 -0.1356 -0.2313 -0.0497
25930W        W41824   9.386   0.231   1.282 -0.0458 -0.1147 -0.0322
25931W        W41825   3.272   6.580  13.638 -0.0742  0.0054  0.0953
25932W        W41826   0.064   0.875   2.724  0.2752 -0.0877  0.0251
25933W        W41827  15.773  15.403   0.345 -0.0443 -0.0022  0.1081
25934W        W41828   4.018   1.725   1.960 -0.4908 -0.1385 -0.0318
25935W        W41829  16.865  11.735  11.693 -0.1861 -0.2973 -0.1295
25936W        W41830   2.889   1.828   1.580  0.2782 -0.1877  0.1888
25937W        W41831   2.357   3.708  15.261  0.0339  0.0133  0.0748
25938W        W41832   4.756   0.861  16.139 -0.1556 -0.2607 -0.0109
25939W        W41833  16.282   0.387   5.289  0.0456  0.0783 -0.0508
25940W        W41834  10.588  11.680   1.697 -0.0746 -0.0618 -0.0186
25941W        W41835   6.008   8.815   4.221  0.2400  0.0330  0.0549
25942W        W41836   6.043   2.583   0.666  0.3749 -0.1714  0.0292
25943W        W41837  13.085   4.371   4.343  0.1679 -0.4129 -0.1180
25944W        W41838  10.835   5.620   3.151  0.2988 -0.1253 -0.1574
25945W        W41839  13.145  13.059   0.344  0.4040 -0.2171  0.1392
25946W        W41840   5.596  17.446   3.864  0.3149  0.0561 -0.1389
25947W        W41841  11.323  14.603   4.523 -0.3338 -0.1239  0.0251
25948W        W41842   6.937  11.601  16.608 -0.0876 -0.1657  0.1540
25949W        W41843   5.138  17.002   0.186 -0.0645 -0.1086  0.3579
25950W        W41844  10.070  13.106  14.689 -0.1979 -0.2986 -0.0018
25951W        W41845   2.188   4.245  15.949 -0.3658  0.0329  0.2198
25952W        W41846  15.361  17.033   3.968  0.1716 -0.0322  0.0039
25953W        W41847  13.187   5.967  14.735  0.3700 -0.0105 -0.1110
25954W        W41848   3.055  16.424  16.870  0.0581 -0.2176 -0.1331
25955W        W41849  16.443  14.893   3.611  0.0636  0.0160  0.0532
25956W        W41850   0.819  14.102   2.860  0.3181 -0.1363 -0.0894
25957W        W41851  17.339  15.049  16.463 -0.0365 -0.1971 -0.0216
25958W        W41852  13.441   7.135   0.013  0.1062 -0.0129  0.0426
25959W        W41853   5.611   6.171   1.731  0.1591  0.0173  0.0468
25960W        W41854  11.239   1.156   2.675  0.1676  0.0478 -0.2792
25961W        W41855  14.949   2.219   1.395 -0.1155 -0.0948  0.0931
25962W        W41856  16.977   2.494   4.554 -0.1009 -0.1706  0.0715
25963W        W41857  15.427  12.007   2.642  0.0733  0.3856  0.2286
25964W        W41858  17.051   2.295   1.273 -0.1566  0.0495  0.2165
25965W        W41859  15.864   2.578   6.196  0.3229 -0.0376 -0.0046
25966W        W41860  10.448   8.568   2.083 -0.1282 -0.1818  0.0547
25967W        W41861   1.263  15.306  13.204  0.1746  0.0140 -0.0628
25968W        W41862  10.402  13.302   2.005 -0.4002  0.0601 -0.2459
25969W        W41863  10.583  13.290   3.475  0.0108 -0.2176 -0.0295
25970W        W41864   6.027   7.102   6.047  0.1620  0.0983  0.0488
25971W        W41865  13.573   9.791   0.851 -0.4619  0.1142 -0.1006
25972W        W41866  17.470   3.271  13.805 -0.0125  0.1809 -0.0360
25973W        W41867   0.662   4.343   2.208 -0.3116  0.0270  0.0818
25974W        W41868  14.394   9.857   2.730  0.2266 -0.0406  0.0736
25975W        W41869  16.594   2.438  11.864  0.2318  0.2823 -0.2019
25976W        W41870   7.154  17.547  14.778  0.1456  0.2190  0.2294
25977W        W41871   8.336  14.237   0.983 -0.2897 -0.2710  0.0562
25978W        W41872   0.056   1.897  16.349 -0.1205  0.0397 -0.1002
25979W        W41873   3.972   1.942   2.925 -0.3714 -0.0984 -0.2288
25980W        W41874   3.931  13.189  11.734 -0.1059  0.1493  0.1859
25981W        W41875   8.881  16.222  15.076 -0.0044 -0.3245 -0.0917
25982W        W41876   2.046   3.224   4.378  0.0003  0.3303  0.3307
25983W        W41877  11.692  12.159  13.387 -0.2507 -0.0812 -0.3803
25984W        W41878   0.538   7.097   0.850  0.3371  0.0862  0.0197
25985W        W41879   6.948  14.736  13.060  0.1554  0.2643  0.1211
25986W        W41880  13.455  16.539  13.712 -0.0534  0.3527 -0.0238
25987W        W41881   7.296   8.433   2.484  0.1304 -0.1268  0.1989
25988W        W41882   1.873  16.913  13.448 -0.0850 -0.0420 -0.1428
25989W        W41883   4.198   4.800  15.929  0.0664  0.2806 -0.0392
25990W        W41884   1.378   7.581   1.961  0.4004 -0.0938  0.2798
25991W        W41885   2.300   2.141  13.686 -0.0633 -0.1017  0.0484
25992W        W41886   4.498   0.291  12.384  0.1401 -0.1730  0.0446
25993W        W41887   6.010  13.614  12.716  0.0145 -0.0778  0.1792
25994W        W41888  16.297   1.800  15.980  0.0146 -0.0811 -0.2570
25995W        W41889  12.656   1.272   0.447 -0.0092 -0.1259 -0.1168
25996W        W41890   2.817   3.742   2.245 -0.3074 -0.0620  0.1882
25997W        W41891   6.835   4.249   0.837  0.0811  0.1495 -0.0743
25998W        W41892   0.836  10.309  15.188  0.0264  0.0176  0.0560
25999W        W41893  13.242   1.716  16.395 -0.3018  0.2457 -0.0241
26000W        W41894   5.213  17.501   4.186  0.0691 -0.0067 -0.2442
26001W        W41895  16.940   4.758  12.483 -0.0773 -0.0930 -0.0933
26002W        W41896  10.830   8.801  13.965 -0.0085  0.0208 -0.1552
26003W        W41897   1.536   1.088  13.306  0.2750  0.0976  0.3969
26004W        W41898   8.585   4.808  14.414 -0.2759  0.0433  0.1788
26005W        W41899   3.692  16.104  15.710  0.0395 -0.3597 -0.0245
26006W        W41900  16.039  16.655   3.561 -0.1597  0.0929 -0.1992
26007W        W41901   3.025   6.064  14.065  0.1453  0.0628  0.0115
26008W        W41902   9.968   9.089  13.610  0.0021 -0.0457  0.1018
26009W        W41903  14.370   3.856   0.121  0.4647  0.3940  0.2407
26010W        W41904   1.289   5.338  15.525  0.1527  0.0431  0.0970
26011W        W41905   0.258   5.597  15.506 -0.1483 -0.1696 -0.0124
26012W        W41906   3.432  11.121  12.308  0.1479  0.3182  0.0235
26013W        W41907   2.138   4.886   1.133  0.1461  0.0961  0.2312
26014W        W41908  11.832   5.128   5.102  0.2892 -0.2869 -0.0754
26015W        W41909  12.335  15.800   1.236 -0.1967 -0.1887 -0.1393
26016W        W41910   3.808   0.421  15.354  0.2746 -0.1438  0.1736
26017W        W41911  12.709   7.584  14.626  0.2314 -0.2683  0.1264
26018W        W41912  16.217  10.596   3.909  0.1803  0.3137  0.2599
26019W        W41913  11.774  16.634  16.578  0.0455  0.3184 -0.0197
26020W        W41914  17.562  14.496  14.473 -0.0590  0.2624  0.0291
26021W        W41915   4.504   5.952   3.826 -0.0540  0.1169 -0.1088
26022W        W41916  13.377   0.529   2.544 -0.3289 -0.1726  0.0961
26023W        W41917   8.075  12.963   3.411  0.1136 -0.1432 -0.3284
26024W        W41918   7.975  10.864   5.730 -0.1501 -0.1560 -0.3252
26025W        W41919   1.178  13.891   4.263  0.2000  0.0536  0.2538
26026W        W41920   5.952   6.585   1.551  0.2113  0.3323 -0.0836
26027W        W41921  11.909   0.320  17.253 -0.0651 -0.1073 -0.1076
26028W        W41922   9.968  15.642  15.689  0.0089 -0.0641  0.0185
26029W        W41923   4.653   2.473  15.241  0.1824  0.0712  0.1420
26030W        W41924   9.421  10.033   0.903 -0.2893 -0.0433 -0.0594
26031W        W41925   7.494   3.884  11.893 -0.2950  0.1261  0.1329
26032W        W41926   2.267  17.241  16.062  0.0990  0.0683 -0.3411
26033W        W41927   6.037   4.495  14.595  0.0588  0.0632  0.0332
26034W        W41928  15.607   0.408  14.388 -0.0925 -0.1171 -0.1053
26035W        W41929  16.533  10.450   6.576 -0.1347 -0.1114 -0.1817
26036W        W41930   6.323  11.688   5.409 -0.0410  0.2036 -0.1689
26037W        W41931  10.152   8.274   4.343 -0.1227 -0.1083  0.1792
26038W        W41932   8.547   7.925   3.499 -0.0326 -0.1344  0.0046
26039W        W41933   7.222   5.225   6.059  0.1520  0.2581 -0.3403
26040W        W41934   3.747   0.289   2.411 -0.1204 -0.0755  0.1716
26041W        W41935   6.252   2.740  13.245  0.1842  0.1876  0.1875
26042W        W41936  15.467   4.430   5.573  0.2463  0.0278 -0.1819
26043W        W41937  16.446  14.803  11.158  0.1699  0.0371  0.0919
26044W        W41938  13.304  16.232  15.570  0.0244 -0.2642 -0.0351
26045W        W41939   7.702   8.120   3.163  0.0414  0.0417 -0.3143
26046W        W41940   3.510  16.397  13.786  0.0021 -0.1676  0.1671
26047W        W41941   8.699   2.841   3.672 -0.0459  0.1883  0.0887
26048W        W41942  11.362  12.098   1.705 -0.3213  0.0004  0.0367
26049W        W41943   4.878   0.794   4.917 -0.2795 -0.3040  0.1899
26050W        W41944  12.602  17.517  16.527 -0.1353  0.2543 -0.1110
26051W        W41945  10.021  15.891   0.825  0.0920 -0.0973  0.1034
26052W        W41946   0.773  13.187  14.545  0.3926  0.3850  0.0183
26053W        W41947   3.135   3.403  14.709 -0.0004  0.1518  0.1731
26054W        W41948  13.921  16.399  12.597  0.0786 -0.1996  0.2332
26055W        W41949   6.657  16.739  14.963 -0.1579  0.0572  0.1609
26056W        W41950   1.655   1.416  15.185  0.2396 -0.1936 -0.1066
26057W        W41951  12.861  12.966  11.814  0.0170  0.1656 -0.3922
26058W        W41952   3.124   2.503  12.301 -0.3186  0.0209 -0.1600
26059W        W41953   8.338   7.860   2.505 -0.0587 -0.1013 -0.1050
26060W        W41954  12.027  12.487   2.868  0.0736 -0.0928  0.0613
26061W        W41955   7.076   0.403  14.856 -0.1009  0.1505  0.2820
26062W        W41956  13.475  14.961  14.891  0.1454 -0.2445 -0.0626
26063W        W41957   2.358   3.776   5.987  0.0955 -0.1089 -0.3480
26064W        W41958   1.865   8.759  15.757 -0.0602 -0.3184  0.1763
26065W        W41959   2.131  11.189   0.295  0.3167  0.1426 -0.0004
26066W        W41960   1.935   5.525   3.566 -0.0056  0.0374 -0.2064
26067W        W41961  16.161   5.309   4.345  0.1286  0.3824  0.1166
26068W        W41962   1.369   7.309   0.829 -0.0397  0.0592  0.0687
26069W        W41963  17.238  14.317  16.335 -0.0992  0.2653  0.1781
26070W        W41964  14.130  17.588  12.771 -0.1776  0.2636 -0.3165
26071W        W41965   5.148   9.180  14.437 -0.3201 -0.0893 -0.1054
26072W        W41966  12.760   9.305   4.700 -0.2736  0.1597  0.3299
26073W        W41967   5.880   1.961   2.407  0.2491 -0.0723  0.0458
26074W        W41968   6.993   8.667  11.761  0.2166 -0.0933  0.0098
26075W        W41969  15.062  14.001  17.181  0.0002 -0.1555  0.3517
26076W        W41970   9.828   3.813   4.696  0.2440  0.3538 -0.0322
26077W        W41971   4.988   6.132  15.553 -0.0194  0.2691  0.1780
26078W        W41972   3.323   7.200  13.576 -0.2807  0.0694  0.2007
26079W        W41973   2.762   3.372   5.989 -0.0664 -0.0151 -0.0685
26080W        W41974   3.637   0.199  15.983  0.0044  0.0062 -0.1670
26081W        W41975   6.581  16.707   1.186 -0.0853 -0.0021 -0.0368
26082W        W41976   5.468   6.705   1.532  0.0006 -0.0473  0.0915
26083W        W41977  15.392   9.520  12.907  0.1560 -0.2566  0.1706
26084W        W41978   3.463  10.712   3.711 -0.2118  0.0317  0.0152
26085W        W41979   0.133   1.864   0.698  0.1041  0.0242  0.1283
26086W        W41980  16.882  10.815  13.727  0.0212  0.0552  0.2488
26087W        W41981  13.320   7.797   1.066  0.0975 -0.1773 -0.1214
26088W        W41982   4.940  13.356  13.961  0.1481  0.0948 -0.0176
26089W        W41983  14.320  14.188  12.009 -0.4007 -0.4055 -0.3959
26090W        W41984   4.884   6.352  17.103  0.4015 -0.1772  0.2876
26091W        W41985  10.179   8.458  12.419 -0.1062 -0.0545  0.2550
26092W        W41986  16.883   4.740   6.661  0.4335  0.1906  0.1167
26093W        W41987   7.922   2.052  15.913 -0.1573  0.2035  0.1511
26094W        W41988  12.419  13.426   4.662 -0.1134  0.0945  0.0953
26095W        W41989  11.648   6.904   2.144  0.2702  0.0713 -0.0538
26096W        W41990   1.883  17.337   2.450 -0.0560  0.0852 -0.1352
26097W        W41991   6.018  17.021   4.597 -0.0458  0.1309  0.0083
26098W        W41992  14.315  10.560   6.583 -0.0679 -0.3110 -0.0042
26099W        W41993   0.046  12.061   1.015 -0.0632  0.2132 -0.0597
26100W        W41994  16.229   5.890   2.332 -0.0940  0.0278 -0.2003
26101W        W41995  10.948   7.867   5.293 -0.2948 -0.2781 -0.1118
26102W        W41996   4.560   1.412  12.169 -0.0787  0.2038 -0.4317
26103W        W41997  14.672  15.648  15.354  0.1718  0.2523  0.3525
26104W        W41998   9.444   2.535   5.854  0.1584  0.0897 -0.1277
26105W        W41999   6.820   1.595   4.708  0.0415  0.2425  0.0412
26106W        W42000   7.892   9.520   2.865 -0.0256 -0.0970 -0.2003
26107W        W42001  15.514   9.847   3.746 -0.1496 -0.2268  0.1828
26108W        W42002   3.072  15.457   4.246  0.2891 -0.1280  0.0104
26109W        W42003   2.491  12.315  12.192  0.1284  0.2296 -0.0845
26110W        W42004   0.151   3.889   3.871  0.2484 -0.3921 -0.0232
26111W        W42005   8.939  15.791  13.496  0.0249 -0.1918  0.0298
26112W        W42006   7.997  15.470   5.950  0.0447 -0.1272  0.0426
26113W        W42007   5.435   2.513  13.912 -0.0814  0.1616  0.1547
26114W        W42008   8.804  12.860   0.584 -0.0396  0.3002  0.1067
26115W        W42009   2.639  11.880   6.198 -0.2668 -0.0225  0.2045
26116W        W42010  13.195  10.328  15.207  0.2258  0.1070  0.2979
26117W        W42011   9.222  16.634   5.163 -0.0403  0.0491  0.0695
26118W        W42012   1.071  11.958  13.509 -0.2655 -0.1648  0.1627
26119W        W42013  11.296  10.961   1.456 -0.0778  0.1083  0.0129
26120W        W42014  14.554   5.947  11.907  0.1052 -0.0248  0.0026
26121W        W42015  14.259   9.485   4.623  0.2185 -0.1157  0.0224
26122W        W42016  12.522  14.314  16.500  0.0628 -0.0140 -0.0955
26123W        W42017   0.636   8.897  13.458 -0.2206  0.2030  0.0412
26124W        W42018   7.792   6.062  14.085 -0.2798 -0.0969  0.0723
26125W        W42019   8.914  15.879   2.827 -0.1009 -0.0560  0.0098
26126W        W42020   6.827   9.040  14.747 -0.1457  0.0218 -0.1597
26127W        W42021   7.597  16.486  14.506  0.0526 -0.3306 -0.2160
26128W        W42022   4.092   3.454  16.448  0.2383  0.0479 -0.1158
26129W        W42023   8.982  12.619   4.967 -0.0381  0.0825 -0.1407
26130W        W42024  16.374  10.988   1.375  0.0204  0.0237 -0.0181
26131W        W42025   5.639   8.063   0.369 -0.3336  0.4645  0.2721
26132W        W42026  10.843   9.086   5.068 -0.0236  0.2320  0.0189
26133W        W42027   8.511  10.662   2.303  0.1011 -0.1633 -0.0662
26134W        W42028  15.109   5.229  12.880  0.3114  0.2343  0.3111
26135W        W42029  17.210  13.201   0.928  0.2922  0.0071 -0.0249
26136W        W42030   3.316   8.801   1.444 -0.0920  0.1502  0.0334
26137W        W42031   7.496  14.046   0.901 -0.0431 -0.0095 -0.4276
26138W        W42032   8.826   6.874  12.258 -0.0966  0.1789 -0.2702
26139W        W42033   0.547   7.516  15.081  0.0102  0.1313  0.0362
26140W        W42034   7.177  17.492   1.740 -0.0002  0.2686  0.1421
26141W        W42035  10.227   4.079  13.779  0.1046 -0.0691  0.1942
26142W        W42036   1.170  10.041  14.647 -0.2271  0.0431 -0.1174
26143W        W42037   7.007   2.950  15.129 -0.1783 -0.0804  0.0535
26144W        W42038   1.863   2.967  11.807  0.0201 -0.2977 -0.2917
26145W        W42039   0.357  17.409   1.355  0.1032 -0.3287  0.4087
26146W        W42040   2.758  17.221  16.299 -0.1104  0.0743  0.0743
26147W        W42041  13.402   6.285  16.791  0.0508 -0.0195 -0.2285
26148W        W42042   1.105   4.018  14.786  0.0469 -0.1455 -0.0740
26149W        W42043  14.425  16.576   1.376  0.0447 -0.0805 -0.0897
26150W        W42044  15.945  15.249  15.919 -0.5281 -0.2048  0.0862
26151W        W42045   2.900   8.527  13.132  0.1039  0.1818 -0.3740
26152W        W42046   9.100   0.681  12.915  0.1024  0.2754  0.1566
26153W        W42047  13.738  17.589  15.537 -0.0122  0.2275 -0.0844
26154W        W42048   9.664   1.208  15.274 -0.0288  0.1101  0.0696
26155W        W42049  11.954  13.045   3.134  0.1021  0.1412  0.0933
26156W        W42050  13.480   5.285  13.576  0.1076  0.0354  0.0940
26157W        W42051  12.646   5.401   0.957 -0.4459 -0.1693  0.1140
26158W        W42052  17.636   4.251  15.801 -0.1383  0.0271 -0.1023
26159W        W42053  14.227  17.240   2.639 -0.0107 -0.0899  0.0414
26160W        W42054  12.288   2.181   0.247  0.1165 -0.0078  0.0585
26161W        W42055   5.145  11.631  14.332  0.0326 -0.2522 -0.1057
26162W        W42056   0.296  11.826  13.190  0.2511  0.1712 -0.3749
26163W        W42057   5.595   0.472   0.277 -0.1107  0.0554 -0.0993
26164W        W42058   8.199  15.133   2.009 -0.1708  0.0754 -0.0898
26165W        W42059  11.340  16.999  11.806 -0.2690  0.0922 -0.0976
26166W        W42060   7.612  16.098  14.197  0.0638  0.3025 -0.2805
26167W        W42061  14.498  17.536   3.592  0.1432  0.2053  0.0895
26168W        W42062   5.906  10.725  14.158  0.0387  0.2929 -0.1649
26169W        W42063   5.294   1.729   3.932  0.1719  0.1014  0.0804
26170W        W42064  17.192   7.567  12.049  0.1841  0.3588  0.1265
26171W        W42065  14.619   3.215  16.665  0.0187  0.0761 -0.1218
26172W        W42066  11.490   8.731   0.772 -0.0533  0.1939  0.0587
26173W        W42067  15.087   8.158   5.528  0.2174  0.1185  0.1824
26174W        W42068   8.891   1.085  13.759 -0.1061 -0.2291 -0.1109
26175W        W42069  15.086   7.921  13.119  0.3684  0.1137 -0.0314
26176W        W42070  12.977  15.466  17.034 -0.0869  0.1381 -0.0241
26177W        W42071  11.417   1.989   2.996 -0.0643  0.1023 -0.1410
26178W        W42072  16.651  10.502  14.567  0.1164 -0.5218 -0.1456
26179W        W42073   2.533  11.500  16.903  0.1292 -0.2309  0.3523
26180W        W42074  14.485   2.113   6.119  0.2915  0.1175 -0.1318
26181W        W42075   5.394   3.489   1.345 -0.2002  0.1083  0.0676
26182W        W42076  15.410   7.284  15.804  0.0418  0.1602  0.1040
26183W        W42077   9.125   5.359   1.095 -0.3047 -0.0118 -0.1618
26184W        W42078  13.876  13.216   3.698  0.4102  0.0022 -0.0095
26185W        W42079  16.362   0.907   0.299  0.1725  0.0450 -0.0225
26186W        W42080  15.100  13.700  13.573  0.0202  0.1773 -0.3011
26187W        W42081  10.288  10.896  11.544 -0.1863 -0.0603 -0.3619
26188W        W42082  17.331   9.906  14.622 -0.1154  0.3314  0.0675
26189W        W42083   0.647   8.034   5.945 -0.1859  0.1157 -0.0789
26190W        W42084   3.875   4.432  15.726 -0.3514 -0.3713  0.0154
26191W        W42085   1.548   4.077  14.547  0.0877  0.1235 -0.1333
26192W        W42086   6.377  15.932  12.626 -0.2492 -0.1858  0.1592
26193W        W42087   2.902   2.455   2.188 -0.3947  0.0869  0.4140
26194W        W42088   8.796   3.451   5.441 -0.0042 -0.0099 -0.0665
26195W        W42089   4.354   6.220  15.424 -0.2373  0.2442  0.4469
26196W        W42090   9.756  13.378   2.310 -0.0121 -0.1266  0.0437
26197W        W42091   9.635   6.152  14.922  0.4372  0.3471 -0.0770
26198W        W42092   0.101  11.243   0.809 -0.1310  0.0861  0.0046
26199W        W42093  16.546  10.243  17.226  0.0678 -0.0956  0.2536
26200W        W42094  10.337  12.759   5.511 -0.1703 -0.0958 -0.3463
26201W        W42095   1.656   2.179  14.598  0.1931 -0.0541 -0.0871
26202W        W42096   8.788   2.319  14.185 -0.0776  0.2891 -0.1942
26203W        W42097  10.244  14.016   0.850  0.0833  0.2041 -0.3042
26204W        W42098  13.638   3.778  12.926 -0.0225  0.0780  0.1316
26205W        W42099  15.227   2.806   4.470  0.1102  0.0055  0.2001
26206W        W42100  15.549  11.110   0.642 -0.1646 -0.0417  0.0476
26207W        W42101   5.370  15.139  15.248  0.0838 -0.0058  0.4673
26208W        W42102  11.478   3.190  17.156  0.3247 -0.0478 -0.2072
26209W        W42103  16.397   9.548  13.899 -0.3222 -0.0430  0.1220
26210W        W42104   0.782  15.132   2.546 -0.1730 -0.0457  0.0833
26211W        W42105  13.911  11.117  15.259  0.2083 -0.1342 -0.1750
26212W        W42106   8.139   1.113  14.381 -0.1245 -0.2713 -0.2239
26213W        W42107  13.242   7.437   2.818  0.1155  0.2547  0.2158
26214W        W42108   4.314  13.404  15.247  0.1779  0.2392 -0.1385
26215W        W42109   9.224   9.197   4.775 -0.0081  0.1486 -0.0019
26216W        W42110   7.818   5.046  13.093  0.0538 -0.0510 -0.3010
26217W        W42111  10.232   2.099  15.891  0.5710 -0.0333 -0.0880
26218W        W42112  11.880  11.067   4.811 -0.0201  0.1892 -0.1337
26219W        W42113   8.847   0.329  12.307  0.0492  0.2815  0.0557
26220W        W42114  12.319  15.393  13.486 -0.1200  0.0641  0.0482
26221W        W42115  10.201  17.151   1.977 -0.1077 -0.1594  0.0040
26222W        W42116   9.446  11.225   3.156  0.0602 -0.1721  0.2929
26223W        W42117   6.467  15.942   5.429  0.3925  0.3628 -0.0846
26224W        W42118   5.080  11.244  16.853 -0.0668  0.0418  0.1564
26225W        W42119  16.750   9.892   3.352 -0.0713  0.0102  0.0458
26226W        W42120   0.571  15.215   0.292  0.0810  0.0176 -0.0524
26227W        W42121  16.342   9.190   2.481 -0.2088  0.3450  0.3484
26228W        W42122  10.091  14.741   3.468  0.2406 -0.0525  0.2781
26229W        W42123   3.778   1.306   4.266 -0.2095  0.1631 -0.1082
26230W        W42124   9.474  11.862  14.315 -0.1654 -0.3449  0.1501
26231W        W42125  16.677   0.056   2.607  0.2929  0.0205 -0.0822
26232W        W42126   6.100   6.650  15.616 -0.1327 -0.1194 -0.0262
26233W        W42127   3.088   6.070   0.508  0.1314 -0.1656  0.1181
26234W        W42128   0.525  17.008  13.172 -0.3655 -0.3638 -0.0128
26235W        W42129   4.502   9.081  14.027  0.2117 -0.1035  0.0831
26236W        W42130  16.474  12.648   4.462 -0.1276 -0.0421  0.2459
26237W        W42131   3.280  11.896   2.644  0.1707  0.2398  0.1558
26238W        W42132  10.388   3.858  15.142 -0.1994 -0.1818  0.1200
26239W        W42133  11.040  10.889   3.112  0.4091  0.2412 -0.1300
26240W        W42134   3.703  10.389  14.547  0.0784  0.0077 -0.0965
26241W        W42135  15.661   4.704   2.477  0.0822 -0.0105 -0.1528
26242W        W42136   0.829   8.204  15.108  0.1288  0.4378 -0.2557
26243W        W42137  12.901   0.148  16.913  0.0215 -0.2615 -0.1575
26244W        W42138   3.910  13.031  15.319 -0.1074  0.2469  0.0202
26245W        W42139   8.110  14.798  11.732  0.0296 -0.2023  0.1053
26246W        W42140  15.436  12.801   0.721  0.0166  0.5091  0.2755
26247W        W42141   0.861   6.330  15.377 -0.2117 -0.0318  0.2229
26248W        W42142  11.122   2.658  16.041 -0.0315 -0.2194  0.4543
26249W        W42143   7.648  12.800  14.527 -0.0026  0.2626  0.1983
26250W        W42144   2.100  10.984  16.394 -0.0431  0.0385  0.2351
26251W        W42145   0.770  14.220   1.404 -0.1839  0.1639 -0.1554
26252W        W42146  10.469   7.413  13.743  0.0197  0.0530  0.0828
26253W        W42147   0.038  11.791   2.767 -0.2139 -0.0853 -0.1800
26254W        W42148  12.840   3.853   1.652 -0.2399  0.1078 -0.1498
26255W        W42149  10.759  14.050  13.518  0.0979 -0.0262  0.1457
26256W        W42150  17.260   1.687  13.876  0.0298  0.2587  0.1669
26257W        W42151   0.586   1.349   1.354 -0.1384  0.0772  0.0114
26258W        W42152   4.787  15.121   2.032 -0.1077  0.1392  0.1056
26259W        W42153  13.232  11.025  17.072 -0.0903  0.0272  0.0254
26260W        W42154  16.024  10.132  16.327  0.0059 -0.2315  0.1729
26261W        W42155  16.339  13.882   5.417  0.0972 -0.0256 -0.0355
26262W        W42156  15.355   8.090   0.695 -0.0725 -0.1079 -0.0416
26263W        W42157  10.679  12.132   2.969  0.0590  0.2986 -0.2499
26264W        W42158  17.472  16.626   3.530 -0.0831 -0.1160 -0.1363
26265W        W42159  13.031  16.285  12.375  0.0072  0.1289  0.1396
26266W        W42160   5.750  14.475   5.389  0.1017  0.0954  0.0695
26267W        W42161  17.319   2.502   1.756  0.0865  0.0260 -0.2265
26268W        W42162  12.106  15.543   2.196 -0.0563 -0.0784  0.0077
26269W        W42163   1.085   1.708   0.060  0.2088 -0.0766 -0.0660
26270W        W42164   7.463   6.532  15.156  0.0128 -0.5517 -0.0421
26271W        W42165  12.953   7.528   1.960  0.0090  0.1278  0.1066
26272W        W42166  16.616  13.494  12.809 -0.1071  0.0286 -0.1460
26273W        W42167  11.921   5.274   2.026  0.0424 -0.1557  0.1340
26274W        W42168  11.483   3.928  16.826  0.4392  0.1152 -0.3948
26275W        W42169  16.692  14.707  15.971  0.1261 -0.3158 -0.1503
26276W        W42170   6.613  10.152   2.272 -0.0498  0.1806 -0.2337
26277W        W42171   3.151  12.771   0.949 -0.1852  0.1841  0.0711
26278W        W42172   6.228   1.158  10.994 -0.4096 -0.0011 -0.0022
26279W        W42173  15.787   8.901   4.579  0.0941  0.0528 -0.2796
26280W        W42174  12.988   6.203   4.125  0.0437 -0.1158  0.0648
26281W        W42175  12.007  12.224   0.066  0.0121 -0.0361  0.0450
26282W        W42176  16.501   6.363  12.653 -0.1303 -0.0440  0.1289
26283W        W42177  12.822   1.358   2.694  0.1009  0.2420  0.1583
26284W        W42178   7.715   6.944  16.215  0.0032 -0.0686  0.2443
26285W        W42179   4.595  10.825  13.073 -0.1757 -0.1989  0.0800
26286W        W42180   3.872   2.756   3.049 -0.0470  0.2174  0.0101
26287W        W42181  13.904  10.328   6.304 -0.1231  0.0162 -0.2881
26288W        W42182  11.898   5.082   1.541 -0.1680  0.1031  0.0354
26289W        W42183   2.958   9.837   3.697  0.0533 -0.1470  0.1408
26290W        W42184  10.410   1.959  12.776 -0.1540 -0.0422 -0.1996
26291W        W42185   4.917  16.729  13.147  0.0220 -0.2017  0.0289
26292W        W42186  17.436  16.906   5.784  0.0974 -0.0206 -0.0993
26293W        W42187   6.973   4.739   2.896 -0.2814  0.0317 -0.0251
26294W        W42188  10.021  12.811  13.232 -0.2644 -0.1287  0.1009
26295W        W42189   1.084   6.413  17.039 -0.2104 -0.2361 -0.0716
26296W        W42190   2.060   0.887   1.209  0.1444  0.2663 -0.0816
26297W        W42191   2.779  12.752  16.434  0.0820 -0.0555 -0.1084
26298W        W42192  11.563   0.165   6.397  0.1045 -0.0913 -0.1302
26299W        W42193   9.895   3.434  12.309 -0.0703 -0.0357  0.1284
26300W        W42194  14.754   1.388  13.221 -0.1320 -0.1840  0.0673
26301W        W42195   8.937  13.172   3.812 -0.0798  0.3039  0.0505
26302W        W42196   4.877   3.111   5.002 -0.0732  0.3838  0.2665
26303W        W42197  12.378  10.775   1.316  0.2826  0.1120 -0.0006
26304W        W42198   6.454   2.333  14.045  0.2230 -0.1345  0.1420
26305W        W42199  10.847   8.419  16.502  0.0878  0.0218 -0.0162
26306W        W42200  12.128   2.636  12.837  0.0643  0.2496  0.0851
26307W        W42201  17.419   5.444   3.120  0.2974  0.1673  0.0981
26308W        W42202  13.841   1.498  12.843  0.3271  0.1898  0.1315
26309W        W42203   1.350  17.461   3.876  0.1591 -0.2150  0.0806
26310W        W42204  10.793  13.429   1.709  0.0512 -0.0229 -0.2785
26311W        W42205  10.983   0.989  14.703 -0.0891  0.1362 -0.0778
26312W        W42206   6.528   2.305   1.792 -0.0189  0.1834 -0.1823
26313W        W42207  10.944  13.344   0.654 -0.1162 -0.4302  0.1308
26314W        W42208  11.705  13.334   1.777  0.1820  0.1637 -0.0288
26315W        W42209  12.327  15.597   1.739 -0.0233  0.4392 -0.1407
26316W        W42210   0.950  13.448  13.241 -0.2351  0.1586 -0.1972
26317W        W42211   5.390   0.051  14.145  0.0938 -0.0904  0.1854
26318W        W42212  10.362   7.077   0.878 -0.2960 -0.1272 -0.2440
26319W        W42213   8.117  10.140   1.241 -0.1082  0.1340 -0.0081
26320W        W42214  11.998   3.871   4.939 -0.1156  0.3970  0.0570
26321W        W42215   0.868  11.757   5.319  0.0519 -0.1007  0.0260
26322W        W42216  16.756   4.378  16.368  0.3278  0.1275  0.1734
26323W        W42217  15.089   3.094  16.327  0.1843 -0.0143  0.1460
26324W        W42218   9.732  13.050  12.170 -0.1925 -0.0188  0.1322
26325W        W42219   4.884  12.413   5.011  0.3766 -0.0378  0.4031
26326W        W42220   4.601  10.804   0.673  0.0051 -0.4155  0.0257
26327W        W42221  13.805  15.768  13.808  0.1092 -0.1697  0.2053
26328W        W42222   1.883   8.029   0.525  0.3889 -0.0994  0.2922
26329W        W42223  13.854   7.501   1.638 -0.0961 -0.3545 -0.4034
26330W        W42224  15.767   4.587  16.680 -0.0401  0.1843  0.1303
26331W        W42225  10.791  15.135  14.754 -0.2427 -0.0245 -0.2371
26332W        W42226   6.140  12.192  14.797 -0.1390 -0.1982 -0.1624
26333W        W42227  11.366   5.850   4.979  0.2217 -0.2372  0.0550
26334W        W42228   4.302   5.397   3.521 -0.0818  0.1377 -0.1885
26335W        W42229   4.055  15.514   0.565  0.0828 -0.0231 -0.1632
26336W        W42230  16.578   3.248   0.480 -0.0514  0.1856 -0.1268
26337W        W42231   5.103   6.790   2.875 -0.2654  0.1589  0.1806
26338W        W42232   4.459  15.693   4.970 -0.0658  0.0565  0.2872
26339W        W42233  16.291   9.070  13.890 -0.0450 -0.0347 -0.0296
26340W        W42234  16.702  13.158  15.746 -0.0842  0.0548  0.0903
26341W        W42235  14.632  12.491   2.484  0.0199  0.1065 -0.0468
26342W        W42236  14.776  16.551  12.645 -0.0513 -0.0463  0.0204
26343W        W42237   1.826  14.748  12.083 -0.0921 -0.0785  0.4031
26344W        W42238  15.607   6.888   2.105  0.0938  0.0179 -0.0502
26345W        W42239   8.871   2.848  17.267  0.1595 -0.0313 -0.0901
26346W        W42240   6.080   8.933   3.737  0.0979 -0.3196 -0.0873
26347W        W42241  14.308   6.487  11.840 -0.1920 -0.0031  0.0219
26348W        W42242   7.779  14.221  15.772  0.2710 -0.1257  0.0592
26349W        W42243  15.531   2.450  12.801  0.0441  0.1920  0.1199
26350W        W42244   2.924  15.136  15.308  0.0509  0.0434 -0.1778
26351W        W42245  11.049  11.550  11.141 -0.1409  0.1017 -0.1418
26352W        W42246  13.219   9.042  13.584  0.1666  0.0960  0.6278
26353W        W42247  11.064   6.543  14.564 -0.1183  0.2768 -0.1788
26354W        W42248   6.160   3.455  15.863 -0.2741  0.0533  0.0154
26355W        W42249   2.255  14.384   6.081 -0.0061 -0.2616 -0.1224
26356W        W42250   2.609   2.707   5.381 -0.0935  0.1130  0.0161
26357W        W42251   9.109   9.782  11.392 -0.0325 -0.0813  0.0451
26358W        W42252   3.930  10.757   5.424 -0.2181 -0.0985  0.2173
26359W        W42253   2.864  13.306  16.148  0.5795  0.1280 -0.0697
26360W        W42254  13.649   4.861  16.215 -0.0508 -0.0040  0.1335
26361W        W42255   5.735  11.064   6.187  0.1543 -0.2356 -0.1042
26362W        W42256  10.834  14.375   2.430  0.1826 -0.3598 -0.2060
26363W        W42257  10.309   1.635   0.335 -0.2894 -0.0240  0.2039
26364W        W42258   0.261  17.333  15.083 -0.0666 -0.1158  0.0849
26365W        W42259  13.981   5.669  12.573 -0.1430 -0.3034  0.3015
26366W        W42260   8.264   0.936  16.305  0.0134 -0.1351  0.1299
26367W        W42261  14.836  12.169   4.545 -0.0068  0.0996  0.0081
26368W        W42262   2.755   0.919   3.193 -0.2178 -0.0437 -0.1730
26369W        W42263   5.853  11.787   2.149 -0.0053  0.1512  0.2852
26370W        W42264   4.644   1.684   1.189 -0.3091  0.0833  0.0987
26371W        W42265  10.338  11.600  15.526 -0.2158 -0.0026  0.1494
26372W        W42266  17.089   6.058  11.188 -0.2615  0.4002  0.3716
26373W        W42267  15.036  12.978  12.067 -0.1386  0.1582 -0.1609
26374W        W42268  11.727  17.577  14.874 -0.3533  0.1904 -0.3141
26375W        W42269  11.577  11.158  17.098  0.0481 -0.1849  0.2042
26376W        W42270  16.336   6.194  17.154 -0.1213  0.0815 -0.0713
26377W        W42271  10.439   0.854   3.121 -0.0135  0.0442  0.4885
26378W        W42272  11.824   0.362  12.633  0.0059  0.3918  0.1237
26379W        W42273   7.962   0.719   3.486 -0.0958  0.3524  0.0176
26380W        W42274   0.323  16.667  11.397  0.1053  0.3470  0.3331
26381W        W42275  12.870   0.295   5.493  0.0862  0.1607  0.0380
26382W        W42276  14.020   9.807  12.926 -0.1564  0.2732 -0.0011
26383W        W42277   0.605  14.932  16.675 -0.0991  0.1256  0.0100
26384W        W42278  17.009   2.247   5.483 -0.0991  0.1305 -0.2327
26385W        W42279  14.274  14.329   5.344  0.1637 -0.0711 -0.0097
26386W        W42280  11.988   2.677  13.935 -0.1723 -0.0220  0.0408
26387W        W42281  16.176  12.151   0.861 -0.0409  0.2156 -0.1815
26388W        W42282  13.017   7.094  13.490  0.2933 -0.1352 -0.1446
26389W        W42283   6.113  10.868   1.774 -0.0001 -0.1149 -0.0962
26390W        W42284   1.665   6.549   4.078 -0.2447 -0.1210  0.3154
26391W        W42285  12.555   6.378  11.739 -0.2345 -0.1276 -0.1786
26392W        W42286  11.592   3.042   0.855 -0.4599 -0.0486 -0.1328
26393W        W42287   7.505   9.205   5.513 -0.3312  0.2113  0.0211
26394W        W42288   5.172   6.136   0.938 -0.2802  0.0796  0.1495
26395W        W42289   3.638   3.519  14.540 -0.0877 -0.0522 -0.5052
26396W        W42290  16.982  11.196  13.139 -0.1931 -0.0004 -0.1394
26397W        W42291   8.821  16.953  16.137 -0.1935 -0.0970 -0.1188
26398W        W42292  17.050  15.116   6.474 -0.2153  0.2423 -0.0274
26399W        W42293   2.782  10.624  17.048 -0.1343 -0.4172  0.0674
26400W        W42294   4.248  15.381  15.766 -0.1907  0.0164  0.1517
26401W        W42295   0.100  13.327   6.368  0.1977  0.1170 -0.3211
26402W        W42296  12.286  15.614  12.912 -0.2639  0.1039 -0.0095
26403W        W42297   9.603  11.392   2.168  0.1499 -0.0241  0.1969
26404W        W42298   4.133  13.520  12.210 -0.3236 -0.1523  0.1595
26405W        W42299  12.549   5.658  15.795  0.0019 -0.2660 -0.0018
26406W        W42300   9.290   9.645   1.158 -0.1579  0.2101  0.0465
26407W        W42301   9.356   4.487   1.132 -0.1818 -0.1404 -0.1044
26408W        W42302  17.448   4.630   1.249 -0.1625  0.1019 -0.2000
26409W        W42303   1.897   4.051   1.297  0.1617  0.0178 -0.1218
26410W        W42304  11.577   2.113  14.486 -0.1940 -0.2410 -0.0321
26411W        W42305   6.383   2.781  16.296 -0.2281  0.0056 -0.2761
26412W        W42306  16.736   9.027   2.833 -0.2008  0.0851  0.0862
26413W        W42307  14.437   6.430   1.077 -0.3875  0.2166  0.0358
26414W        W42308   2.470  10.054   6.175 -0.0354 -0.0457  0.1344
26415W        W42309   2.994   5.567  14.456  0.1944  0.0109 -0.1186
26416W        W42310  10.161  16.726  14.887 -0.0630  0.0078  0.0744
26417W        W42311   1.145   7.034  16.748 -0.0172 -0.1707 -0.0351
26418W        W42312   3.930   6.691   3.997  0.0227 -0.1312 -0.1016
26419W        W42313  10.672  13.905   2.571 -0.3764 -0.0424 -0.3157
26420W        W42314  15.079   2.636  15.084  0.0651 -0.1271  0.1424
26421W        W42315  16.497   1.203   4.305 -0.1102 -0.1292  0.1759
26422W        W42316   5.897  11.342   5.431  0.0853  0.0562  0.2238
26423W        W42317   7.115  16.705  15.814 -0.2010 -0.1900  0.3722
26424W        W42318  12.872   0.617   3.739  0.1764 -0.2766  0.1195
26425W        W42319  14.494   3.754   1.314 -0.2037 -0.1754  0.1161
26426W        W42320  10.801   6.285   5.081 -0.0029  0.2924 -0.0591
26427W        W42321   2.770  13.564   5.625  0.1658 -0.0230  0.2244
26428W        W42322   2.770   8.098  14.839  0.0867  0.0068 -0.1374
26429W        W42323  16.961   9.923   2.853 -0.1431 -0.0723 -0.3282
26430W        W42324   3.534  15.551   1.154 -0.2347  0.0597 -0.1906
26431W        W42325   5.778   0.587   1.561  0.0376  0.1484 -0.4560
26432W        W42326   9.972   1.993   4.442 -0.0010 -0.0149  0.1075
26433W        W42327   7.276  11.470  16.253  0.0946 -0.1907 -0.2005
26434W        W42328  13.591   9.272   4.205 -0.0271  0.2792  0.1632
26435W        W42329  12.066   6.676   0.594  0.0567  0.0282  0.1003
26436W        W42330   1.285   1.921   4.513 -0.0295 -0.1016  0.1687
26437W        W42331  10.908  16.115  14.146 -0.1216  0.1002 -0.0180
26438W        W42332  13.306   6.754  17.019 -0.1226 -0.0487 -0.0460
26439W        W42333   6.728   0.560   6.361 -0.3599  0.2201  0.2379
26440W        W42334   7.955   4.846   2.617 -0.4178  0.2067 -0.0391
26441W        W42335  11.085   6.570  16.289  0.1344 -0.2196  0.0021
26442W        W42336   0.061  14.365  12.181  0.2340 -0.1327 -0.0090
26443W        W42337   6.290  14.959  11.989  0.0992  0.1158 -0.1576
26444W        W42338  11.589   2.932   1.837  0.1535  0.0577 -0.1549
26445W        W42339  17.145  10.238   0.561  0.2059  0.0740  0.1203
26446W        W42340  16.596   2.532  16.344  0.1312 -0.0775  0.0124
26447W        W42341  11.238   3.624  16.134 -0.1868 -0.0970 -0.3759
26448W        W42342  15.988   1.684   4.526  0.0878  0.0177  0.2634
26449W        W42343   8.899   2.623  15.377  0.1410  0.1133  0.1723
26450W        W42344   5.494   6.035  15.181 -0.0496 -0.1646  0.0662
26451W        W42345   9.180   6.871   0.039  0.0077 -0.0754 -0.2185
26452W        W42346   5.626   4.859   4.642  0.0246 -0.3194  0.0701
26453W        W42347  16.757   5.284   5.702 -0.0695  0.0201 -0.0992
26454W        W42348  10.626   7.154  15.329  0.0879 -0.1799  0.1586
26455W        W42349  12.707   6.860  11.258  0.2339 -0.1091  0.0797
26456W        W42350   5.927   8.190  12.794  0.3801  0.0620  0.2013
26457W        W42351  10.821  15.226  16.293 -0.0333 -0.1010 -0.1619
26458W        W42352  14.701  10.063   3.583 -0.1323 -0.0242 -0.2696
26459W        W42353  10.114   9.007  15.154 -0.0607 -0.0351 -0.1512
26460W        W42354  11.818   8.144  11.733  0.0312 -0.3234 -0.1257
26461W        W42355  12.780   3.271  16.845  0.1028  0.0609  0.0752
26462W        W42356   4.567   2.431   0.979 -0.2462 -0.2065  0.3570
26463W        W42357  16.275   1.587   1.973  0.1525  0.2160  0.1460
26464W        W42358   8.175   5.695  17.087 -0.1933  0.3352 -0.1635
26465W        W42359  11.028  12.690  16.359  0.0832 -0.2395  0.0610
26466W        W42360   2.428  17.077  12.859 -0.0520  0.3035  0.0122
26467W        W42361  15.945   5.682  13.002  0.2113  0.2841  0.0822
26468W        W42362  16.633   7.683   5.091  0.0064  0.1917  0.2336
26469W        W42363  11.506   9.493  11.407  0.0786  0.0209  0.0303
26470W        W42364   7.934  10.093   4.635 -0.2725  0.3296  0.1493
26471W        W42365  11.311   7.214  13.247 -0.4161 -0.2592  0.0156
26472W        W42366   6.496   0.971   1.145  0.0714  0.1575 -0.0526
26473W        W42367  14.941   0.196   5.135  0.1477  0.2240 -0.0300
26474W        W42368   5.314   5.570   5.562 -0.1810  0.2043  0.1620
26475W        W42369   9.882   6.312   3.544  0.4086 -0.0714 -0.3758
26476W        W42370   3.594   1.137  13.547 -0.0718 -0.2821 -0.0032
26477W        W42371  15.658   2.595  16.052 -0.2208  0.1940 -0.0495
26478W        W42372   0.441  16.763  14.804 -0.0422 -0.3652  0.0186
26479W        W42373  12.509   8.879  14.924 -0.1573  0.3661 -0.0027
26480W        W42374   5.693   2.695   5.076 -0.0389 -0.0807  0.0737
26481W        W42375  10.159   0.816   0.939 -0.1379 -0.4263  0.0683
26482W        W42376   1.993   4.412  15.104  0.1439 -0.0568 -0.0406
26483W        W42377   4.443  14.949  14.668 -0.1142 -0.3490  0.0619
26484W        W42378   3.703   3.603  15.931  0.1877 -0.1051  0.0400
26485W        W42379   3.421  14.168   2.620 -0.1785  0.0774  0.2078
26486W        W42380  15.670   2.641  14.375  0.1609  0.2083 -0.1553
26487W        W42381   5.055   9.988   2.478 -0.2093  0.4481  0.1207
26488W        W42382   9.282   7.567   4.493  0.3054  0.0501 -0.0354
26489W        W42383   5.541  14.959   3.090  0.0979 -0.1099 -0.0878
26490W        W42384  11.755  13.277  13.352 -0.2828  0.0267 -0.2176
26491W        W42385   4.433   9.740   5.494 -0.0217  0.2303 -0.1461
26492W        W42386   2.204  13.199  15.986  0.2904  0.2004 -0.2723
26493W        W42387   1.229  12.826   0.024  0.1321 -0.0158 -0.1438
26494W        W42388  10.734  13.879  15.350 -0.0041 -0.2850 -0.0106
26495W        W42389   8.926  14.956  15.617 -0.1198 -0.1940  0.1780
26496W        W42390  16.947  12.314   0.600  0.1172  0.1806  0.1394
26497W        W42391  16.132   1.185  15.064 -0.0336  0.1673 -0.1265
26498W        W42392  15.682  12.562   1.137  0.1617 -0.1157 -0.0535
26499W        W42393  10.238   4.274   2.225  0.1399 -0.2919  0.0376
26500W        W42394  14.760  11.072  12.246  0.2358  0.1869  0.1219
26501W        W42395  15.965  16.554  16.498 -0.0576  0.1516 -0.3190
26502W        W42396  11.643  10.249   3.333 -0.0397 -0.1984 -0.0483
26503W        W42397  12.031  13.330  15.633  0.2075 -0.3440 -0.2316
26504W        W42398  12.402  10.652  13.515  0.1257  0.0824 -0.0885
26505W        W42399  13.938  13.917   2.910  0.0474 -0.1839  0.1897
26506W        W42400  14.391   2.276   1.335 -0.1085  0.2856  0.2087
26507W        W42401   6.530   9.364   3.807 -0.1266 -0.1174  0.2237
26508W        W42402   8.141   0.457  15.458 -0.2395 -0.3139  0.2147
26509W        W42403   8.360  14.465  15.395 -0.2606 -0.0368  0.2475
26510W        W42404  12.272  11.696  15.239  0.0152  0.2382 -0.0122
26511W        W42405  12.495  12.998  13.582  0.3525 -0.0054 -0.0880
26512W        W42406   0.809  15.760  14.697 -0.1335  0.1150 -0.2133
26513W        W42407  15.126  14.481   5.779 -0.1372  0.2388 -0.2740
26514W        W42408  15.296   2.567   6.113 -0.0161 -0.1012 -0.2675
26515W        W42409  17.543  14.217   3.029 -0.2171 -0.0978  0.0590
26516W        W42410  17.071  16.349   3.494  0.2860  0.0413  0.0062
26517W        W42411  16.372  12.143  16.528  0.2872 -0.4173 -0.2439
26518W        W42412  15.756   2.601  16.714 -0.1232  0.0612  0.0400
26519W        W42413   9.824   1.485  14.870 -0.1672  0.5102 -0.0805
26520W        W42414  15.776   3.578   5.156  0.0836  0.2178 -0.1684
26521W        W42415  11.261   0.904   5.014  0.2298  0.0418  0.1478
26522W        W42416   2.220   9.913  13.142  0.0079  0.0847  0.0158
26523W        W42417  14.668  10.221  16.063 -0.2618  0.1634 -0.0169
26524W        W42418  14.567   7.414   1.516 -0.2066  0.0480  0.0249
26525W        W42419  10.780  13.615   2.219  0.0248  0.0348 -0.0970
26526W        W42420  16.000   6.792  15.298  0.0907  0.3121  0.0321
26527W        W42421  14.369   3.581  16.882 -0.2292  0.1561  0.1897
26528W        W42422  13.331   0.173  11.749 -0.0700 -0.0058 -0.2477
26529W        W42423   5.121   4.463   5.251  0.0533 -0.2386  0.1025
26530W        W42424  17.218   7.144  12.564  0.0548 -0.1128  0.0931
26531W        W42425  11.774   5.341   3.231 -0.0720  0.1448 -0.0889
26532W        W42426   3.408  15.046  12.543  0.0477  0.3728 -0.1863
26533W        W42427   4.924  17.614  13.741 -0.2392  0.3009  0.1715
26534W        W42428  14.524  15.246   1.332  0.2273 -0.0053 -0.2014
26535W        W42429  16.443   8.447   3.959 -0.3381 -0.2791  0.0874
26536W        W42430  11.395  10.044  12.027  0.0690  0.2325 -0.0677
26537W        W42431  17.516  14.024  14.192  0.0843 -0.2912 -0.3175
26538W        W42432  16.557  13.401   1.969  0.2097  0.0883 -0.2426
26539W        W42433  17.326  13.111  13.322 -0.1209  0.0848  0.0618
26540W        W42434  16.098   0.992  14.536  0.0025  0.1327  0.0396
26541W        W42435  16.384  15.942  17.203  0.0444  0.1298 -0.1883
26542W        W42436   1.302  11.256  15.615  0.0530 -0.0222  0.1592
26543W        W42437   1.763  15.424   1.826  0.3048 -0.0753 -0.2147
26544W        W42438   8.838   4.394  15.700  0.2149  0.0100  0.1900
26545W        W42439   0.123  16.143   4.212 -0.1445 -0.1140  0.3327
26546W        W42440   2.487  13.976  12.879  0.0164  0.0834  0.1288
26547W        W42441   7.521   7.387  15.562 -0.1220 -0.0004 -0.0676
26548W        W42442  13.774   7.515  12.572 -0.1343  0.3842  0.0599
26549W        W42443   5.503   9.274  16.888 -0.0387 -0.2391  0.3108
26550W        W42444   0.033  16.938   5.241  0.0562  0.1134 -0.0489
26551W        W42445  10.539  14.570   6.344 -0.0711 -0.1611  0.2697
26552W        W42446   2.595  11.041   5.239 -0.2060  0.0301  0.0438
26553W        W42447   4.024   5.419  16.509  0.0380 -0.2420  0.2384
26554W        W42448  15.377   7.661   4.401 -0.2194 -0.0351 -0.2540
26555W        W42449   8.836  16.873  13.687  0.0129 -0.0258 -0.2714
26556W        W42450   9.348  13.534   4.717  0.2827  0.3546  0.1647
26557W        W42451   2.514  17.223   1.813 -0.1063  0.2005 -0.0522
26558W        W42452  16.393  12.734   1.908  0.0959  0.1398  0.1075
26559W        W42453   9.521   9.864   0.445 -0.0505  0.0102  0.0645
26560W        W42454  15.894   0.052  12.396 -0.0137 -0.2792  0.4530
26561W        W42455   3.086   3.201   2.504  0.1577 -0.0880  0.1676
26562W        W42456   5.424  16.676  13.034 -0.1218  0.1140 -0.1244
26563W        W42457   4.318   2.972  15.218  0.1927 -0.0026  0.1999
26564W        W42458  15.263   3.813   4.338  0.1862  0.1659  0.2880
26565W        W42459  16.956   7.529   2.152 -0.1629  0.2688 -0.2913
26566W        W42460  10.116  11.510  12.103 -0.0268 -0.1595 -0.1629
26567W        W42461   4.289   7.358  13.396 -0.4387 -0.1040  0.0170
26568W        W42462   7.119  16.397   4.669 -0.1186 -0.3640  0.1687
26569W        W42463  17.042   6.940   3.223 -0.0536 -0.0838  0.2500
26570W        W42464  10.915  13.127  14.906 -0.0851  0.2982  0.1664
26571W        W42465   8.512  16.230   2.128  0.0351  0.0829 -0.2487
26572W        W42466  17.035   4.665   0.896 -0.2352  0.0889 -0.0004
26573W        W42467   6.483  17.040   0.432 -0.0446 -0.0280 -0.1342
26574W        W42468  16.102  15.657   2.128  0.3137  0.0733  0.3930
26575W        W42469  14.507  12.074  15.306  0.0445  0.1049  0.1269
26576W        W42470  12.249  15.281   0.164 -0.0120  0.0505  0.2505
26577W        W42471  14.516  12.745   1.495 -0.1717  0.0771  0.4490
26578W        W42472   8.745   1.217   4.815 -0.0324 -0.3658 -0.2485
26579W        W42473   4.959  12.554   2.856  0.0974 -0.0262  0.0432
26580W        W42474  16.833   6.144   5.126  0.1227  0.2616 -0.2569
26581W        W42475   1.177   7.103  12.447 -0.0929  0.0902  0.0678
26582W        W42476  17.264   2.689   3.215 -0.1888 -0.0397 -0.1263
26583W        W42477   9.094   6.111   3.397  0.3609  0.2215  0.0143
26584W        W42478  16.943  17.320   0.472 -0.1530  0.1867  0.0899
26585W        W42479  10.138  12.066   2.161  0.1430 -0.1274  0.1259
26586W        W42480  13.840   0.341   6.053  0.0905  0.0088 -0.0384
26587W        W42481  16.462   9.629   0.557  0.0536  0.1947 -0.0115
26588W        W42482   1.981   8.681  12.725  0.0530 -0.2319  0.1807
26589W        W42483  13.375   0.764   2.092  0.1688  0.0528  0.0475
26590W        W42484   1.195  16.796   5.535 -0.1004  0.1586 -0.3634
26591W        W42485   1.065   4.419  16.679 -0.1207 -0.3807  0.0849
26592W        W42486  15.558   8.603   2.379 -0.0473 -0.1076 -0.0062
26593W        W42487   9.403   6.566   4.118  0.2709 -0.0053  0.0935
26594W        W42488   0.730  12.492   5.780 -0.2421 -0.0470  0.1319
26595W        W42489   3.319  14.729  14.119  0.0196 -0.1137 -0.0198
26596W        W42490   6.939  10.145  11.575  0.1643 -0.0567 -0.2471
26597W        W42491   9.565  11.455   1.518  0.2974 -0.0876  0.1762
26598W        W42492  17.209   7.684   5.172 -0.2951  0.0647 -0.0721
26599W        W42493  13.773   2.948   5.673  0.2340  0.0073  0.0875
26600W        W42494   5.026  14.068   2.497  0.1400  0.3239  0.2003
26601W        W42495   5.680   1.764  12.884  0.0492 -0.1258  0.1300
26602W        W42496   3.170   5.785  12.611 -0.2688 -0.1153  0.0166
26603W        W42497   6.482   2.152   3.246  0.1455 -0.5146  0.1422
26604W        W42498   5.883   8.520  13.187  0.0712  0.1077  0.0960
26605W        W42499  13.931  16.249  16.982 -0.1872  0.1345  0.0953
26606W        W42500   8.881  11.740  14.383  0.0019 -0.1457  0.1888
26607W        W42501  11.475   0.793  14.504  0.0213  0.0851 -0.3084
26608W        W42502   2.963   2.608  16.560 -0.2541  0.2411  0.2573
26609W        W42503   4.369   7.790   1.247  0.2749  0.3212  0.0946
26610W        W42504  13.750  13.357   5.698  0.0318 -0.0475  0.1696
26611W        W42505  13.986   9.268  12.705 -0.0637 -0.0615 -0.2644
26612W        W42506  16.958  13.885   2.764  0.4478  0.0535  0.2216
26613W        W42507   9.013   4.644  14.299 -0.0282 -0.0852 -0.0246
26614W        W42508   3.181  14.181   5.115  0.0160 -0.0217 -0.2044
26615W        W42509   6.572  11.570  16.281  0.0516 -0.0132 -0.0822
26616W        W42510  14.207   9.586  11.987 -0.1123  0.1764  0.0261
26617W        W42511  11.552  11.753   3.551 -0.0441 -0.2238  0.0506
26618W        W42512  16.180  11.445  11.798 -0.2503  0.0211  0.2565
26619W        W42513  10.192   1.287  15.246  0.2505 -0.1163  0.1563
26620W        W42514   5.256   0.431   5.445 -0.2647 -0.3354  0.0961
26621W        W42515   5.408  15.693   2.263 -0.1310 -0.0118 -0.2769
26622W        W42516   9.950   6.950  14.943 -0.1420 -0.0090  0.0259
26623W        W42517   6.033   5.602   1.340 -0.1506  0.1811  0.0864
26624W        W42518  15.306  11.162  15.111 -0.0008 -0.0778 -0.2343
26625W        W42519  14.760   4.249   4.420  0.0275 -0.3285  0.2688
26626W        W42520   0.184   4.293   2.117 -0.2794 -0.0935  0.0940
26627W        W42521   8.475  14.643   2.570  0.1999 -0.2689 -0.2832
26628W        W42522   0.772  14.609   3.187 -0.0947 -0.1933  0.0763
26629W        W42523   6.047   0.264   4.315 -0.4031  0.2156 -0.0941
26630W        W42524  16.385  11.611   3.596  0.1817  0.1486 -0.0433
26631W        W42525  10.064  13.131  13.705  0.1710  0.1139  0.0930
26632W        W42526   7.421   9.132   4.309 -0.1415 -0.0502 -0.0456
26633W        W42527  15.623   1.032  12.316  0.3305  0.0234  0.1022
26634W        W42528   0.472   4.302  15.914 -0.0900  0.0599  0.1970
26635W        W42529   8.241   8.558   6.341 -0.0300 -0.3380  0.0966
26636W        W42530   9.236   0.827  15.364 -0.3874 -0.2839  0.0657
26637W        W42531  14.106  10.087  15.741  0.0673  0.0150 -0.0511
26638W        W42532  14.081   2.689   0.599  0.0091  0.1242 -0.0283
26639W        W42533  14.099  15.444   5.296  0.1903  0.0260 -0.2392
26640W        W42534   6.297  14.694   5.005 -0.0465 -0.2920 -0.0792
26641W        W42535   0.834   2.940   2.136 -0.0453 -0.0470  0.1149
26642W        W42536   0.616   6.652  15.057 -0.1927  0.0779 -0.4121
26643W        W42537   2.822   8.340  11.210  0.1572  0.1621 -0.0618
26644W        W42538   7.865   8.396   0.858 -0.1046 -0.0234 -0.1534
26645W        W42539  17.173   5.817   5.326 -0.2033  0.1786 -0.0652
26646W        W42540  14.608   7.063  13.556 -0.0499  0.0074 -0.1369
26647W        W42541   6.460  12.552  16.485  0.0202 -0.2901 -0.4311
26648W        W42542   7.496  11.806  14.565 -0.1007 -0.1189  0.0382
26649W        W42543   2.625   2.070   0.747 -0.4501  0.0643  0.1051
26650W        W42544   4.755  12.352   2.348 -0.2973  0.0089  0.0062
26651W        W42545   3.372   5.654  13.525 -0.0560  0.1591 -0.0674
26652W        W42546  13.419   2.597  12.916  0.3142 -0.2281  0.0370
26653W        W42547   7.636  13.992  13.794 -0.0928  0.0327  0.2046
26654W        W42548   2.204  12.167  15.125  0.2185 -0.2519  0.1415
26655W        W42549   3.649  13.008  16.648  0.1438  0.1287  0.1095
26656W        W42550   4.038   5.490   5.356  0.0546 -0.3393 -0.1947
26657W        W42551   3.878   2.890  12.158 -0.1981  0.3729  0.0873
26658W        W42552   9.787  17.265  12.396  0.6324 -0.3162 -0.0715
26659W        W42553   4.336   7.747  17.056  0.0972  0.0012  0.0673
26660W        W42554   8.912   1.587   1.746 -0.2075 -0.5136 -0.0963
26661W        W42555   4.402  10.281   6.841 -0.3450  0.0063 -0.1504
26662W        W42556  16.689   3.064   5.290 -0.0548 -0.4228  0.1896
26663W        W42557  14.274   4.675  12.329 -0.0417  0.2392  0.2469
26664W        W42558   9.833   7.503  16.022  0.1207 -0.0516 -0.0164
26665W        W42559   3.710   5.793  16.153  0.3152  0.2590  0.1535
26666W        W42560   9.699  17.197  13.518  0.0577  0.0807  0.0086
26667W        W42561  10.332  13.865   0.015  0.0183 -0.0878  0.1089
26668W        W42562  10.460  15.706   1.166 -0.0213 -0.0647  0.0106
26669W        W42563  17.614  13.273  12.012 -0.2749 -0.3479  0.0585
26670W        W42564   0.670  11.252   1.029  0.0937 -0.1406 -0.2464
26671W        W42565  12.111  14.712   4.252  0.1169 -0.2353 -0.1377
26672W        W42566  13.424   3.096  13.004 -0.0096  0.1636  0.0574
26673W        W42567   0.762  10.089  16.871  0.2270  0.5397  0.1908
26674W        W42568   8.161   9.560  12.092  0.1481  0.0353 -0.0053
26675W        W42569  16.561  16.682   3.453 -0.1387 -0.0950  0.2458
26676W        W42570  12.014   7.966   2.261  0.2225 -0.1487 -0.0150
26677W        W42571   3.345  16.788   3.856  0.0133 -0.3350 -0.0828
26678W        W42572   1.362   9.435   3.966 -0.4560 -0.2795 -0.1801
26679W        W42573   7.765  10.022   2.808  0.0335 -0.1898 -0.0722
26680W        W42574   4.967  15.939   5.448 -0.1743  0.3017 -0.1339
26681W        W42575   6.140   8.906   0.881 -0.4038 -0.0773 -0.0226
26682W        W42576  10.921   7.002  12.968  0.0818  0.0301  0.1814
26683W        W42577   2.510   2.593  13.902  0.0565  0.0519 -0.0107
26684W        W42578  13.935  16.347   2.715 -0.4682 -0.3369  0.1404
26685W        W42579   2.191   6.003  16.859  0.0342 -0.1870 -0.0284
26686W        W42580   2.388  15.985   3.677  0.0418 -0.1242 -0.1867
26687W        W42581   4.191   4.464   6.081 -0.1443 -0.0013 -0.0569
26688W        W42582   3.644   8.053   0.932  0.1692 -0.0174 -0.0041
26689W        W42583   1.511  16.394  12.827 -0.1901  0.1539  0.2262
26690W        W42584  10.095   8.918   0.595 -0.0490  0.0332 -0.0368
26691W        W42585  16.835   8.213  13.191 -0.1608 -0.0195 -0.2484
26692W        W42586  11.129  13.068   1.234  0.0130  0.2097  0.2215
26693W        W42587  16.372   8.837   2.128  0.0071 -0.0450 -0.0551
26694W        W42588  14.061  10.006  10.748  0.1043 -0.2319  0.1328
26695W        W42589   8.885  14.041  15.648 -0.0327  0.0838 -0.2881
26696W        W42590   2.984  14.952   5.577  0.1047  0.1307  0.0621
26697W        W42591  14.378  13.747  15.065 -0.3420 -0.0991 -0.2643
26698W        W42592   1.578  11.125   2.200 -0.2039  0.3159  0.0460
26699W        W42593   6.541   5.250   4.817  0.2687  0.0922  0.1433
26700W        W42594   9.693   3.726   1.883  0.0479 -0.2371 -0.1385
26701W        W42595   9.474   2.045   5.105  0.1594 -0.0567 -0.0261
26702W        W42596  11.215   8.348   0.415 -0.0760 -0.2173 -0.1296
26703W        W42597  16.362  13.095   1.576  0.2659  0.2052 -0.0671
26704W        W42598   2.611  17.008  16.781 -0.0633 -0.2385  0.0111
26705W        W42599  11.499   4.459  11.466  0.2178 -0.0043  0.2757
26706W        W42600   8.409   1.725   5.740 -0.1948 -0.0152 -0.1588
26707W        W42601   5.851   3.656  17.203  0.4209 -0.3662  0.0252
26708W        W42602   7.889  10.181   2.163 -0.0976  0.2798  0.0821
26709W        W42603   2.923   1.174   0.140  0.0542 -0.1097 -0.0336
26710W        W42604   7.892   4.355  12.925 -0.4968 -0.1581 -0.5058
26711W        W42605  11.169   2.964   0.549  0.0827  0.0247  0.2325
26712W        W42606  16.680  14.212  14.702 -0.1162 -0.0297  0.0955
26713W        W42607   4.134   5.418   6.939 -0.0519  0.0355  0.1723
26714W        W42608  15.200  16.170  13.783 -0.3791  0.0178 -0.1248
26715W        W42609   2.447  13.770   0.687 -0.1188 -0.1953  0.2802
26716W        W42610  17.114  15.779   3.737  0.1014 -0.5032  0.0270
26717W        W42611  13.757   1.595  14.151  0.0626 -0.0070  0.0158
26718W        W42612  17.237   9.309  17.166 -0.1224  0.0663  0.0921
26719W        W42613   6.823   2.414   0.028  0.0195  0.1211  0.1085
26720W        W42614   7.776   9.664   4.733  0.2998 -0.2498 -0.0012
26721W        W42615  13.173   5.836   0.109  0.1586  0.1270 -0.0117
26722W        W42616  11.612  15.096  12.287 -0.0423 -0.0972 -0.1627
26723W        W42617   2.953   7.669  15.653 -0.1874 -0.0403  0.1275
26724W        W42618   5.431  13.229   4.178 -0.2483  0.3186  0.0726
26725W        W42619   7.852   7.299  13.644 -0.3581 -0.1200  0.3003
26726W        W42620  15.398   9.499   6.391 -0.1195  0.3152 -0.2521
26727W        W42621   6.867  17.479   2.613 -0.1890  0.2143  0.0924
26728W        W42622   0.656   5.174   5.583 -0.0929 -0.0550  0.0267
26729W        W42623  13.435  13.178  16.039 -0.0883 -0.0187  0.1754
26730W        W42624  16.218   1.605  12.000 -0.3864  0.0155  0.0530
26731W        W42625  10.760  13.374  14.277 -0.0335 -0.0163 -0.0230
26732W        W42626   8.547   7.594  14.021 -0.2671  0.0607  0.0400
26733W        W42627  11.304  14.590  14.557 -0.1569 -0.2762 -0.0757
26734W        W42628   1.553   5.417  16.750  0.1469  0.0576  0.2669
26735W        W42629   5.352   9.257   3.016  0.1136 -0.1280 -0.1395
26736W        W42630  10.350  13.253  13.261  0.1240 -0.0852 -0.0250
26737W        W42631  14.555  16.624  15.407 -0.2268 -0.0152  0.0246
26738W        W42632  12.835   3.888  15.445 -0.0062 -0.0271  0.1727
26739W        W42633   4.707  11.775   3.069  0.2571  0.0593  0.1844
26740W        W42634  15.611  17.282  15.113  0.0449 -0.0575  0.2703
26741W        W42635   9.864  14.208  15.335  0.1824 -0.1769 -0.1531
26742W        W42636   9.210  11.740   6.443 -0.2329  0.0778 -0.0325
26743W        W42637  14.028   3.093   0.901 -0.4561  0.2659  0.1283
26744W        W42638  14.948   3.488   2.348 -0.0203  0.1926 -0.0227
26745W        W42639  10.236  14.720   2.990  0.0495 -0.0306  0.0800
26746W        W42640  15.459  17.504  13.143  0.1039 -0.1731  0.0242
26747W        W42641   9.841   2.336  16.121 -0.2697 -0.2607 -0.0670
26748W        W42642  13.463   0.111  12.542 -0.1111 -0.2821  0.2584
26749W        W42643  14.680   5.486  15.179  0.0263 -0.1979  0.0387
26750W        W42644   9.113   5.187   2.769 -0.1278 -0.0458  0.1780
26751W        W42645   9.256  13.238  16.599 -0.1108  0.4518  0.0117
26752W        W42646   3.416   9.025   3.572  0.1392 -0.0721  0.0882
26753W        W42647  14.924   3.483  14.151 -0.0272  0.2855 -0.1838
26754W        W42648   2.622  11.926   0.625  0.1620 -0.0700 -0.4574
26755W        W42649  16.966   7.835  13.525  0.4350 -0.0552  0.0877
26756W        W42650   8.448   5.057  16.663 -0.1548 -0.0364 -0.3376
26757W        W42651  16.597   9.849   5.657 -0.1075 -0.0726  0.2062
26758W        W42652   3.296   5.795   3.836  0.2613  0.3035 -0.0082
26759W        W42653  14.309   6.796   0.705  0.0056  0.0237 -0.2759
26760W        W42654  10.881  11.455   5.108  0.0862  0.0986  0.1417
26761W        W42655  15.961   2.820   3.295  0.2119 -0.1529 -0.0170
26762W        W42656   7.337   1.923  15.122 -0.2009  0.2516  0.2200
26763W        W42657  12.495  12.011   1.166  0.2380 -0.0229 -0.1111
26764W        W42658   2.499   9.442  13.639 -0.1548  0.0100  0.1848
26765W        W42659  15.378  11.354  17.027  0.1874  0.0949 -0.0094
26766W        W42660   3.451   9.490  12.467 -0.0087  0.2526 -0.0783
26767W        W42661   2.301  17.621  12.985  0.0847 -0.1537  0.1408
26768W        W42662   8.838   1.312   6.620  0.0278  0.1723  0.0581
26769W        W42663  15.271  15.615   4.355  0.0337  0.2589  0.3800
26770W        W42664   1.505   2.605   4.209 -0.2040 -0.1265 -0.2096
26771W        W42665   0.341  14.388  14.239 -0.0583 -0.1323  0.0502
26772W        W42666  14.861  10.873  16.554 -0.0832  0.3337  0.0014
26773W        W42667  12.441  16.448  15.391  0.3331 -0.0368  0.1758
26774W        W42668   6.812  11.500  13.021 -0.1397 -0.1512 -0.1985
26775W        W42669   3.705   6.517  15.813  0.1579 -0.0524 -0.2292
26776W        W42670   2.616   1.113   0.503  0.0313 -0.3255 -0.2351
26777W        W42671   7.639  16.202   5.454  0.1272 -0.1241  0.1456
26778W        W42672   6.898   4.100  12.243 -0.1139  0.2902  0.2687
26779W        W42673   4.069   4.524   2.128  0.3190 -0.0737 -0.2150
26780W        W42674   5.848  12.655   3.300  0.2086 -0.0201 -0.1822
26781W        W42675  11.641  14.235   1.144  0.1261  0.1036 -0.0165
26782W        W42676   4.589  14.179  13.541 -0.1850  0.0141 -0.2385
26783W        W42677   5.855  10.112   0.322  0.2749  0.2301 -0.1441
26784W        W42678  12.094   3.478   3.547  0.1419 -0.1900  0.0689
26785W        W42679   6.169  17.553  12.191 -0.1414  0.2163  0.1422
26786W        W42680   3.344   3.822   4.829  0.1667 -0.2144  0.2558
26787W        W42681  15.885  11.556   3.798  0.1982 -0.2509  0.1437
26788W        W42682   2.200   1.571   6.882 -0.0805  0.0198  0.1672
26789W        W42683   8.370   7.783   5.003 -0.1502 -0.1758 -0.2366
26790W        W42684  16.141   8.346   2.847  0.2091 -0.0942 -0.0253
26791W        W42685   7.152   8.733  12.614  0.1092 -0.1697  0.4619
26792W        W42686  13.948   8.524   2.948 -0.3690 -0.0521 -0.3251
26793W        W42687   6.309  16.786   2.251 -0.2999  0.0750  0.1756
26794W        W42688   3.686   4.462   0.224  0.0215 -0.1076  0.3286
26795W        W42689   4.366   6.452   1.093 -0.1745  0.2224 -0.0705
26796W        W42690   6.288  17.417  16.932 -0.3898  0.1933  0.0607
26797W        W42691  16.091   5.700   4.677  0.1150  0.0435  0.0500
26798W        W42692  15.973   0.551   1.708 -0.0524  0.0149  0.4531
26799W        W42693   8.996  10.447   0.884  0.0700 -0.0060 -0.0485
26800W        W42694   0.153  12.376  16.981  0.1491 -0.1204 -0.0294
26801W        W42695   1.914  16.535  12.533 -0.1011 -0.0862 -0.1292
26802W        W42696  12.990  15.159   0.204  0.2368  0.2715 -0.1477
26803W        W42697   2.216   3.890   2.763  0.1237 -0.0583 -0.1060
26804W        W42698   3.831  14.417   1.936 -0.2161  0.0113 -0.0975
26805W        W42699   9.733  12.524  15.822  0.1944 -0.1364  0.1175
26806W        W42700   6.322   0.536   0.425 -0.1308 -0.2411 -0.1672
26807W        W42701   6.208   5.488   4.459 -0.2414  0.0277 -0.0622
26808W        W42702   7.466  16.227  15.820 -0.0075 -0.1598  0.0494
26809W        W42703  13.979  12.934  11.622 -0.1566  0.1651 -0.2128
26810W        W42704   9.627   1.797  17.052 -0.0211 -0.0367 -0.3011
26811W        W42705  10.259  16.603   6.007  0.2888 -0.0565  0.0167
26812W        W42706  14.041  11.097   4.641 -0.0006  0.0016 -0.0160
26813W        W42707   3.071   0.527  14.666  0.0928  0.3634  0.0956
26814W        W42708   4.182  15.017  12.478  0.2689 -0.2600 -0.2616
26815W        W42709   5.035   2.849  15.304 -0.0405  0.0797  0.1175
26816W        W42710  13.237   3.552  14.197 -0.1997 -0.0407  0.1302
26817W        W42711  17.170   0.534   4.862  0.0111  0.0874 -0.0925
26818W        W42712  10.246  15.802  13.320 -0.2896  0.0635 -0.1099
26819W        W42713   8.822   9.064  13.405  0.2737  0.3318 -0.3210
26820W        W42714  12.827   7.821   0.309 -0.0068  0.0824 -0.2898
26821W        W42715   7.405  16.596   1.281  0.0182  0.2636 -0.0134
26822W        W42716  12.438  10.605   5.585  0.0282  0.2443 -0.1030
26823W        W42717  14.782  17.329   2.763 -0.1958 -0.0472  0.1392
26824W        W42718  11.965   0.069   0.461  0.1790  0.1940  0.1322
26825W        W42719  14.205  17.504  13.898 -0.3259 -0.1374 -0.0659
26826W        W42720   2.016  14.695   1.142  0.1697  0.3671 -0.0351
26827W        W42721  12.530  13.342   2.886  0.3317 -0.1096 -0.0271
26828W        W42722  10.670   0.395  14.799 -0.0326 -0.0961 -0.0427
26829W        W42723   8.185   2.870   4.504 -0.0367 -0.1176  0.0760
26830W        W42724  13.508   1.531  14.578 -0.0400 -0.2906  0.3477
26831W        W42725   5.491   6.261   0.133  0.1861  0.1629 -0.2596
26832W        W42726  13.420   5.136  14.585 -0.0507  0.2787 -0.0710
26833W        W42727  15.042   8.450   0.148  0.0708 -0.0707 -0.3521
26834W        W42728  10.586   0.311  14.130  0.2719 -0.3009 -0.2224
26835W        W42729   4.746  13.365  13.477 -0.0723 -0.0689 -0.1573
26836W        W42730   5.715  15.154  14.384 -0.0287  0.2881  0.0475
26837W        W42731   0.258   2.790  17.083  0.1513 -0.1147 -0.2763
26838W        W42732   9.757   9.813   1.299 -0.3875  0.2032  0.1988
26839W        W42733  16.447   2.354   2.805  0.1521 -0.1635  0.0620
26840W        W42734   6.482  10.627   4.664  0.2496 -0.0335  0.0802
26841W        W42735  12.632   2.458  12.846 -0.1785 -0.2359  0.3676
26842W        W42736   2.836   2.070   3.450 -0.0378 -0.0878 -0.3084
26843W        W42737  14.760   9.694   5.430 -0.3115  0.1107  0.0969
26844W        W42738   9.895  11.140  11.716  0.0505  0.0359 -0.0147
26845W        W42739   9.533   6.142   1.763 -0.0364 -0.2498  0.4244
26846W        W42740  13.303  17.610  14.366  0.3542  0.0818 -0.3189
26847W        W42741   5.859   1.586  16.327 -0.1378 -0.1171  0.2257
26848W        W42742  11.058  14.387  13.231  0.1259 -0.0151  0.0119
26849W        W42743   9.173   3.123  16.212 -0.1553 -0.0473  0.0802
26850W        W42744  11.614   3.576  10.915 -0.1934  0.3727 -0.0204
26851W        W42745  12.550   3.505   3.295 -0.0611  0.2571  0.3076
26852W        W42746   8.594   9.672  16.735  0.2900 -0.2847  0.2477
26853W        W42747   2.408  11.029  16.810 -0.0063 -0.0388  0.0024
26854W        W42748   7.689   6.773  13.840 -0.1947 -0.3140  0.0606
26855W        W42749   9.728  15.804  12.567 -0.1850  0.1404  0.1737
26856W        W42750  14.852  13.563   2.501  0.2550  0.0727  0.1492
26857W        W42751  12.551   7.557  13.556 -0.0983 -0.3486  0.0830
26858W        W42752  13.594  16.689   4.509 -0.4562  0.2272 -0.0025
26859W        W42753  16.708  15.806  14.438  0.0271  0.0271 -0.1683
26860W        W42754   4.291  11.579   6.567  0.1073  0.1611  0.1509
26861W        W42755   1.591   1.303  14.584 -0.1013 -0.0298 -0.2246
26862W        W42756  15.071  17.226  12.853  0.0895  0.0172  0.0989
26863W        W42757  16.445  11.301  14.216  0.2020 -0.1758 -0.0273
26864W        W42758  12.473  14.944   3.483  0.2777 -0.0750  0.0843
26865W        W42759  11.625  13.057   1.403 -0.1441  0.0052  0.1359
26866W        W42760   0.336  10.625  10.991  0.2772 -0.1075 -0.1404
26867W        W42761   9.362  17.078  12.166 -0.1130 -0.3448 -0.1450
26868W        W42762   3.419  17.049  12.258  0.1461 -0.2908 -0.2803
26869W        W42763  11.577   2.326   1.967 -0.0934 -0.0504 -0.1547
26870W        W42764   6.756   5.173   1.005 -0.0229  0.1911  0.1892
26871W        W42765   6.797   2.715  15.988  0.0323 -0.1201  0.0070
26872W        W42766  11.662   3.220   6.103  0.1389 -0.0217 -0.2123
26873W        W42767  15.199   7.634  13.863  0.0561  0.1499  0.2152
26874W        W42768   7.792  10.177  17.055 -0.1430 -0.1332 -0.0298
26875W        W42769  11.064   5.448  16.248  0.2367  0.0523  0.0543
26876W        W42770   2.836  16.889  12.605  0.1990  0.0440 -0.4068
26877W        W42771  16.354   9.680   4.253 -0.1438 -0.1141  0.1268
26878W        W42772  10.966   0.486   5.753 -0.0168 -0.0158 -0.0436
26879W        W42773  13.582  16.232  14.666  0.0046  0.1766 -0.0752
26880W        W42774  15.667   6.556  13.166  0.0163 -0.1299  0.0052
26881W        W42775  15.217   9.894  12.516  0.1110 -0.1610  0.0131
26882W        W42776  15.541  10.741   1.554  0.2894  0.0249  0.1596
26883W        W42777   8.575   1.238   1.593  0.0566 -0.0328  0.1264
26884W        W42778  17.599  17.496   2.290  0.0240 -0.0647  0.2946
26885W        W42779   2.470   7.634   4.249  0.0250  0.1329 -0.1172
26886W        W42780   8.780   4.462   5.150 -0.1551 -0.0263 -0.3561
26887W        W42781  15.902   4.436   5.308 -0.0584 -0.0031  0.1557
26888W        W42782  15.022   6.958   3.733 -0.0588  0.1481  0.1245
26889W        W42783  14.474   2.394   3.631 -0.1003  0.3707 -0.1380
26890W        W42784   1.522   6.835   5.751 -0.0307 -0.4475 -0.0859
26891W        W42785   0.120   3.784   2.039  0.3222 -0.1467  0.1452
26892W        W42786   5.740   0.165  12.308  0.1287 -0.2017  0.1594
26893W        W42787   7.700  15.851   6.053 -0.1007 -0.0480  0.2949
26894W        W42788   2.469   2.060  16.189 -0.1248 -0.0621  0.0600
26895W        W42789  15.069   6.757  13.399 -0.0300 -0.0183 -0.0298
26896W        W42790   1.216   0.327  13.608 -0.0769 -0.0542 -0.2454
26897W        W42791  12.925  16.289  12.910  0.0012 -0.0986 -0.2546
26898W        W42792   9.563   6.783   3.253 -0.0487  0.3337 -0.0265
26899W        W42793   0.015   1.336   2.426  0.3140  0.2274 -0.1600
26900W        W42794   7.204  13.590  14.092  0.1303  0.0691  0.1107
26901W        W42795   1.500   9.266   5.436 -0.0349  0.0662  0.2035
26902W        W42796   1.883  14.774   3.254  0.1462  0.0751 -0.0206
26903W        W42797   2.642   2.423   0.123  0.0309 -0.1445  0.1080
26904W        W42798  16.865   7.514   5.566  0.1374  0.2188 -0.0396
26905W        W42799  13.771  10.373  15.938 -0.3326 -0.0378  0.0228
26906W        W42800   7.651  11.554   1.003 -0.1751 -0.2522 -0.2318
26907W        W42801  13.549   7.819  13.573  0.0475 -0.1514  0.1904
26908W        W42802   7.564   8.844  16.468 -0.0397 -0.2014 -0.3686
26909W        W42803  16.435   8.158  15.633 -0.1336 -0.0126 -0.2972
26910W        W42804  14.698   5.887  16.603  0.1523  0.0430 -0.1225
26911W        W42805   2.082   5.881   4.398 -0.1438  0.2489  0.0475
26912W        W42806   1.238   2.460   5.737  0.1290 -0.0009  0.1891
26913W        W42807  10.528   4.024   3.508  0.1811 -0.1778 -0.0534
26914W        W42808   9.045  13.659   0.148 -0.3604 -0.0060  0.0267
26915W        W42809   1.169   6.566  16.579  0.2666 -0.2675  0.0184
26916W        W42810   2.924  17.006   0.546  0.1892  0.0206 -0.2202
26917W        W42811   7.935  14.372   2.334  0.0302 -0.2990  0.1578
26918W        W42812   0.504   9.798  15.356  0.3196 -0.2989  0.0432
26919W        W42813  14.467   5.461  12.813  0.1218 -0.0338 -0.2613
26920W        W42814  11.190  12.329  14.080 -0.0070 -0.0932  0.0391
26921W        W42815   4.191   6.231  14.833  0.0246  0.1166 -0.1428
26922W        W42816  14.596  15.186   3.158  0.2755  0.4507 -0.1360
26923W        W42817   6.428  17.175  15.077 -0.0792  0.0536 -0.2852
26924W        W42818   2.625   3.391   4.403 -0.1563 -0.1230 -0.1589
26925W        W42819  10.073   2.492   4.417 -0.2645 -0.0324 -0.0607
26926W        W42820  11.067   0.439   0.854 -0.2454 -0.0017 -0.0075
26927W        W42821   0.467  11.875   4.407  0.1398 -0.0713 -0.5357
26928W        W42822  12.706   0.506   1.286  0.0374 -0.0794 -0.2910
26929W        W42823   0.501   4.807   5.911  0.0213  0.0901 -0.1424
26930W        W42824   0.294   6.864  17.032  0.3346  0.2093  0.4474
26931W        W42825  13.090  17.129  11.834 -0.1294  0.0880  0.0023
26932W        W42826   3.417   6.117  16.503 -0.2872 -0.2022  0.0826
26933W        W42827   5.589   1.903   4.815 -0.1724 -0.0526 -0.0213
26934W        W42828   2.467  16.809  16.256  0.3076  0.0600  0.0685
26935W        W42829   0.982  13.632  14.772 -0.0802 -0.0130  0.1992
26936W        W42830  15.397  11.232  15.614  0.2482 -0.1684 -0.1521
26937W        W42831   4.271  12.524   2.339  0.0437  0.0903 -0.3375
26938W        W42832   9.363  11.748   0.728 -0.1706  0.2121  0.1750
26939W        W42833  13.412   9.810  14.607  0.0395  0.2052 -0.0246
26940W        W42834   5.428  13.611   1.832  0.1403  0.1399  0.0550
26941W        W42835  11.729   8.024  16.610  0.1385 -0.0071 -0.3991
26942W        W42836   2.469   4.733  17.065 -0.0957 -0.0500 -0.1028
26943W        W42837   6.091   0.663  15.369 -0.0660 -0.0668 -0.0315
26944W        W42838  13.174   4.732  13.312 -0.0666 -0.3039 -0.2438
26945W        W42839  11.896  17.310   1.872  0.1557 -0.2806 -0.0059
26946W        W42840  16.931   2.207   2.919  0.3321  0.1202  0.1855
26947W        W42841   2.458  13.536  16.947  0.0768 -0.3060 -0.1881
26948W        W42842   2.034  14.587   5.604  0.1953  0.2695  0.1323
26949W        W42843   7.379   3.782  16.507 -0.0325 -0.0063  0.2127
26950W        W42844   5.361   5.036  15.707  0.0771 -0.0847 -0.1993
26951W        W42845  17.217   8.810   2.680  0.2008 -0.1518  0.2501
26952W        W42846   7.825  11.626  16.467  0.1962 -0.2174  0.3261
26953W        W42847  15.262  11.682  16.584  0.1577 -0.1311 -0.1423
26954W        W42848  12.241  14.130  12.750 -0.0126 -0.5019  0.1760
26955W        W42849   0.094   8.494  13.647  0.1775  0.0893 -0.1149
26956W        W42850  11.529  12.471   2.677 -0.2076  0.0132 -0.1350
26957W        W42851  12.228   2.387  17.039  0.0859 -0.2663  0.2196
26958W        W42852   2.439   8.993   6.162 -0.0304 -0.0917  0.0335
26959W        W42853  11.472  17.634  12.868  0.2966 -0.1709  0.2149
26960W        W42854  12.075   9.272   3.516 -0.1251 -0.2292  0.0217
26961W        W42855   4.986   5.269   0.354 -0.0774  0.5082  0.2740
26962W        W42856   5.276   8.252   5.484 -0.1433  0.2470  0.3198
26963W        W42857   0.538   5.547  15.922 -0.2076  0.0280  0.2434
26964W        W42858   4.600   2.120   5.601 -0.0462 -0.3574 -0.1004
26965W        W42859   8.577   2.448  12.190  0.2766  0.0232 -0.0452
26966W        W42860  16.635   9.303   6.472  0.1392  0.0219  0.0522
26967W        W42861  14.237  12.736   1.048  0.1281  0.2790  0.0397
26968W        W42862  15.871  17.566  14.625 -0.1225  0.0534  0.3552
26969W        W42863   2.729   5.050   3.459 -0.0791 -0.0136 -0.1717
26970W        W42864   5.728   2.308  13.171 -0.2540  0.1242  0.0350
26971W        W42865   8.846   8.878   2.411  0.0491  0.1532  0.1112
26972W        W42866   9.533  12.791  13.916 -0.0749  0.1432  0.0929
26973W        W42867  12.494   4.668  16.991 -0.1453  0.0880 -0.0617
26974W        W42868   5.563  14.156   0.680  0.0536  0.0716  0.2279
26975W        W42869   7.992  17.237   6.140  0.0554 -0.2613  0.0854
26976W        W42870  14.224  16.212  13.917 -0.2100  0.0097  0.2563
26977W        W42871  16.646   8.084   3.165 -0.0414  0.0116  0.0921
26978W        W42872   4.846   2.393  17.139  0.0116  0.4937 -0.1659
26979W        W42873   1.164   0.828  13.506 -0.0086  0.2282 -0.0333
26980W        W42874   3.393   7.860  13.731  0.0288 -0.2263  0.0353
26981W        W42875  15.950   6.249  13.506  0.1030 -0.0754 -0.3838
26982W        W42876   1.402  10.160  14.039  0.0203  0.3030  0.1163
26983W        W42877   0.768   5.031  12.634 -0.1058  0.0376  0.0194
26984W        W42878  11.213  15.375   3.463  0.3073  0.0089 -0.1577
26985W        W42879  10.074  11.612   3.787  0.0862 -0.2018  0.1271
26986W        W42880  10.406   9.148  16.674 -0.0994  0.1602 -0.1887
26987W        W42881   0.734   8.195   5.474  0.1127 -0.2657 -0.1956
26988W        W42882  10.316   7.468  16.939 -0.2798 -0.0255  0.1496
26989W        W42883   6.882   1.608   5.228 -0.3013 -0.1358 -0.1609
26990W        W42884  15.818   4.801   5.709 -0.3186 -0.0359  0.1445
26991W        W42885  14.911  14.029   5.632  0.1202 -0.4528  0.1192
26992W        W42886  10.464  11.274   2.501  0.0624  0.1261 -0.1663
26993W        W42887   1.672  16.623  16.764  0.0753  0.3909 -0.1523
26994W        W42888  13.901   4.582   2.375 -0.2117  0.0326 -0.4008
26995W        W42889  14.534   0.240  13.971  0.0461  0.0210  0.2328
26996W        W42890  10.240  16.200   5.407  0.2819  0.1601  0.2962
26997W        W42891  13.779  16.424  15.602 -0.0590 -0.0819 -0.0353
26998W        W42892   5.779  14.543   3.040  0.1062  0.0004 -0.0311
26999W        W42893  12.349   2.981  14.061  0.0826 -0.0747 -0.2957
27000W        W42894   5.863   6.922   4.938  0.2047 -0.2173 -0.0097
27001W        W42895   1.844   1.285   3.563  0.1055  0.0109  0.1663
27002W        W42896   4.937  16.271  15.142  0.0769 -0.1654  0.1490
27003W        W42897   4.651  10.381  12.647  0.3275 -0.0970 -0.1703
27004W        W42898  13.079   6.178   2.879  0.1267  0.1053 -0.2276
27005W        W42899   4.540   0.158   2.827 -0.1450 -0.2733  0.0225
27006W        W42900   2.085   8.134  14.215 -0.0268  0.1184  0.0868
27007W        W42901   5.703  10.166  12.425 -0.2446 -0.1388 -0.1968
27008W        W42902   4.510  13.233   4.484  0.1568  0.2409  0.3660
27009W        W42903  17.459  10.275   5.992 -0.2896 -0.0780 -0.1292
27010W        W42904  15.454   7.644   3.259  0.0229 -0.0207  0.0201
27011W        W42905  12.938  10.617  15.504 -0.1196 -0.2052 -0.0264
27012W        W42906  17.239   5.712  16.219  0.2042  0.0729 -0.1934
27013W        W42907   2.434  11.498  12.602 -0.0141 -0.3645 -0.1662
27014W        W42908   8.006  15.913  14.046 -0.1510 -0.0345  0.0725
27015W        W42909  10.780  15.158  11.936 -0.0526 -0.0312  0.2368
27016W        W42910   8.660   4.174  17.222 -0.2140 -0.0317  0.2861
27017W        W42911   4.964   5.076  13.745  0.0077  0.1834  0.2692
27018W        W42912   1.660   6.142   5.289  0.1214 -0.0089  0.0966
27019W        W42913  10.789   8.741  10.152  0.3314  0.3974  0.2215
27020W        W42914   1.515   7.279  12.792  0.1912  0.2427  0.1151
27021W        W42915  14.320   2.260  15.671 -0.2245 -0.0135 -0.0213
27022W        W42916   7.843   5.697  13.727  0.0909 -0.2457  0.3463
27023W        W42917   2.924  12.389   0.307 -0.2469  0.2191  0.2931
27024W        W42918   9.445  16.577  13.021 -0.0272  0.1563  0.1379
27025W        W42919   8.460   9.583  12.734  0.2419 -0.2075 -0.2574
27026W        W42920   5.634   4.802   3.400  0.2529 -0.1092  0.2660
27027W        W42921  16.471   9.931   2.968  0.1324 -0.1145 -0.4235
27028W        W42922  13.776   5.310   6.116  0.2515 -0.1362  0.3674
27029W        W42923  14.257   4.213   4.377  0.0355  0.3377 -0.1682
27030W        W42924  13.159  10.763   4.917 -0.2381 -0.0238  0.2345
27031W        W42925   8.461   7.414  12.756 -0.3113  0.0592 -0.1318
27032W        W42926  15.480   6.567   5.249  0.4240  0.0023 -0.0656
27033W        W42927   1.632  14.798  14.313  0.0459 -0.0773  0.2692
27034W        W42928   5.161   3.347   3.526 -0.3584  0.1245  0.0318
27035W        W42929  14.931   3.920   0.174  0.0851 -0.0430 -0.0777
27036W        W42930  14.416   4.482   1.486 -0.4583  0.1537  0.2002
27037W        W42931   7.269  14.680   1.190  0.0039  0.0719 -0.2187
27038W        W42932   8.143  11.378   0.944  0.1514  0.1038  0.0892
27039W        W42933   5.327   6.534   2.353  0.1227 -0.0147 -0.2042
27040W        W42934   0.654   8.544   5.855 -0.0965  0.1935  0.0787
27041W        W42935   8.342   6.647   0.330 -0.0412 -0.0241  0.0036
27042W        W42936   2.015   4.865   5.335  0.1594 -0.1485 -0.0883
27043W        W42937  10.151   2.157  16.465  0.2415 -0.1155  0.1068
27044W        W42938   8.554   9.165   4.309 -0.2121 -0.3413  0.0337
27045W        W42939   3.091  12.650  14.213 -0.0419 -0.0800 -0.3423
27046W        W42940  13.019   0.517   1.697 -0.0489 -0.1769 -0.2190
27047W        W42941   6.440   6.801  14.298  0.2992 -0.0779  0.0195
27048W        W42942   9.448  15.733  14.334  0.2062  0.1356 -0.0046
27049W        W42943  13.032   7.921  14.782 -0.4010 -0.7200 -0.0493
27050W        W42944  16.937  17.072   0.955  0.0681  0.0917  0.2068
27051W        W42945   6.349  16.245   2.952  0.0771 -0.0993  0.0476
27052W        W42946  17.361  15.944   5.282  0.3103  0.2886  0.3496
27053W        W42947  10.560  12.268   2.519 -0.1777  0.3053 -0.6036
27054W        W42948   2.491   9.908   3.488  0.2411 -0.1903  0.0064
27055W        W42949   6.335  13.756   4.448  0.2360 -0.0392 -0.1369
27056W        W42950  13.777   6.930   3.048  0.0994  0.0772 -0.0167
27057W        W42951   6.437   4.773  13.034  0.0624  0.0882  0.0787
27058W        W42952  10.661   3.607  13.345 -0.0476 -0.4572 -0.1897
27059W        W42953  11.206  17.343  16.895  0.2610 -0.0606  0.2556
27060W        W42954  11.779  11.013  16.137  0.0690  0.1258 -0.2628
27061W        W42955  10.560   2.213   2.534  0.0906  0.2481  0.0606
27062W        W42956   7.571   3.871   4.847  0.2800  0.0176  0.0094
27063W        W42957   6.764   0.523   5.470  0.2993 -0.0527  0.1023
27064W        W42958   1.737  12.514  12.902 -0.0116 -0.2795 -0.0523
27065W        W42959   9.464   6.065   3.857 -0.1646  0.0517 -0.3361
27066W        W42960   8.281  11.924  16.620 -0.1697 -0.0255 -0.0054
27067W        W42961  15.503  13.218  12.154 -0.1157 -0.1034  0.2532
27068W        W42962   5.081   4.190   4.808  0.0450  0.0198  0.0267
27069W        W42963  16.694   2.212   0.819  0.1875  0.1277 -0.0318
27070W        W42964  11.194   4.689   2.724 -0.3109  0.1998  0.0840
27071W        W42965   8.849  10.430  15.543 -0.2520  0.3667  0.0761
27072W        W42966   0.859  16.830   1.202  0.1518  0.0570  0.1790
27073W        W42967  13.539  16.114  14.104 -0.4705 -0.0772 -0.0117
27074W        W42968   6.326   3.694  14.316  0.4317  0.1132 -0.0014
27075W        W42969  14.800   1.951   3.621 -0.0076  0.0159  0.0702
27076W        W42970   4.208   8.646  13.917 -0.0703 -0.0942 -0.0171
27077W        W42971  11.150   2.342  13.877  0.0160 -0.0228 -0.4767
27078W        W42972   6.836  13.684   3.080 -0.0848  0.0210 -0.3543
27079W        W42973  15.047  16.968  16.396 -0.2809 -0.0544 -0.1295
27080W        W42974  14.805   7.708  13.519 -0.1678  0.3672  0.0813
27081W        W42975   8.073  15.696   1.913  0.0057  0.0119 -0.0062
27082W        W42976   4.931  15.457  16.221 -0.2026  0.4384 -0.0817
27083W        W42977   0.476   2.894   3.688  0.0598 -0.1431 -0.0020
27084W        W42978  14.983   3.186  13.783 -0.0943 -0.2367 -0.0288
27085W        W42979   1.876  14.135  14.235 -0.3913 -0.1210 -0.0577
27086W        W42980  11.893   1.697  16.380  0.0233  0.0225  0.1056
27087W        W42981   0.618  11.665  16.017 -0.2234  0.1620  0.1484
27088W        W42982   7.974   9.203   1.220  0.0920  0.1165 -0.2413
27089W        W42983  17.579   0.551  12.059 -0.3393 -0.0454 -0.3670
27090W        W42984   3.598   9.987  17.135  0.2795 -0.1152  0.0644
27091W        W42985  15.369  14.203   0.307  0.2745  0.1550  0.0959
27092W        W42986   4.129  13.598  14.113 -0.1388  0.0020 -0.0065
27093W        W42987  16.641   2.682   1.121 -0.0748  0.1170 -0.1030
27094W        W42988   7.256   4.383   2.662  0.1113  0.1192 -0.0325
27095W        W42989   5.376   3.973   5.190  0.1717  0.1171 -0.3349
27096W        W42990  16.453  13.583  16.668  0.1453 -0.0667  0.1726
27097W        W42991  17.533   5.508   5.575 -0.0896  0.0534  0.0318
27098W        W42992   2.362   2.925   0.974  0.0827  0.0305  0.0467
27099W        W42993  12.001   7.416  15.737  0.0653  0.2179 -0.0549
27100W        W42994  16.071  12.695  12.615 -0.1454  0.3614 -0.5656
27101W        W42995   4.329   1.548  13.064 -0.2515 -0.1501  0.0964
27102W        W42996  13.984  11.213   3.528  0.2070  0.1010 -0.1691
27103W        W42997   8.571  16.167  13.371  0.2541  0.2194 -0.0182
27104W        W42998  12.125   6.436   5.316  0.0104 -0.0673  0.1631
27105W        W42999   6.748   7.825   4.836 -0.5248 -0.2576  0.3077
27106W        W43000  15.629   4.284   2.857  0.0643 -0.1696  0.0662
27107W        W43001  14.982   7.979  12.116 -0.0675  0.0346 -0.2591
27108W        W43002  14.938   3.209  12.703  0.1096  0.0854 -0.2838
27109W        W43003   5.445   9.035  13.433  0.1596  0.0101 -0.2070
27110W        W43004   7.155  12.516   3.967  0.2786  0.1595  0.2601
27111W        W43005  12.885  15.336  13.900 -0.3294 -0.1523 -0.0449
27112W        W43006   0.156  10.974  11.950 -0.0911 -0.1265  0.0496
27113W        W43007   5.359  11.918  15.893 -0.0424  0.1482  0.1562
27114W        W43008  15.857  13.020  16.595  0.2003 -0.0556 -0.0916
27115W        W43009   9.445   2.690  16.069  0.1177  0.1034  0.0690
27116W        W43010   2.360  15.459   3.790  0.0148 -0.0931  0.2611
27117W        W43011   7.380  12.363  16.236  0.3590 -0.0671 -0.4560
27118W        W43012   0.477  14.581   5.998 -0.1045  0.1196  0.0885
27119W        W43013   0.145   9.742   6.157  0.1055  0.0430  0.0569
27120W        W43014   5.728   6.262  12.312 -0.0465 -0.1074 -0.0213
27121W        W43015   4.926   5.741   4.716  0.0205 -0.2428  0.0743
27122W        W43016   9.297  10.817  12.867  0.0645 -0.0235  0.3309
27123W        W43017  15.895   0.736  14.163  0.1795  0.0604  0.0807
27124W        W43018   8.940   5.861  12.286 -0.0642  0.0187 -0.3198
27125W        W43019   4.201  12.085   3.193  0.1006 -0.1639 -0.0553
27126W        W43020   7.833   5.884  15.930  0.0589  0.1362 -0.0818
27127W        W43021   4.697  10.337  15.500 -0.0989 -0.0396 -0.1256
27128W        W43022   1.900  10.549  13.566  0.1182 -0.1741 -0.0128
27129W        W43023   0.205   7.024   4.653 -0.2063 -0.2975  0.0043
27130W        W43024  10.205  11.184  17.100  0.4784 -0.1098  0.2577
27131W        W43025   1.980  11.621   1.426 -0.2795 -0.2266  0.1290
27132W        W43026   6.491  14.876   0.214  0.3667  0.1843  0.1359
27133W        W43027   3.302   2.854   0.718  0.2785 -0.2434  0.0374
27134W        W43028   6.948  11.911  16.107 -0.2159  0.1577  0.2113
27135W        W43029   4.817   4.377  15.858  0.3335 -0.0406 -0.0574
27136W        W43030   9.041  12.887   3.299  0.1707  0.2185  0.0262
27137W        W43031  11.979  13.136   5.416  0.2143  0.0474  0.0300
27138W        W43032   1.272  15.289   2.596  0.3154  0.1985  0.0891
27139W        W43033   6.193  10.723   3.587 -0.0840  0.0006 -0.1824
27140W        W43034  11.701  10.736   1.142 -0.0796 -0.1176  0.0270
27141W        W43035  11.814  16.661  17.052  0.1217 -0.0829  0.0897
27142W        W43036  14.529  10.772   0.283  0.0080 -0.1705 -0.1056
27143W        W43037   6.427  14.238   2.242 -0.1970 -0.0543 -0.0270
27144W        W43038   7.700  13.415  15.761  0.1715  0.1767 -0.2775
27145W        W43039   2.517   0.869   2.713  0.2349  0.0552  0.0133
27146W        W43040  15.050  15.291  14.170  0.3356 -0.2236  0.1137
27147W        W43041  10.161   6.631   3.836  0.1733  0.1587 -0.0796
27148W        W43042   7.318  10.387  16.974 -0.0479 -0.0674  0.1643
27149W        W43043  10.016   6.902  16.875 -0.0711  0.2611  0.0433
27150W        W43044  15.408   4.614  15.883 -0.0902  0.1040 -0.1635
27151W        W43045  16.649  17.192   6.242 -0.1163  0.1175 -0.1075
27152W        W43046  10.868  11.374   2.171  0.1326 -0.1719 -0.0709
27153W        W43047   3.390   0.076   0.717 -0.1593  0.2875  0.1349
27154W        W43048  13.904  16.826   2.720 -0.0231 -0.0892 -0.1114
27155W        W43049   9.401  14.284  11.317 -0.0237  0.1400 -0.0588
27156W        W43050   5.849  13.614   3.239 -0.1248  0.2066  0.1428
27157W        W43051  14.456  10.390  15.428 -0.0641  0.2865  0.0125
27158W        W43052   2.947  15.991   4.773  0.2087 -0.2875 -0.2128
27159W        W43053   4.161   0.170  15.507 -0.5884 -0.0268 -0.0793
27160W        W43054  10.251   9.748   1.521 -0.1120 -0.4234  0.0964
27161W        W43055   7.734   8.259   2.691  0.0498  0.1044 -0.0961
27162W        W43056   9.196   7.240  15.480 -0.0936 -0.1316 -0.0395
27163W        W43057   5.669  11.734  14.227  0.0081 -0.0104 -0.0398
27164W        W43058  14.319   9.961  13.272 -0.1788  0.2659 -0.3951
27165W        W43059   3.568   8.641   5.982  0.2439 -0.3662 -0.2467
27166W        W43060  16.050   2.578   1.267 -0.1305  0.0220 -0.3294
27167W        W43061   4.560  15.187   4.279  0.2328  0.1553  0.0711
27168W        W43062  14.081  11.525  11.635  0.2465  0.0871 -0.3234
27169W        W43063  12.088  15.627  12.075  0.1687  0.1478  0.0465
27170W        W43064  16.720  11.808  16.394  0.2776  0.1036 -0.0914
27171W        W43065   1.570   4.614   3.773 -0.0439  0.1675  0.1708
27172W        W43066   6.925   4.497   2.309  0.1156  0.1983 -0.2661
27173W        W43067   8.566   3.738   5.764  0.0089 -0.1468 -0.2881
27174W        W43068   0.253  15.859  14.926  0.2835  0.0984 -0.0107
27175W        W43069  11.959  16.408  12.388 -0.1143 -0.0292  0.0353
27176W        W43070  13.641   1.221   4.708 -0.0337 -0.0794 -0.1476
27177W        W43071   6.545   4.622   4.462 -0.0570 -0.2841  0.0069
27178W        W43072  13.878   8.922  11.782  0.1596  0.4297 -0.2074
27179W        W43073  10.167  10.627   1.743  0.0348 -0.0543 -0.0518
27180W        W43074   8.487   3.180   2.864 -0.0262  0.1327  0.0883
27181W        W43075   0.105   2.942   4.771  0.0122 -0.0004 -0.1164
27182W        W43076   3.809  11.914   4.038  0.1544 -0.0711 -0.3152
27183W        W43077   3.340   7.475   3.338  0.0004 -0.1202  0.0982
27184W        W43078   2.473  11.449   1.226 -0.3554 -0.2448  0.0112
27185W        W43079  15.517  13.442   3.654  0.0750  0.2160 -0.0528
27186W        W43080   4.283  13.588  16.071  0.0896 -0.0754 -0.0171
27187W        W43081  10.198  16.755  12.916  0.0103  0.1445  0.0845
27188W        W43082  11.928  10.612  14.431  0.1551  0.0952 -0.2514
27189W        W43083   0.768   8.990   2.500  0.0557 -0.0549  0.1252
27190W        W43084   6.238  11.493   4.474  0.0872 -0.1058 -0.4096
27191W        W43085  11.378   2.987  11.766 -0.0950  0.1569 -0.0954
27192W        W43086  10.842   2.831  16.503  0.3328 -0.1879  0.2527
27193W        W43087  13.960   2.313   3.509 -0.0247  0.1319 -0.1348
27194W        W43088  11.041   0.168   0.479 -0.0144  0.2335  0.1648
27195W        W43089  15.913   3.394  15.300  0.1458  0.2415 -0.0517
27196W        W43090   8.933   7.877   2.319 -0.2202 -0.0050  0.1286
27197W        W43091   5.277   3.543  15.245  0.0509  0.1262  0.3542
27198W        W43092  15.027   8.757  12.622  0.1631 -0.1695  0.2785
27199W        W43093   6.240   7.853   4.797 -0.1506  0.0830  0.0464
27200W        W43094   0.724   3.135   0.806  0.1077 -0.1783 -0.1870
27201W        W43095   8.951  13.570  14.887 -0.1627  0.4404 -0.1027
27202W        W43096   0.157   8.810  13.256 -0.1819  0.0930 -0.1484
27203W        W43097   4.654   3.709  14.757  0.1891 -0.1205  0.2077
27204W        W43098   2.530   3.223   0.526  0.0515 -0.1169  0.1409
27205W        W43099  15.734  11.540  15.110  0.1506  0.0339 -0.1037
27206W        W43100   5.288   4.547   3.737 -0.1449  0.0384 -0.0004
27207W        W43101   3.304   7.937   0.622  0.3449 -0.0179  0.0949
27208W        W43102   7.885   2.665   5.611 -0.1008  0.1487  0.2576
27209W        W43103   7.199   1.910  15.779 -0.1226 -0.3098 -0.0708
27210W        W43104  14.333  17.067  15.011  0.0422 -0.2277  0.2096
27211W        W43105   5.388  12.422  15.911  0.0219 -0.2975  0.0497
27212W        W43106  12.919   3.066  15.870 -0.0209  0.1922 -0.1670
27213W        W43107   8.320  17.490   4.632  0.0493 -0.0055  0.2002
27214W        W43108  12.219   4.465   1.590 -0.0842 -0.0084 -0.0061
27215W        W43109   4.688   5.675   4.238  0.1073 -0.0247 -0.1131
27216W        W43110   9.305  12.302  15.580  0.2448 -0.0476  0.1739
27217W        W43111  12.845   6.620   2.908  0.1181 -0.1346  0.0401
27218W        W43112   2.189   1.566   2.749  0.1797  0.0532 -0.2051
27219W        W43113   3.507  10.523  17.060  0.1229  0.1309  0.0332
27220W        W43114   8.177  17.611  13.336 -0.2612  0.2000  0.0045
27221W        W43115   4.331  15.683   3.496 -0.3865 -0.1910  0.0944
27222W        W43116   8.191  13.053  15.238 -0.0277 -0.0108 -0.1006
27223W        W43117  15.287  11.334   2.354 -0.3035 -0.2121  0.0016
27224W        W43118  10.944  11.955   2.122  0.1879 -0.1067  0.0483
27225W        W43119   2.993   1.324  16.006 -0.0555  0.1677 -0.2912
27226W        W43120   4.859   2.429   4.428 -0.1225  0.1708  0.2489
27227W        W43121   2.597   6.909  14.238  0.5103 -0.0049  0.0239
27228W        W43122  15.043  11.396   0.096  0.0429 -0.1300  0.1773
27229W        W43123  13.590   3.058   3.095 -0.2119  0.1098  0.0379
27230W        W43124  14.847   2.918  15.884  0.0557  0.1934 -0.0363
27231W        W43125  13.713   2.862  16.114 -0.0211 -0.1661  0.0149
27232W        W43126   6.549  12.442   1.467  0.2388  0.1062 -0.1894
27233W        W43127  10.001   6.234  13.965  0.4868 -0.2645  0.0482
27234W        W43128  16.419   6.729   5.389 -0.1317 -0.3889  0.1705
27235W        W43129  12.340   8.703  13.937  0.2579 -0.2602 -0.2963
27236W        W43130   2.346   1.428  11.424  0.2796 -0.0110  0.0609
27237W        W43131  11.043   9.493  16.147 -0.1509  0.1432  0.0419
27238W        W43132   1.101  14.800  14.157 -0.2694  0.2229  0.0012
27239W        W43133  15.146  17.457  11.743  0.0760  0.2188  0.0694
27240W        W43134   4.746  10.111  13.392  0.3224 -0.3429  0.1769
27241W        W43135   1.205  15.590  13.825  0.0192 -0.0958 -0.3261
27242W        W43136  11.658   0.008   2.216  0.1339  0.0668  0.0503
27243W        W43137   1.963   9.946   3.417  0.1563 -0.2300 -0.1862
27244W        W43138  11.970  10.837   5.469  0.3056 -0.0336 -0.3319
27245W        W43139  10.214  10.207  14.726 -0.0819  0.1638 -0.2991
27246W        W43140  12.782   0.799  12.294 -0.0632  0.1087  0.1197
27247W        W43141  12.189   0.097  15.668 -0.1887  0.0841  0.0861
27248W        W43142   2.535  12.831   4.341 -0.0530  0.0144 -0.0455
27249W        W43143   6.876  11.674   2.773  0.0582 -0.2557 -0.1983
27250W        W43144   7.357  15.320  15.775  0.1299 -0.3424 -0.0741
27251W        W43145  11.322  14.262  12.071  0.2393 -0.2914 -0.0222
27252W        W43146   0.971   7.022  16.285  0.1375 -0.0231 -0.2544
27253W        W43147   0.192  13.601   2.043 -0.1000 -0.2041  0.2313
27254W        W43148  16.399   7.246  12.818  0.1091  0.3561 -0.2691
27255W        W43149   7.781   7.359   3.527  0.0458  0.0000 -0.0559
27256W        W43150  13.584   5.513   5.116  0.1305  0.0122 -0.1106
27257W        W43151  11.483   1.429   1.718  0.2120 -0.1819  0.0043
27258W        W43152  15.517   3.183  15.121 -0.0865 -0.1303 -0.1888
27259W        W43153   2.686   1.864   2.925  0.1044  0.0396  0.2250
27260W        W43154   4.365   6.505   5.876 -0.0693  0.1054 -0.1355
27261W        W43155   3.825   2.914   4.048 -0.2420  0.0291 -0.0796
27262W        W43156  11.958  12.005   1.133  0.1341 -0.2586  0.2273
27263W        W43157   0.725  15.624   5.035  0.0486 -0.0256  0.0270
27264W        W43158  15.590  10.823  15.364  0.2131 -0.1334 -0.0787
27265W        W43159   0.198   1.310   1.643  0.0013 -0.3140 -0.0428
27266W        W43160   6.811  15.309  12.629  0.0100 -0.1679  0.2844
27267W        W43161  13.719  17.060  14.435  0.0408  0.2749 -0.2249
27268W        W43162   4.949   3.085  16.523 -0.0377 -0.2076  0.1013
27269W        W43163  15.469  17.402  16.887 -0.1790 -0.0207 -0.0955
27270W        W43164   7.640   5.203   2.410  0.1452 -0.1088  0.2147
27271W        W43165  11.833  10.736  11.952  0.2033  0.1520 -0.0087
27272W        W43166  11.737   0.645   2.953  0.2428 -0.2575  0.2037
27273W        W43167   4.487   0.319  15.843 -0.0438 -0.0420  0.1971
27274W        W43168   1.493   5.613  13.934  0.0344 -0.0219  0.2065
27275W        W43169   5.116   7.472   4.371  0.2668 -0.1132  0.0184
27276W        W43170  10.871   4.689  16.118  0.2436  0.1949 -0.2097
27277W        W43171  16.570   6.658  15.605 -0.2200 -0.1824  0.1138
27278W        W43172  10.368   2.266  13.314 -0.3238 -0.1339  0.1516
27279W        W43173   2.122   1.039  15.921  0.1335 -0.1906  0.0826
27280W        W43174   3.909  11.241  14.159  0.1843  0.2397 -0.1687
27281W        W43175  13.322   0.274   2.082 -0.1096  0.2160  0.2783
27282W        W43176   1.880   6.677  16.479  0.1630 -0.2390  0.1881
27283W        W43177  10.439  14.198   0.441  0.0482 -0.1819 -0.0949
27284W        W43178   0.368   9.095   1.632  0.1420 -0.0971  0.0167
27285W        W43179  11.271  16.783  15.204 -0.0220 -0.1711 -0.2735
27286W        W43180  11.171   9.155   2.390  0.0514  0.2172  0.3359
27287W        W43181  11.613  13.411   5.215  0.1532  0.2815 -0.4289
27288W        W43182   4.347   7.292  15.689 -0.1735 -0.2481  0.1639
27289W        W43183  12.824   4.143  14.879 -0.0804  0.2159  0.0642
27290W        W43184   8.354   1.971   3.174  0.1321  0.0333  0.2610
27291W        W43185   0.416   3.224   5.577 -0.4599  0.4807 -0.0876
27292W        W43186  16.996   2.649   2.098  0.1934 -0.0422  0.3652
27293W        W43187   6.495   6.960  12.651 -0.2738  0.1853  0.2710
27294W        W43188  17.480   1.092  15.806 -0.0542 -0.2151  0.2083
27295W        W43189  10.801   3.516  16.849 -0.2425  0.1731  0.0959
27296W        W43190  10.431   6.126   1.448  0.0680 -0.2097 -0.2442
27297W        W43191  11.587   8.251   3.734 -0.2329  0.0090 -0.0151
27298W        W43192   9.719  16.449   3.953 -0.2356 -0.0822  0.0063
27299W        W43193   6.898   5.550  12.377  0.0719 -0.1725 -0.1060
27300W        W43194   7.152   1.141   1.424  0.1091 -0.2506 -0.1412
27301W        W43195   2.046   6.618   0.673 -0.0199 -0.0587  0.0638
27302W        W43196  17.246   5.156   5.932  0.2137 -0.0666 -0.1513
27303W        W43197   6.644  16.398   3.417  0.2839 -0.1267 -0.0546
27304W        W43198   3.500   4.212  16.242  0.2221  0.0799  0.0833
27305W        W43199  11.137  17.194   4.666  0.2296 -0.2315 -0.1611
27306W        W43200   3.100   7.440  12.829  0.5301  0.1201  0.1126
27307W        W43201   8.626   0.833  14.488 -0.0991  0.3868  0.1925
27308W        W43202  15.094   6.881  11.966  0.0668  0.1682 -0.1291
27309W        W43203   9.717   3.106  15.926 -0.2179 -0.0625  0.2595
27310W        W43204  10.618  13.340  11.618  0.1157  0.1717 -0.1497
27311W        W43205  11.194   3.191   1.102 -0.0651 -0.0523 -0.2606
27312W        W43206   2.491   5.689  15.397 -0.1618  0.0218  0.3159
27313W        W43207  16.917  17.578  14.247 -0.0488 -0.0443 -0.0887
27314W        W43208  10.735   9.215   2.641  0.2228  0.0191 -0.0322
27315W        W43209  13.761   9.836   3.370  0.2160  0.1261  0.1738
27316W        W43210  11.444   7.105  11.942  0.2185  0.1349  0.1208
27317W        W43211   6.684  16.293  17.150  0.0467 -0.1977  0.3337
27318W        W43212  13.701  11.262   5.837 -0.3503 -0.0120 -0.0259
27319W        W43213   7.083  11.408  17.122 -0.3105  0.0591 -0.0593
27320W        W43214  11.376   2.894  16.594 -0.0085  0.1154 -0.3016
27321W        W43215   2.890   2.707   4.948  0.0647 -0.0390  0.1244
27322W        W43216  13.981   1.288   2.246  0.1476  0.0263  0.3876
27323W        W43217   5.377   6.542   5.717  0.3577  0.0138  0.1887
27324W        W43218   4.675  13.727   4.567 -0.2510  0.1045  0.4221
27325W        W43219   9.961  16.187  13.249 -0.2686 -0.0949  0.4092
27326W        W43220  11.474  13.869   2.833  0.1033 -0.0216  0.2755
27327W        W43221   2.806  14.843  15.791 -0.3722  0.2246 -0.1425
27328W        W43222  16.927   6.730  13.941  0.0220 -0.0990 -0.2354
27329W        W43223  12.826  15.400   4.007  0.2513  0.1651  0.1309
27330W        W43224  11.363  16.843  16.821  0.1564 -0.1553 -0.2395
27331W        W43225   4.681   0.419  13.624  0.0403 -0.0095 -0.2284
27332W        W43226  13.690  12.723   2.585  0.2365  0.2078  0.1679
27333W        W43227   9.279   2.411  16.473  0.0476 -0.3712  0.3854
27334W        W43228   5.321   8.117  13.474 -0.0758  0.2005 -0.1522
27335W        W43229   2.929   4.346   6.143 -0.1499  0.0599 -0.2018
27336W        W43230   6.237   4.071   1.391  0.0002  0.0109 -0.1485
27337W        W43231   7.193   8.940   2.738  0.1512  0.0242  0.0089
27338W        W43232   2.978   7.042   0.592  0.0276 -0.1242  0.4212
27339W        W43233  15.607  12.639  15.686  0.2319 -0.0132 -0.0224
27340W        W43234  15.443   8.578   4.765 -0.1773  0.2219  0.0364
27341W        W43235  11.215   4.371  13.037  0.1355 -0.1186  0.0610
27342W        W43236   8.974   7.888   3.835 -0.0542 -0.0184 -0.2493
27343W        W43237  13.405  13.988   1.407  0.1947 -0.1810 -0.0019
27344W        W43238   8.445   6.647   1.709  0.1383  0.2378  0.0398
27345W        W43239   1.123   5.342  12.395 -0.0446 -0.0408  0.3050
27346W        W43240  11.420   7.187   0.155  0.0513  0.3044  0.0961
27347W        W43241  10.136  13.016   2.377  0.1331  0.1946  0.5402
27348W        W43242   8.606   7.453   1.016 -0.0352 -0.3931 -0.0022
27349W        W43243  14.778   7.427  12.872 -0.0638 -0.0258 -0.1677
27350W        W43244  14.225   5.621  16.558  0.1457 -0.1446  0.1876
27351W        W43245   5.885   7.615   5.688  0.1179 -0.3015 -0.0633
27352W        W43246  16.134   8.098   1.878  0.1170 -0.3867 -0.0537
27353W        W43247   3.025   8.670  14.188  0.1505  0.2568  0.1488
27354W        W43248   7.199   7.487  12.373  0.7380 -0.1191 -0.0211
27355W        W43249   9.911  10.202  12.083 -0.0250 -0.1748  0.1813
27356W        W43250  17.499  14.503   5.901 -0.0164  0.1041  0.1923
27357W        W43251   8.532  13.251   1.181 -0.0361  0.1932  0.1772
27358W        W43252  11.588   6.422  13.244  0.0988 -0.2495  0.4892
27359W        W43253   8.854   2.181  16.545  0.2531 -0.1944  0.0281
27360W        W43254  14.608  15.400  14.397 -0.1404 -0.2181  0.3788
27361W        W43255   9.317   4.883   1.881 -0.0567 -0.1514  0.2632
27362W        W43256   8.103  11.897   0.904  0.0411 -0.1861  0.1627
27363W        W43257  13.537   8.089  16.602  0.0124 -0.0488 -0.4956
27364W        W43258  17.338  14.876  11.297 -0.0282  0.3587 -0.1641
27365W        W43259   7.938   3.199   6.308 -0.1553  0.0839 -0.0931
27366W        W43260   5.602   4.316   4.874  0.0876 -0.0146 -0.3008
27367W        W43261   1.673  14.289   5.820  0.3961  0.0220 -0.0785
27368W        W43262   3.488   8.894   0.492  0.0458 -0.3328  0.0608
27369W        W43263   7.032   8.923   5.957 -0.0986  0.1381  0.1569
27370W        W43264  11.661   5.870   1.013  0.0685  0.0023 -0.1607
27371W        W43265  12.826   1.841   2.436  0.3313 -0.0628  0.0875
27372W        W43266   8.968  16.725   1.086 -0.1703  0.2070  0.0380
27373W        W43267   1.003   9.053  15.092 -0.0972 -0.1644 -0.0450
27374W        W43268   0.094  12.552   1.717  0.1401 -0.2951  0.0783
27375W        W43269   1.165   1.366   2.222  0.2336  0.1495  0.4182
27376W        W43270   5.220  17.267   1.026 -0.0922 -0.3946 -0.2547
27377W        W43271  11.225   1.568   2.270  0.0837  0.2213 -0.1499
27378W        W43272   7.034  14.954   3.131  0.1720 -0.4125 -0.2138
27379W        W43273   8.891  16.370   0.638  0.1330  0.0603  0.1150
27380W        W43274  11.334   8.488  13.140 -0.1705 -0.0620 -0.0818
27381W        W43275   8.339   7.749  12.461  0.0561 -0.0412 -0.0820
27382W        W43276   8.513   1.347  16.292 -0.1231 -0.3190 -0.1790
27383W        W43277  15.775  11.683   6.373 -0.0470 -0.0152  0.2339
27384W        W43278   5.974   6.112  13.480 -0.0919 -0.0693  0.0353
27385W        W43279  17.033   2.778  16.648 -0.3234  0.2105 -0.1491
27386W        W43280  17.001   6.454   1.700 -0.1551  0.0716  0.1015
27387W        W43281  11.505   6.046  11.142  0.2629  0.2620 -0.0492
27388W        W43282  14.412  12.571   0.621  0.0372  0.2227 -0.1079
27389W        W43283  10.277   4.860   0.197  0.2695 -0.0180  0.0110
27390W        W43284   6.844  14.588   0.949  0.0914  0.1116 -0.3457
27391W        W43285   0.084   2.903   3.346 -0.0705  0.0943  0.1605
27392W        W43286   8.062  12.935  16.676  0.0227  0.1240  0.0450
27393W        W43287   4.236   1.034   2.809  0.2196  0.0777  0.1639
27394W        W43288  15.191  16.809  14.872 -0.0388 -0.2311  0.1289
27395W        W43289   7.520  11.918  16.059  0.1120  0.1364 -0.1873
27396W        W43290  11.501  10.750   3.384 -0.0016 -0.0960 -0.3352
27397W        W43291   1.092   9.575   1.874  0.1503 -0.3293 -0.0369
27398W        W43292   3.962  12.714  15.683  0.1066  0.1007 -0.1406
27399W        W43293   0.035   8.597   1.197 -0.0782  0.1483  0.0647
27400W        W43294   9.284  15.546  13.170  0.1231 -0.1012 -0.0921
27401W        W43295   6.533   0.403   4.575  0.1893 -0.0939 -0.1729
27402W        W43296   9.685   4.997  13.995  0.1906  0.1689  0.1188
27403W        W43297  14.905  13.965   4.666 -0.2967 -0.0523 -0.0577
27404W        W43298   4.882  14.931   3.468  0.2189 -0.1116 -0.2581
27405W        W43299   6.611  15.503  14.045 -0.2027 -0.2586 -0.3589
27406W        W43300   8.901   7.669  15.628  0.0507  0.3175  0.2844
27407W        W43301   2.908  15.669   2.731 -0.2409  0.2146  0.0504
27408W        W43302   4.119  17.239  13.170 -0.2725  0.1974 -0.2483
27409W        W43303   8.526  16.670   0.819 -0.1230 -0.2099  0.1155
27410W        W43304   2.820  14.735  16.265 -0.1030  0.1778 -0.0679
27411W        W43305   0.318   6.056   4.750  0.0228  0.0209 -0.1057
27412W        W43306   2.484  16.579  13.873 -0.1286  0.0912  0.1465
27413W        W43307  17.096  14.772  12.708  0.0492 -0.0069  0.3581
27414W        W43308   2.246  12.233   5.596  0.2615  0.0253 -0.0005
27415W        W43309   4.425   5.804  16.684 -0.0089  0.2959 -0.0596
27416W        W43310  10.917  13.495   2.743  0.0850 -0.0171 -0.2798
27417W        W43311   6.852   6.805   3.482  0.0259 -0.1652 -0.0590
27418W        W43312   9.680   2.340   2.817 -0.1634 -0.1829 -0.0899
27419W        W43313   5.683   2.162   1.910 -0.1233 -0.0911 -0.3948
27420W        W43314  12.830  11.785  12.077  0.0197  0.2035 -0.3366
27421W        W43315  12.311  11.470  16.589  0.3939  0.2200  0.0597
27422W        W43316   0.614  16.188  15.568  0.0743  0.0705 -0.1271
27423W        W43317   0.856   3.054  16.431  0.0395 -0.1539 -0.0103
27424W        W43318   1.268   5.286  16.183  0.1105  0.1260 -0.2723
27425W        W43319  17.294  17.491  12.511 -0.2374  0.2242 -0.0292
27426W        W43320  12.385  15.961   2.095 -0.3767 -0.0821  0.0932
27427W        W43321   0.047   4.542  16.875 -0.0177  0.1365  0.3648
27428W        W43322  10.893   1.482  15.821 -0.1061 -0.3502  0.0858
27429W        W43323  14.616  16.886   2.644  0.4088 -0.0975  0.0976
27430W        W43324   5.051  11.015   0.825  0.1230  0.1617 -0.1554
27431W        W43325   8.673  16.026  16.401 -0.0431 -0.1296 -0.2650
27432W        W43326  14.940  14.173  16.469 -0.0034 -0.1101 -0.2105
27433W        W43327   8.970  10.989  11.850  0.0555 -0.4024 -0.0482
27434W        W43328  14.944   8.157   1.052  0.0542 -0.2509 -0.1106
27435W        W43329   6.426   5.205   5.449 -0.0654 -0.0504 -0.3022
27436W        W43330   9.527   1.785   0.996  0.2684 -0.1240 -0.4535
27437W        W43331   9.314  13.385   5.771 -0.0069  0.1288  0.2038
27438W        W43332  11.107   0.326  13.142 -0.1950  0.0230 -0.2249
27439W        W43333   7.120  17.066  16.882  0.0542 -0.0903  0.0318
27440W        W43334   8.611  15.233   5.169  0.0385 -0.1317 -0.1510
27441W        W43335   9.601  16.460   4.837 -0.0017 -0.0997 -0.1758
27442W        W43336   9.265   8.293   5.432  0.0448  0.2008 -0.3474
27443W        W43337   0.495   7.087  14.704 -0.0605  0.0015 -0.1156
27444W        W43338   6.171   4.407  15.536 -0.1239  0.0297 -0.0580
27445W        W43339   1.394   8.591  15.513  0.0004  0.0591  0.1226
27446W        W43340  14.937   8.551   4.040  0.1107 -0.0875 -0.0580
27447W        W43341  14.318   5.085  15.727 -0.2492  0.1162  0.0050
27448W        W43342   6.340   8.420   3.918 -0.0649  0.0838 -0.0586
27449W        W43343  10.318   9.685  15.552  0.2733 -0.3191 -0.0926
27450W        W43344  14.483   5.872   4.007  0.2166  0.2566  0.2854
27451W        W43345  12.790   7.834   1.188  0.2599 -0.0249 -0.0263
27452W        W43346   0.970   4.208  13.056 -0.1721 -0.0445  0.1013
27453W        W43347   3.208   5.743  16.132 -0.1356 -0.0114  0.2719
27454W        W43348   9.822   5.703  14.681 -0.0367 -0.0762  0.1000
27455W        W43349  15.215  13.224   2.329  0.1812  0.1364 -0.2514
27456W        W43350   1.023  15.133  12.395 -0.2949 -0.1206  0.1624
27457W        W43351  17.059  10.742   3.632 -0.1101 -0.1075  0.1559
27458W        W43352   2.357   9.527   5.963 -0.1068 -0.1086  0.0332
27459W        W43353  10.574  14.420  15.172  0.3125 -0.0023  0.0696
27460W        W43354  15.497  12.005  12.932 -0.0509 -0.1734  0.0941
27461W        W43355   8.973   8.028   2.847 -0.0304  0.0801  0.0352
27462W        W43356   5.692   4.424  15.436  0.1747 -0.0731 -0.1355
27463W        W43357  12.050   2.174   2.023 -0.1448  0.0155 -0.0733
27464W        W43358   1.275  11.491   0.745 -0.2395  0.1546 -0.1073
27465W        W43359  14.056   2.005  12.782  0.1471 -0.2026 -0.0798
27466W        W43360  10.233   5.115  16.488 -0.0701  0.1360  0.1487
27467W        W43361   9.562  17.426  13.968  0.1325 -0.0891 -0.3616
27468W        W43362   6.952  16.893  16.325 -0.1569 -0.2363  0.4282
27469W        W43363   1.806  14.465   3.766  0.0339 -0.0052 -0.1980
27470W        W43364   6.225  15.755   1.016  0.1977  0.1231  0.0745
27471W        W43365  15.199   0.013   2.048 -0.0461  0.0021 -0.2409
27472W        W43366  11.753   8.817   5.356  0.2350 -0.0334  0.3424
27473W        W43367   2.282  15.150  12.037 -0.0659  0.3497 -0.1619
27474W        W43368  12.079   5.842  14.647 -0.0809  0.4343  0.1229
27475W        W43369   4.600   1.891  16.325  0.1687  0.0419  0.2423
27476W        W43370  12.030   8.085   3.353 -0.2420 -0.2723  0.0832
27477W        W43371  16.582   0.607   2.066  0.1430  0.1009  0.2065
27478W        W43372   9.892  11.586   2.925  0.0548 -0.1448 -0.0299
27479W        W43373   2.066  12.078  16.684 -0.0156 -0.1621  0.3065
27480W        W43374  10.394   3.470   5.328 -0.1794 -0.0158 -0.0394
27481W        W43375  15.238   5.408   0.236  0.1799 -0.0244 -0.0853
27482W        W43376   1.110  11.511   6.080 -0.1271 -0.1148 -0.0021
27483W        W43377  16.126   3.660  11.764  0.4199  0.0242 -0.2041
27484W        W43378  11.014  16.641  14.343 -0.3955 -0.4009  0.1588
27485W        W43379   3.827  13.371   2.043 -0.0537 -0.2334  0.1932
27486W        W43380  11.098  12.726  13.085  0.1657  0.0157 -0.1003
27487W        W43381   4.753   1.901   4.556 -0.1127  0.2265 -0.0070
27488W        W43382   5.140   9.204   5.487 -0.2726 -0.1505 -0.0598
27489W        W43383   3.549   4.747   1.554 -0.3081  0.2789 -0.4364
27490W        W43384   6.945  15.464   6.152 -0.0483 -0.0726  0.1173
27491W        W43385   6.638  15.047   6.309  0.0050 -0.1586  0.2316
27492W        W43386   5.782   2.961  13.075 -0.0866 -0.0933 -0.0622
27493W        W43387   3.735   2.385   0.168  0.5633 -0.2419  0.1410
27494W        W43388  15.163  16.505  12.261 -0.0016 -0.1205  0.1893
27495W        W43389   0.988   3.325  16.004 -0.0882 -0.1108 -0.1021
27496W        W43390   3.519  14.413  14.506  0.0957  0.0624 -0.1421
27497W        W43391   1.535  10.413   3.809 -0.4236 -0.1755 -0.0531
27498W        W43392   8.250   2.765  12.476 -0.0991 -0.2261  0.2588
27499W        W43393   2.341   7.081   1.306 -0.1449  0.1175 -0.1085
27500W        W43394   5.618  14.585   0.468 -0.3311  0.0177  0.1737
27501W        W43395   5.058  12.587  12.150  0.3333 -0.1121 -0.0054
27502W        W43396   9.817  13.008  15.066 -0.1702 -0.0062  0.1252
27503W        W43397  10.338   2.129   0.537  0.2469  0.0817 -0.1423
27504W        W43398   8.997  12.524   2.394  0.0296  0.0646 -0.1482
27505W        W43399  13.876  16.587  13.347  0.1261 -0.2017  0.1419
27506W        W43400   4.536   2.723  15.670  0.1253  0.1857 -0.0237
27507W        W43401  14.107   9.438  14.548  0.0151  0.0354  0.0482
27508W        W43402  10.052   0.014   0.158  0.0816 -0.1532 -0.1873
27509W        W43403   5.020   1.316  15.225  0.0336  0.0642 -0.0482
27510W        W43404   7.366   5.907  13.275  0.1140 -0.0011  0.1094
27511W        W43405  12.318  12.633   1.802 -0.0265  0.1759 -0.0629
27512W        W43406   9.750   4.847  14.788 -0.1739 -0.0011  0.2936
27513W        W43407  15.276  17.213   4.423 -0.1033 -0.1214 -0.0606
27514W        W43408  12.875  10.265  13.482  0.0780 -0.0998 -0.1324
27515W        W43409  10.681   9.776  13.011  0.1261 -0.2703  0.0473
27516W        W43410  14.496  12.928  12.615 -0.1090  0.0471  0.2636
27517W        W43411  13.042  14.606   3.029 -0.2670 -0.0660  0.4439
27518W        W43412   4.363  17.568   4.363  0.0565 -0.3022 -0.1440
27519W        W43413   7.276  11.370  12.941 -0.0712  0.1559 -0.0916
27520W        W43414  11.536  10.492   1.557  0.1484 -0.0202  0.3207
27521W        W43415  12.745   9.027  13.852  0.2074  0.1172 -0.0696
27522W        W43416  10.950   2.531  12.534 -0.1822 -0.1081 -0.0294
27523W        W43417   2.053  11.958  14.475 -0.0854  0.3210  0.1747
27524W        W43418   4.237   0.267   5.666 -0.0518  0.0261 -0.2457
27525W        W43419   0.983  13.529   5.174  0.0450  0.2728 -0.1832
27526W        W43420  15.010  14.241   2.763 -0.1176 -0.2620  0.0240
27527W        W43421  11.309   7.380   5.339 -0.0869  0.0522  0.2380
27528W        W43422   0.664   3.690   5.121  0.2426  0.0535 -0.4630
27529W        W43423  10.289   1.591  11.870 -0.3539 -0.0487  0.0585
27530W        W43424  11.239  10.504   1.075 -0.1192 -0.0866 -0.2645
27531W        W43425   7.479  13.423  15.137  0.1410 -0.1319  0.0211
27532W        W43426   8.498   7.927   5.562  0.2282  0.3559 -0.0358
27533W        W43427  15.251   5.318  11.920 -0.1883  0.1954 -0.0698
27534W        W43428   4.367   2.940  11.920 -0.2364  0.0712  0.0371
27535W        W43429  17.637   1.484  16.644  0.1817  0.1169 -0.0914
27536W        W43430  13.570   1.993   3.403 -0.4605 -0.0265  0.1741
27537W        W43431   5.627  11.498   0.925  0.2638  0.0971 -0.2773
27538W        W43432  15.429  11.293   4.362  0.1383 -0.3582 -0.0636
27539W        W43433   6.739   8.195  14.892 -0.3080  0.2003 -0.0187
27540W        W43434   5.752  12.657  16.229 -0.1253  0.1160 -0.3232
27541W        W43435   9.978   8.884   3.517 -0.0326 -0.0874 -0.3336
27542W        W43436   5.256   1.505  10.660 -0.1648  0.1869  0.1830
27543W        W43437  15.470   0.920  14.544  0.0425  0.1540  0.1265
27544W        W43438   7.335   3.873   5.995  0.0197 -0.0851 -0.2607
27545W        W43439   9.357   4.586   4.615 -0.0080 -0.2005  0.0291
27546W        W43440   2.156   5.408   1.884  0.0918  0.2601 -0.0480
27547W        W43441  17.277   6.806   6.160  0.2413  0.0697 -0.1195
27548W        W43442   5.186  15.310  12.550  0.2584 -0.1490  0.2582
27549W        W43443  10.847   7.949  11.911  0.0220 -0.1024 -0.0433
27550W        W43444  10.963   8.720   5.477 -0.1417 -0.1511 -0.1975
27551W        W43445   6.201  16.679   2.789  0.1981  0.0728 -0.3210
27552W        W43446  13.469   6.558  11.433 -0.0046 -0.2659 -0.0348
27553W        W43447  13.551   6.132  11.687  0.1016  0.1477 -0.0895
27554W        W43448   5.540  17.042  16.616  0.1715  0.0871 -0.3778
27555W        W43449   6.480   1.158  14.486 -0.0993  0.0876  0.0023
27556W        W43450   8.091   7.858  15.320 -0.2338  0.0836 -0.2326
27557W        W43451  15.998  12.475  15.186 -0.1477 -0.0618 -0.2939
27558W        W43452   0.017   8.778   2.841  0.0247 -0.0672 -0.1911
27559W        W43453  16.270   1.786   3.599  0.2125  0.1674 -0.0220
27560W        W43454  17.350  17.422  13.630  0.0516  0.1669  0.1831
27561W        W43455   0.361  15.286   1.600  0.1786 -0.1324  0.0859
27562W        W43456   3.667   8.095  13.386 -0.3659 -0.0229  0.0404
27563W        W43457   2.011   2.786  15.174  0.1704  0.1927 -0.0667
27564W        W43458  16.704  10.778   1.977  0.0040 -0.0675  0.1034
27565W        W43459  14.416   5.203  14.132 -0.0499 -0.0418 -0.1359
27566W        W43460   5.906  17.190  12.926  0.1084  0.2504 -0.0386
27567W        W43461  15.638   6.914  12.247  0.2852  0.1505  0.2968
27568W        W43462   4.568   2.768  17.269  0.0034 -0.3239 -0.0017
27569W        W43463   0.519  11.250   3.156  0.3522  0.1847  0.3625
27570W        W43464  12.698   8.472   1.554 -0.2883 -0.0108 -0.0325
27571W        W43465   2.648   4.510  15.866 -0.1648  0.2884  0.1930
27572W        W43466  11.006  16.917   5.474  0.1043 -0.2844  0.0135
27573W        W43467   9.525  10.014   5.281  0.0419 -0.3272 -0.1381
27574W        W43468   4.421   3.712   4.292 -0.2170  0.0247 -0.0196
27575W        W43469  14.766  15.392  12.219  0.0866 -0.0203  0.1977
27576W        W43470   8.577   7.323   4.844  0.1553  0.0513  0.3462
27577W        W43471  15.163  11.818  17.086 -0.0135 -0.0784  0.2312
27578W        W43472   1.599   5.764   4.980  0.1285  0.0992 -0.0732
27579W        W43473   1.911  10.088  12.748 -0.0367 -0.1780  0.0496
27580W        W43474  15.363   6.719   1.030 -0.0610 -0.1233 -0.3553
27581W        W43475   4.739   6.972  15.966 -0.0419 -0.0557  0.3285
27582W        W43476  16.563  14.745  12.793  0.2976  0.1829  0.1802
27583W        W43477  10.834  13.808   4.146 -0.2602 -0.0207 -0.3255
27584W        W43478  15.261   6.123   1.340 -0.3223 -0.1547  0.1649
27585W        W43479  11.806   3.399   1.747  0.0413  0.0439 -0.0183
27586W        W43480   4.680  11.956   4.943  0.1955 -0.0583  0.2037
27587W        W43481   9.162   0.084   3.706 -0.4472  0.1299 -0.0195
27588W        W43482  13.687   8.801   4.124 -0.1822  0.0282 -0.0993
27589W        W43483  12.156  12.532  16.572  0.0354 -0.1867 -0.5137
27590W        W43484   1.926  15.572   0.726  0.1775  0.0221 -0.2472
27591W        W43485  11.442  11.897  14.001 -0.0635 -0.0202 -0.3877
27592W        W43486   9.094  13.164  11.602  0.0413  0.2155  0.0006
27593W        W43487  13.140  12.194   3.409  0.1318  0.0794  0.0711
27594W        W43488   6.437   9.254  13.011  0.1186  0.0683 -0.2046
27595W        W43489   5.138   6.369  15.978  0.0105 -0.0206  0.2072
27596W        W43490  15.063  10.489  13.981 -0.0916  0.0068 -0.0261
27597W        W43491  11.927  10.191   3.732  0.0725 -0.1835 -0.1409
27598W        W43492   8.093   2.524  12.080 -0.1900  0.2944  0.1312
27599W        W43493  16.631   0.018  11.831 -0.3384  0.0721  0.0466
27600W        W43494   2.155   1.447   1.182 -0.0048 -0.1694  0.4353
27601W        W43495  12.911   2.067   4.080  0.0142  0.2083  0.0475
27602W        W43496   1.146   0.944  16.301  0.2085  0.0119  0.0251
27603W        W43497   4.748   2.594   0.457  0.2787  0.1868 -0.2057
27604W        W43498   7.970  11.023  12.828  0.1659  0.2840 -0.1134
27605W        W43499  13.669   8.339   4.899  0.0498  0.1679 -0.1434
27606W        W43500  13.827   1.679  16.419  0.0538 -0.0408  0.0911
27607W        W43501   1.007   0.614  14.542 -0.1036 -0.1185 -0.2599
27608W        W43502   7.718   0.333  12.068  0.1548 -0.3408 -0.2672
27609W        W43503  11.224   8.997  13.165 -0.1022  0.0596  0.2121
27610W        W43504   6.746   1.830  11.945  0.0154 -0.1994 -0.0093
27611W        W43505  11.898   4.833  13.545  0.0195  0.0506  0.0137
27612W        W43506   7.097  15.727   1.392  0.0807  0.0117  0.0004
27613W        W43507  11.555   4.261  15.757  0.0143 -0.0318 -0.3859
27614W        W43508  11.318   1.089  16.132  0.2376 -0.0503 -0.0498
27615W        W43509  16.708  10.288   1.926  0.1381 -0.0314 -0.1455
27616W        W43510   0.236  10.748  14.824  0.1026 -0.1205  0.2589
27617W        W43511   9.913   4.007   2.863 -0.0670 -0.0825  0.2601
27618W        W43512   2.537  16.012  14.841  0.2743  0.1707  0.0888
27619W        W43513   4.302  14.002   2.655  0.0260  0.2979  0.0829
27620W        W43514   5.604   4.925   3.911  0.0597 -0.0697 -0.1067
27621W        W43515  10.195  16.733  13.941  0.2363  0.2016  0.1341
27622W        W43516   7.979   6.553   2.813  0.1707  0.2021 -0.2576
27623W        W43517  17.051  16.582  12.425  0.0793  0.0354  0.0236
27624W        W43518  14.781   9.659   1.605 -0.1470 -0.1384  0.2185
27625W        W43519   5.014   1.980  15.942 -0.0872  0.1604 -0.3083
27626W        W43520  16.907  10.958   3.165  0.2685  0.0921 -0.2374
27627W        W43521  14.783   0.920  15.949  0.1203  0.2593  0.1107
27628W        W43522   9.583   2.822  15.186 -0.1365 -0.0240 -0.2891
27629W        W43523  12.721   6.069  17.285 -0.1122  0.0026  0.0969
27630W        W43524  10.068  15.206   3.123 -0.0225  0.2226  0.0345
27631W        W43525   1.107  11.582   4.492 -0.1281  0.0187  0.1553
27632W        W43526   3.759   8.079  17.179  0.0200 -0.0810  0.0094
27633W        W43527   5.985   6.901  12.522  0.2149 -0.3701  0.2843
27634W        W43528   6.589  16.160  13.538  0.3814  0.2053 -0.0830
27635W        W43529   2.167  10.721  12.661  0.0087  0.1328  0.0969
27636W        W43530  15.592   1.016  15.029 -0.2234  0.2288 -0.2797
27637W        W43531   7.524  11.079  12.212 -0.1043  0.0412  0.2426
27638W        W43532  12.995   1.262  13.893  0.2238 -0.1167  0.0265
27639W        W43533  11.454   1.024  13.115 -0.1106 -0.0625 -0.2096
27640W        W43534   6.594   5.630   5.271  0.0308 -0.2580  0.0780
27641W        W43535   8.993   6.731   0.554  0.0436  0.0252 -0.0565
27642W        W43536  13.888   6.953  11.696  0.0277  0.2121  0.0056
27643W        W43537  11.520   0.445   3.606 -0.1442  0.1912 -0.0295
27644W        W43538   5.264  15.600   1.788 -0.1891  0.3239 -0.0091
27645W        W43539   0.381   4.588  15.346  0.1671 -0.0945 -0.1394
27646W        W43540  10.270  13.751   3.410 -0.0302 -0.1124 -0.0675
27647W        W43541   1.676   7.349   4.700  0.2591 -0.1348 -0.0507
27648W        W43542   7.117   1.862   6.180 -0.1095 -0.1855 -0.2715
27649W        W43543  13.997   5.712   4.096  0.0387 -0.3492 -0.3190
27650W        W43544   6.362  17.382   2.423 -0.1553  0.2213  0.0458
27651W        W43545   3.131   1.571   1.133 -0.0087  0.0595  0.1371
27652W        W43546   3.820   5.873   1.015  0.0630 -0.2516 -0.3537
27653W        W43547  12.246   3.815  14.077 -0.0135 -0.1712  0.1811
27654W        W43548  12.947   2.772  15.423 -0.0209  0.1331 -0.2054
27655W        W43549   9.222   9.967  15.504  0.3010 -0.2998 -0.2183
27656W        W43550  15.108  10.079  12.961  0.1720  0.3431 -0.0193
27657W        W43551   5.958  14.210   3.472  0.2442 -0.3398  0.3477
27658W        W43552   0.901   9.010   4.519 -0.0977 -0.1517 -0.3466
27659W        W43553   7.706   1.844   2.079  0.1192  0.0706  0.1369
27660W        W43554   1.082  14.291  16.944  0.0892 -0.1477 -0.0021
27661W        W43555  15.101  10.924   1.307  0.0148  0.0593 -0.1421
27662W        W43556   0.479  17.108   0.013  0.1587 -0.1346 -0.0792
27663W        W43557  10.197   6.996   1.356  0.4728 -0.3354 -0.0206
27664W        W43558   9.572   2.185   2.383  0.2622 -0.2587 -0.1816
27665W        W43559   0.396  10.888  13.928  0.2648  0.0130  0.1091
27666W        W43560   2.097   6.142  11.972 -0.0237  0.0648 -0.0370
27667W        W43561   4.817   7.437  15.873 -0.1555 -0.0491  0.0260
27668W        W43562  12.947   5.777   1.622 -0.0358  0.0195 -0.0104
27669W        W43563   0.027   7.207  14.521  0.1079  0.3874  0.1201
27670W        W43564  12.013   0.344  11.977 -0.1494 -0.1866  0.1412
27671W        W43565   5.374  12.990  15.920 -0.0201 -0.1563  0.0102
27672W        W43566   4.247   3.660   0.552  0.1522  0.1028 -0.0485
27673W        W43567   8.181   6.056  12.455  0.2518  0.1859  0.1474
27674W        W43568  16.175  13.938   2.904  0.0461 -0.3027  0.1363
27675W        W43569  11.087   2.211   5.410 -0.0824  0.0058  0.2536
27676W        W43570   1.438  13.910   0.909  0.1933 -0.3938  0.2118
27677W        W43571   9.442   6.943   0.537 -0.0776  0.0057  0.2313
27678W        W43572   6.555   0.655  13.413 -0.0317  0.1257  0.1153
27679W        W43573   4.559   3.799   5.602 -0.1322 -0.2175 -0.0843
27680W        W43574   5.891  11.323  13.555 -0.0850 -0.1059  0.1590
27681W        W43575  12.862   3.903  12.394 -0.1253  0.5105  0.1822
27682W        W43576  16.962  16.216  14.481 -0.1916 -0.1701 -0.0001
27683W        W43577  17.605  10.281  14.108  0.4094 -0.2582  0.0663
27684W        W43578  15.976  14.599   3.683  0.3934  0.1409 -0.1910
27685W        W43579   9.739   4.893   4.593  0.0589 -0.1550  0.0430
27686W        W43580  17.507   8.630  12.786  0.2188 -0.0469 -0.0252
27687W        W43581   6.747  16.662   2.112 -0.1598 -0.3686  0.1599
27688W        W43582  13.522   0.108   3.859  0.1117 -0.0786 -0.1445
27689W        W43583   5.807   7.000   1.737  0.2374  0.2309 -0.0158
27690W        W43584  11.925   9.049   0.069 -0.2445 -0.1115 -0.2343
27691W        W43585   0.941   6.785  12.824 -0.3605  0.1576 -0.0744
27692W        W43586   9.585  12.966  13.461 -0.1264  0.3826 -0.0089
27693W        W43587   8.029   6.864   4.056  0.0916  0.1460  0.1234
27694W        W43588   6.139  13.061  16.607 -0.1199 -0.2960  0.1177
27695W        W43589  10.914  17.425  16.523  0.0865  0.1067 -0.0264
27696W        W43590  17.312  15.011   0.166  0.1998  0.0444 -0.0530
27697W        W43591   0.459   2.321   4.451 -0.0651  0.0524 -0.4137
27698W        W43592  11.691  10.499   0.139  0.1451  0.0930 -0.0155
27699W        W43593   0.529   9.335  14.919 -0.1975 -0.0990 -0.2932
27700W        W43594  11.357  17.402  15.689 -0.0002  0.2420 -0.3633
27701W        W43595  13.950   0.788   2.850  0.3655 -0.1462  0.3029
27702W        W43596   9.795   4.245   0.223 -0.0243  0.3199 -0.0618
27703W        W43597   0.702   3.363  15.134 -0.2840  0.2621  0.2130
27704W        W43598   1.182   5.790  12.613 -0.0492  0.2662  0.0431
27705W        W43599  11.980  11.149   4.250 -0.0640 -0.1140 -0.1237
27706W        W43600   4.728  15.289  14.902 -0.0975  0.1585 -0.1429
27707W        W43601  13.505   5.968   0.852  0.0893 -0.2320  0.0321
27708W        W43602  13.816   5.013  15.763  0.0003  0.2982 -0.4548
27709W        W43603  16.773  11.986   1.512 -0.1700 -0.2599 -0.3255
27710W        W43604  17.215   6.404   5.423  0.3447 -0.2952 -0.0202
27711W        W43605  11.615   9.278  16.096  0.0139 -0.1721  0.3048
27712W        W43606   5.213   6.673  17.295 -0.1485 -0.2051  0.1545
27713W        W43607   8.099   9.515  16.880 -0.0424 -0.2250 -0.0904
27714W        W43608   7.038   9.650   3.618  0.0962  0.0942 -0.2048
27715W        W43609   3.491   7.670  12.412 -0.2744  0.1142  0.0277
27716W        W43610  12.640   4.848  12.616 -0.0233 -0.0681 -0.1723
27717W        W43611  15.038  17.143  16.836  0.2359 -0.0119  0.0658
27718W        W43612   5.246   3.616  15.751  0.5184 -0.0195 -0.4129
27719W        W43613   0.631  12.173   3.934 -0.1807 -0.1038 -0.1196
27720W        W43614   9.250  16.337   2.701 -0.2218 -0.2275  0.3586
27721W        W43615   9.700   8.537   0.953 -0.0290  0.1892 -0.0323
27722W        W43616   3.180   1.911   2.472  0.0654 -0.2138  0.1601
27723W        W43617  11.603  11.215   1.134 -0.2330  0.1206 -0.1473
27724W        W43618   5.886  10.812  13.637  0.1051  0.1876 -0.1608
27725W        W43619   9.099   9.176   4.297  0.1412  0.2400  0.2587
27726W        W43620   0.948  14.376  15.680 -0.1372  0.2203 -0.0729
27727W        W43621   2.661   1.646   2.445 -0.0397  0.0875 -0.2925
27728W        W43622  12.096  14.244  16.177  0.3812 -0.2032 -0.2579
27729W        W43623   9.703  10.858   5.444 -0.0604 -0.2107 -0.1837
27730W        W43624  16.916  10.387   4.259 -0.1569 -0.0015 -0.3607
27731W        W43625   1.929  15.839  14.208 -0.1001 -0.1582  0.1903
27732W        W43626   1.456   0.492  14.295 -0.1984  0.2557 -0.0885
27733W        W43627   4.208  12.301  11.868  0.0773  0.0693 -0.3062
27734W        W43628   2.904   7.257   1.593  0.1345  0.2785 -0.0357
27735W        W43629  15.084   5.777   5.211  0.0575 -0.0046  0.2899
27736W        W43630   1.733  13.643   1.236 -0.0171 -0.2844  0.2530
27737W        W43631  12.179  16.111  12.799 -0.2050 -0.0416 -0.1618
27738W        W43632  12.065   0.241  13.592  0.0891  0.0582  0.0465
27739W        W43633   7.551   7.316  13.280 -0.0670 -0.1560  0.3462
27740W        W43634   8.555   4.566   1.816 -0.1391  0.1468 -0.0310
27741W        W43635   5.595   7.374   2.042  0.1553  0.0186  0.0672
27742W        W43636  14.170  11.619   3.750  0.0298 -0.1820 -0.2343
27743W        W43637   3.191  12.038   0.581  0.0406  0.0871  0.0113
27744W        W43638   8.217   9.154  14.979 -0.3637 -0.1246  0.0512
27745W        W43639  11.229   2.449   4.908 -0.2222 -0.1142 -0.3390
27746W        W43640   3.690   6.995  16.750  0.0917 -0.0583  0.1103
27747W        W43641   0.763   6.601   0.122  0.0594  0.0671  0.2536
27748W        W43642   0.622  11.340  16.395  0.1851 -0.1717  0.0264
27749W        W43643  14.094  15.882  16.587  0.0106  0.1889  0.1885
27750W        W43644   8.787   5.693   5.326  0.1653  0.1074 -0.0546
27751W        W43645  12.213  14.971   5.587 -0.2261 -0.1136 -0.2601
27752W        W43646   6.418  13.964  15.134  0.1067 -0.0069  0.0571
27753W        W43647   4.902  11.462   2.298  0.1079  0.1810  0.3075
27754W        W43648  10.217   0.690   3.551  0.1777  0.0971  0.0669
27755W        W43649   0.149   6.244   2.388  0.1543  0.0654  0.0582
27756W        W43650  17.159  17.590  17.297 -0.1817  0.1579 -0.1817
27757W        W43651  11.021   6.872   3.407 -0.0478  0.1420 -0.1137
27758W        W43652   9.667   2.071  15.659  0.1442 -0.0208 -0.0515
27759W        W43653  15.652   8.984   1.823 -0.0579  0.2447  0.2363
27760W        W43654  15.134   7.494   6.159 -0.1634 -0.4165  0.0745
27761W        W43655  16.770   4.395  12.106 -0.1752  0.1430  0.0595
27762W        W43656  11.361   5.533  15.134  0.1921 -0.3038  0.1200
27763W        W43657   6.992  16.939   0.601 -0.0801 -0.3547  0.0885
27764W        W43658   4.606   9.758  11.974  0.2419  0.1429 -0.1510
27765W        W43659   1.446   8.829   4.665 -0.2526 -0.1178  0.0839
27766W        W43660   3.697  10.418   5.728  0.1111 -0.2192  0.2967
27767W        W43661  12.289   5.634  15.105  0.1105  0.1138 -0.0951
27768W        W43662   8.730   1.717  16.593  0.0893 -0.4613 -0.0321
27769W        W43663   4.306  11.702  16.618 -0.3379 -0.1193 -0.0090
27770W        W43664  12.245  15.701  14.749  0.0687  0.0201 -0.1315
27771W        W43665   4.956  14.492   3.299 -0.0527  0.2717 -0.0395
27772W        W43666   1.954   8.042  15.117 -0.0600 -0.1384  0.2682
27773W        W43667  16.631  12.477   1.562  0.1741 -0.0631  0.0107
27774W        W43668   1.071   4.603   2.539 -0.0410  0.2398 -0.1183
27775W        W43669  15.626  17.592   2.919 -0.1956  0.0950 -0.0364
27776W        W43670   0.710  17.236  12.658  0.0464 -0.0367 -0.0698
27777W        W43671  12.685   6.053  13.452 -0.0537 -0.0878 -0.1002
27778W        W43672  12.399   9.167   0.369  0.0767  0.0902 -0.1313
27779W        W43673  14.688  13.395   2.018 -0.0095 -0.0047  0.0112
27780W        W43674   2.948   5.434  15.178  0.1642  0.0834  0.2313
27781W        W43675  12.233  16.218   0.396 -0.1282  0.0070 -0.1140
27782W        W43676  14.794   5.341  12.455 -0.1782 -0.1669  0.1476
27783W        W43677   8.885   8.797   0.939 -0.1707 -0.0686 -0.1549
27784W        W43678   6.357  11.034  16.885 -0.1866  0.0580 -0.0410
27785W        W43679  13.296  12.157   1.633  0.0254 -0.3599  0.0003
27786W        W43680   7.437   0.287   5.037 -0.2762  0.1480 -0.0818
27787W        W43681  17.430   4.310  14.610 -0.1771 -0.4453 -0.2175
27788W        W43682   1.001   0.624  16.851 -0.0650 -0.0884 -0.1969
27789W        W43683   4.795   6.739   0.331 -0.1379 -0.1739 -0.0591
27790W        W43684   1.097  15.412   4.430  0.1802  0.2111  0.2130
27791W        W43685  14.370  16.216   3.721 -0.4518  0.0439 -0.2821
27792W        W43686  14.566  17.009   3.244  0.0698 -0.3058  0.0227
27793W        W43687   0.313   3.387   0.571 -0.3953  0.1622 -0.2264
27794W        W43688   3.655   8.515   0.137  0.0239 -0.1297 -0.0290
27795W        W43689   5.968   9.707  14.953 -0.2485  0.1504 -0.2908
27796W        W43690  12.088   4.090  16.196 -0.2708  0.2861  0.6589
27797W        W43691  14.417   8.104  11.561 -0.0648  0.2794 -0.3943
27798W        W43692   0.269  15.002   1.088 -0.1377  0.2188 -0.1623
27799W        W43693   7.137  14.462   2.909  0.0833 -0.3559  0.1514
27800W        W43694  10.205   1.839   1.681 -0.0873  0.1849 -0.3444
27801W        W43695   0.423  12.307  16.050 -0.1953 -0.3842  0.0303
27802W        W43696   9.762   7.960   2.227 -0.1071 -0.0565  0.3618
27803W        W43697   9.758   1.058  12.443  0.1678  0.0398 -0.1770
27804W        W43698   9.014  14.302   5.820  0.0323 -0.3395 -0.2198
27805W        W43699  12.432   6.941  16.958  0.3184  0.0009  0.1058
27806W        W43700   1.051   0.578   1.717  0.0485  0.1711 -0.1439
27807W        W43701   7.644   4.486  13.858 -0.1311 -0.0536 -0.0109
27808W        W43702   3.221  10.079  15.987 -0.1148  0.3563 -0.0694
27809W        W43703   3.730   5.413   3.763 -0.1470  0.1078  0.2092
27810W        W43704   1.330   8.333  16.355  0.3920  0.0092  0.3506
27811W        W43705  14.980   3.092   0.676  0.2677  0.1757  0.1289
27812W        W43706  16.576   9.150  15.957 -0.0105  0.1990 -0.0478
27813W        W43707   4.539   2.132   0.533  0.1050  0.0467  0.5626
27814W        W43708  14.903   2.889   5.783  0.1166 -0.0589 -0.1586
27815W        W43709   0.168  13.069   1.982 -0.0314 -0.2098 -0.0672
27816W        W43710  15.959   1.590  12.989  0.0173 -0.1058  0.0749
27817W        W43711  13.339   3.171   2.157 -0.0972 -0.0105  0.1532
27818W        W43712   1.317   7.827   6.173  0.1447 -0.2251  0.0392
27819W        W43713  15.770  16.773   4.038  0.0650 -0.2472 -0.2064
27820W        W43714   5.766   1.813   3.894 -0.0004 -0.1329 -0.1964
27821W        W43715  11.363   7.623  17.277 -0.1805  0.0552 -0.0330
27822W        W43716   8.351   5.592  13.695  0.0933  0.0613  0.0176
27823W        W43717   9.424  11.393  11.741  0.2329 -0.0412  0.0723
27824W        W43718   2.097   4.855  16.155 -0.1343 -0.0970 -0.0080
27825W        W43719   8.206   8.592  11.579 -0.1174  0.2308 -0.1016
27826W        W43720   1.664   8.004  17.023 -0.1982 -0.1979 -0.2814
27827W        W43721   9.259   4.167  15.423 -0.1992 -0.0381 -0.1386
27828W        W43722  16.624   6.331   0.654  0.0657  0.0004 -0.3282
27829W        W43723   2.511  14.653   0.981  0.2415  0.0747  0.0473
27830W        W43724  14.289   2.835   0.189 -0.2992 -0.2903 -0.0480
27831W        W43725  12.473   9.249   2.930 -0.1598 -0.0942  0.0352
27832W        W43726  17.203   9.367   2.177  0.0301 -0.1241 -0.2133
27833W        W43727   3.155  12.260   1.014 -0.0532  0.0003 -0.3341
27834W        W43728   4.250  15.885  12.970 -0.0016 -0.1207  0.0779
27835W        W43729   0.780   8.299   2.336 -0.1030  0.1070  0.0653
27836W        W43730   9.188  17.459  14.781 -0.1408 -0.0888 -0.0692
27837W        W43731   7.405  10.353  14.451  0.0029 -0.1544 -0.2072
27838W        W43732  17.375  17.524  14.077  0.0420 -0.0855  0.2865
27839W        W43733  14.404   7.404  13.258  0.1938 -0.0222  0.1476
27840W        W43734  10.692  10.624   0.237  0.0337  0.0652  0.0683
27841W        W43735   8.641   6.399  14.087 -0.0883 -0.1804 -0.1467
27842W        W43736  14.645   0.596   5.205  0.2919  0.1865 -0.1021
27843W        W43737   4.344   3.721  12.397 -0.1463  0.1657 -0.0316
27844W        W43738  12.231   6.693  13.766 -0.0845  0.1396  0.1272
27845W        W43739  16.330   1.379  12.683  0.0687 -0.1290 -0.2346
27846W        W43740   0.237  11.298  13.644 -0.2742  0.1020 -0.1127
27847W        W43741   7.633   2.305   0.395 -0.0535  0.2189  0.3973
27848W        W43742   0.404   8.896   0.398 -0.1724 -0.0425  0.3249
27849W        W43743  12.464   8.918   1.281  0.0845  0.1635  0.0404
27850W        W43744   4.380   5.264   3.062  0.2118  0.1859  0.2397
27851W        W43745   7.970  10.815  12.333 -0.1075  0.0436 -0.1505
27852W        W43746   8.326  11.316   3.961  0.3254 -0.3369  0.3959
27853W        W43747   8.920   1.824   3.931 -0.1973 -0.1511 -0.0194
27854W        W43748   7.171   3.142   3.349  0.0366  0.0166 -0.5187
27855W        W43749  11.747  11.852  12.373 -0.0426 -0.0031 -0.0230
27856W        W43750   1.789   1.207   5.983  0.2276  0.1990 -0.0803
27857W        W43751   7.372   0.948  13.921 -0.0564  0.5467 -0.0604
27858W        W43752  11.378   1.539   5.816  0.0610 -0.1369  0.1114
27859W        W43753  10.326   5.482   1.775  0.2846 -0.0913  0.2044
27860W        W43754   2.280  16.874  17.225 -0.1002 -0.1548  0.0118
27861W        W43755  13.152   5.857  14.223 -0.3976  0.3610 -0.2485
27862W        W43756  17.275  11.368   4.543  0.1486  0.2866  0.2681
27863W        W43757   5.565   4.656   2.918  0.2720 -0.2028 -0.2618
27864W        W43758   7.002   7.431   6.213  0.1186  0.1506  0.3298
27865W        W43759  10.786  11.101  12.917  0.1268  0.0516  0.3912
27866W        W43760   3.737   7.266   4.632 -0.0511 -0.4419 -0.0526
27867W        W43761   8.963  12.339   5.397  0.1473  0.1214 -0.1691
27868W        W43762   7.302   5.059   1.935  0.0088  0.1349 -0.2420
27869W        W43763   2.780   4.505   0.335 -0.1375  0.2049 -0.1853
27870W        W43764   8.847  14.043  14.594  0.1893  0.2390 -0.4179
27871W        W43765  10.505  16.486   3.123  0.0207 -0.2937 -0.0297
27872W        W43766   4.871   8.657  12.818  0.1377 -0.0660  0.1154
27873W        W43767  15.988  17.480   3.331  0.1624  0.3463 -0.0319
27874W        W43768  12.679   0.133  14.801  0.0203  0.0239  0.4507
27875W        W43769  15.772   3.382   4.185  0.1501  0.2566 -0.2308
27876W        W43770   9.925   5.741  12.438 -0.1165 -0.0049 -0.0641
27877W        W43771   8.661  13.816  13.638 -0.0849 -0.0097  0.1492
27878W        W43772  16.570   3.873  17.296 -0.1740  0.0016 -0.0165
27879W        W43773   4.750  16.790   3.882  0.1778  0.1969 -0.1851
27880W        W43774  13.430  14.903  12.814  0.1312 -0.0551 -0.0538
27881W        W43775   0.433  16.969  14.032  0.2584 -0.0080  0.3548
27882W        W43776   3.349  11.258  15.371 -0.2368  0.0531 -0.2423
27883W        W43777  12.937  16.001  17.240  0.2862  0.0376 -0.1303
27884W        W43778  14.908   7.043   4.850  0.0933 -0.0926 -0.2715
27885W        W43779   7.743   9.452   2.163  0.0891 -0.1215  0.0533
27886W        W43780   9.450  16.040  13.004 -0.1985 -0.0465 -0.4375
27887W        W43781   7.784   9.166  13.059  0.2678 -0.2665 -0.0204
27888W        W43782   1.095   2.276   4.089 -0.4960 -0.1408 -0.0070
27889W        W43783   4.266   9.569   4.147  0.0376 -0.2042  0.0319
27890W        W43784  11.370   6.042   5.512  0.0854 -0.0696 -0.1245
27891W        W43785   3.398   3.003   3.760 -0.0015 -0.2152 -0.1510
27892W        W43786   3.486  10.223  12.665  0.1847 -0.0132 -0.1417
27893W        W43787   6.755  10.432   3.745  0.2008  0.0608  0.1675
27894W        W43788   3.994  10.951   1.350  0.1296 -0.4763 -0.0948
27895W        W43789  11.342  10.425   4.244  0.2337  0.0398 -0.0428
27896W        W43790   2.861   0.447   3.901  0.0114 -0.2546  0.2189
27897W        W43791   4.159   3.403  12.838 -0.1303 -0.0474 -0.0063
27898W        W43792  12.016   8.071  12.630  0.1953  0.1476 -0.1873
27899W        W43793   2.395   5.399   2.921 -0.1434  0.0869 -0.0115
27900W        W43794  11.730   3.013   4.305  0.2007 -0.0653 -0.2656
27901W        W43795  12.343  10.136  13.134  0.0635 -0.0715  0.0946
27902W        W43796  12.018  14.562  11.518 -0.0209 -0.1475 -0.0500
27903W        W43797  14.078   3.386   4.942  0.2741 -0.1313  0.0946
27904W        W43798  11.433   5.489   2.095  0.2040  0.3702  0.2934
27905W        W43799  16.900   1.144  11.948  0.1801  0.1987  0.0880
27906W        W43800  16.406   5.274   6.094  0.0060 -0.1458  0.1411
27907W        W43801   9.481   2.023  12.921  0.0450 -0.2803 -0.0480
27908W        W43802   6.485   6.608   5.294 -0.1891 -0.1336  0.1091
27909W        W43803   2.293  10.835   6.123 -0.1059  0.0644 -0.0435
27910W        W43804  14.697   8.948  15.724  0.0368  0.1641  0.3206
27911W        W43805  10.131   2.955   2.141 -0.1008  0.1891  0.0588
27912W        W43806   7.473  13.768  16.898 -0.0864  0.0468  0.0852
27913W        W43807   7.574  13.764   0.143  0.1565  0.3568  0.1309
27914W        W43808   1.375   1.729  12.606 -0.2507 -0.0326  0.1785
27915W        W43809  15.326   5.146   0.640  0.0071  0.0608 -0.1639
27916W        W43810  16.212  10.829  17.138  0.2253 -0.0286  0.0507
27917W        W43811   7.884  10.336   1.639  0.0112  0.2129  0.1217
27918W        W43812   1.835  15.123  11.686  0.1228 -0.1475  0.0694
27919W        W43813   9.610   9.450   2.959  0.0462  0.0845  0.2533
27920W        W43814   5.916  14.870  13.924 -0.2024  0.0893  0.0188
27921W        W43815  13.642   5.785  14.514  0.2062 -0.1474 -0.0971
27922W        W43816   4.942  12.221   5.464  0.1273 -0.1515  0.0018
27923W        W43817  11.338   2.600   2.399 -0.0771  0.4367 -0.1505
27924W        W43818  12.006   9.606  16.149 -0.1513 -0.0112 -0.1235
27925W        W43819   3.904   5.600   3.323 -0.0366  0.3166 -0.0934
27926W        W43820   2.412   3.644  14.210  0.1767  0.0898  0.2322
27927W        W43821   4.222   9.037   6.040 -0.1123 -0.1843  0.0114
27928W        W43822  10.465  13.383   0.204  0.1419  0.1179 -0.4978
27929W        W43823   2.463   6.143   4.172 -0.2740  0.2936 -0.0137
27930W        W43824   9.495   7.008  13.960 -0.1581 -0.0660 -0.1650
27931W        W43825   6.965  12.140   4.820 -0.1070  0.0031  0.0070
27932W        W43826   4.111  13.681   2.239  0.0327 -0.0335 -0.2374
27933W        W43827  10.600  15.611   4.122  0.1899  0.3994 -0.1063
27934W        W43828   1.246   2.770   3.223 -0.0383 -0.0537 -0.4192
27935W        W43829   3.795   0.849   2.508  0.1412 -0.1098  0.2641
27936W        W43830   0.081  14.421   0.910 -0.0989 -0.2221  0.2119
27937W        W43831   8.552   2.373   1.907 -0.1005  0.2818  0.0903
27938W        W43832   2.262   9.964  14.455  0.1946  0.0478  0.1967
27939W        W43833  12.476   5.567   4.483 -0.0115  0.0717 -0.0409
27940W        W43834   4.911   0.869   5.429  0.1398 -0.0381 -0.0041
27941W        W43835   9.007   6.795   1.410 -0.1990 -0.0665  0.1106
27942W        W43836  11.190   6.532   5.584  0.0055 -0.1706 -0.0316
27943W        W43837  14.484   9.882   0.706 -0.0490  0.1183  0.1097
27944W        W43838  17.025   5.511  17.065 -0.2280 -0.0562  0.0262
27945W        W43839  11.491  13.518  17.075  0.2151 -0.0351 -0.1106
27946W        W43840  11.390  14.112  15.845 -0.2787  0.0324  0.1269
27947W        W43841  12.795   6.178  15.000 -0.0993 -0.1728 -0.1714
27948W        W43842  15.121   8.947   5.720  0.1893  0.0327 -0.0853
27949W        W43843  17.460  17.045  15.043 -0.0698 -0.0037 -0.2444
27950W        W43844  17.602   3.201  13.304  0.1877  0.4180 -0.0932
27951W        W43845   7.900  11.070  11.782 -0.1182 -0.0158  0.1137
27952W        W43846   3.506   9.080  14.406 -0.0622 -0.0523  0.1060
27953W        W43847   0.942  13.037  14.987  0.0323  0.3860  0.2583
27954W        W43848   0.367   2.345  16.222 -0.1146  0.0994  0.0633
27955W        W43849  14.915   5.460   0.605  0.3186 -0.3035  0.1745
27956W        W43850  16.165   4.261  15.010 -0.0233 -0.3156  0.1003
27957W        W43851  17.360   3.605   2.295 -0.3705 -0.2445 -0.0907
27958W        W43852   8.438   9.083   1.129  0.2678  0.0121  0.0577
27959W        W43853   5.089   5.879  17.235  0.1259 -0.2223 -0.1706
27960W        W43854   5.334   3.354   3.021  0.0539 -0.3178 -0.0136
27961W        W43855   1.327  12.739  11.899 -0.0152  0.2864  0.0016
27962W        W43856  17.411  13.449   2.245 -0.1202  0.3278  0.2332
27963W        W43857  12.272   0.309   1.402  0.2149 -0.2318  0.2146
27964W        W43858   2.271  15.732  12.814  0.3434  0.0830 -0.0610
27965W        W43859   8.503  16.677   2.411  0.0454 -0.0543  0.0242
27966W        W43860  17.143  14.110   1.006  0.0656  0.0084  0.0030
27967W        W43861   9.712   2.243   1.048 -0.0230 -0.2783 -0.1484
27968W        W43862   8.473   3.904  12.070 -0.0099  0.0748 -0.2478
27969W        W43863  12.827  12.072   5.072  0.1225 -0.0341 -0.0389
27970W        W43864   5.492  13.679  13.711  0.0583 -0.2185 -0.3726
27971W        W43865  15.202   5.888  13.221  0.0135 -0.1461  0.1414
27972W        W43866   0.100   1.154   5.249 -0.1014  0.0326 -0.1011
27973W        W43867  17.244  15.841  12.827 -0.1218  0.3338  0.1054
27974W        W43868  12.781   3.126  15.069  0.2840 -0.0862 -0.2252
27975W        W43869   1.289  15.577   4.924 -0.0223  0.1860 -0.3710
27976W        W43870   4.083  14.160   4.304 -0.0362  0.0696 -0.1280
27977W        W43871   9.241   0.505  10.764  0.0064 -0.0671  0.4167
27978W        W43872  15.018  14.593   6.333  0.0663 -0.0486  0.0522
27979W        W43873  12.098   4.795   3.450  0.0075 -0.1070 -0.0238
27980W        W43874  13.686   9.986  12.080  0.3386 -0.0019  0.1868
27981W        W43875   8.956   9.989   1.252  0.1165 -0.1072  0.2401
27982W        W43876  15.360  14.457   1.131  0.2432  0.3699 -0.0837
27983W        W43877   3.913  15.878   2.066 -0.0653 -0.1410  0.2761
27984W        W43878   0.250   0.283   3.788  0.1243 -0.0849 -0.0917
27985W        W43879   1.078   1.434   5.648 -0.1239  0.0384  0.0542
27986W        W43880   4.988   8.929   4.407 -0.0286  0.2024  0.0888
27987W        W43881   6.430  13.401  13.605 -0.1196 -0.0276  0.1285
27988W        W43882  14.687  11.716  17.129 -0.0094 -0.1646  0.3035
27989W        W43883  16.664   7.965   4.285  0.0371  0.1408 -0.0154
27990W        W43884  17.552  13.045  16.273 -0.0306  0.0791  0.3215
27991W        W43885   3.474  17.237  15.303  0.1610 -0.3103 -0.1800
27992W        W43886   5.358   2.934  12.173 -0.0274  0.1286 -0.0525
27993W        W43887   2.937  11.334   0.814 -0.0285  0.2824 -0.0735
27994W        W43888   3.778   0.086   6.089  0.1340  0.2096 -0.1903
27995W        W43889   2.060  15.064   0.801 -0.2575  0.0108 -0.2035
27996W        W43890   9.873  16.517   2.462 -0.0534 -0.2696  0.0506
27997W        W43891   5.829  10.335   4.834 -0.0880  0.0498  0.0574
27998W        W43892   6.825  13.581  14.464 -0.0362  0.2222 -0.0612
27999W        W43893   1.640   5.187   5.410  0.0659 -0.0493 -0.0207
28000W        W43894  11.568   1.601  14.789  0.2208 -0.4351 -0.1607
28001W        W43895  16.741   8.967   1.767  0.0564  0.0595  0.0106
28002W        W43896   0.119   9.304  15.580 -0.1315 -0.3466  0.0042
28003W        W43897   2.213  14.010   3.790  0.3614 -0.0909 -0.1574
28004W        W43898  15.674  13.345  17.261 -0.0972 -0.0621  0.2049
28005W        W43899  12.520  12.747  14.017  0.2309 -0.1257 -0.1238
28006W        W43900  10.085   6.083  14.427 -0.2448  0.2999  0.1255
28007W        W43901   9.794  12.827  12.649  0.1606  0.0948 -0.1774
28008W        W43902   6.700   3.178  14.621  0.0086 -0.3841  0.2972
28009W        W43903  17.611   0.830  13.151 -0.1797  0.0455 -0.0470
28010W        W43904   2.891   5.332  12.402 -0.1474 -0.3279 -0.1045
28011W        W43905   3.805   2.517   2.096 -0.1027 -0.1344 -0.1458
28012W        W43906   4.919  12.642   1.777 -0.5222  0.0848 -0.3332
28013W        W43907   9.342  13.615  14.425  0.1848 -0.2031 -0.0279
28014W        W43908  11.434   4.912   5.332  0.1950  0.0443  0.1643
28015W        W43909  15.713  17.112   5.604 -0.4106  0.1973  0.2513
28016W        W43910  14.792  16.199   3.258 -0.0482 -0.0933 -0.0010
28017W        W43911  13.735   4.513  17.002  0.0598 -0.4257  0.2113
28018W        W43912   8.154   5.422  16.633 -0.1751  0.3017 -0.0701
28019W        W43913  16.906   0.614  13.152 -0.0369 -0.3231 -0.0683
28020W        W43914   3.639  15.213   5.242 -0.1726 -0.0239 -0.0094
28021W        W43915  11.398   6.282  14.166  0.2427  0.2293  0.0743
28022W        W43916  17.120  10.067  14.205 -0.3936 -0.1072  0.2518
28023W        W43917   1.901  16.251   5.443 -0.1610 -0.0773 -0.0198
28024W        W43918   7.171   6.263   1.775 -0.2509  0.0913 -0.0513
28025W        W43919   8.530   6.471   4.745 -0.4200 -0.2953  0.3175
28026W        W43920  15.953   0.441   2.618 -0.0756  0.4202 -0.0144
28027W        W43921   5.084   0.353   3.281 -0.0092 -0.0596 -0.0483
28028W        W43922  15.202   0.024  15.279  0.3692  0.0367 -0.0814
28029W        W43923  11.869   5.090  16.912  0.0281 -0.2535  0.2155
28030W        W43924   2.771   4.595  13.153  0.0245 -0.0376 -0.1026
28031W        W43925   2.073   7.421   4.080 -0.0733 -0.1879  0.0836
28032W        W43926  10.906   8.967   3.882 -0.0936  0.1882 -0.1900
28033W        W43927   2.440  10.933   1.002 -0.0737  0.2049 -0.1920
28034W        W43928  11.735  12.399   4.211 -0.0662 -0.2662 -0.3855
28035W        W43929   3.897  10.800  16.910 -0.1532  0.0065  0.5016
28036W        W43930   6.458  11.511  11.714 -0.0202  0.2298  0.0852
28037W        W43931   4.620  14.156   3.911  0.0832 -0.0676  0.1634
28038W        W43932  11.631   7.678  13.775 -0.4654 -0.1439  0.3856
28039W        W43933   8.840   9.134  14.874 -0.5696  0.0248 -0.0101
28040W        W43934   4.891   4.348  16.826 -0.2293 -0.1373 -0.1948
28041W        W43935   5.016   0.356   4.680 -0.0041 -0.3440 -0.3075
28042W        W43936   7.413   5.504   5.688 -0.1501 -0.0092  0.1833
28043W        W43937  13.691  15.177   3.244  0.1691 -0.1834 -0.0631
28044W        W43938  13.326   6.337  13.146  0.0720 -0.1398 -0.2844
28045W        W43939   6.146   0.714   4.082  0.1389  0.3130  0.1525
28046W        W43940  17.062   9.825  13.733  0.0016  0.1924 -0.0321
28047W        W43941  12.874   0.512   6.386 -0.3333 -0.1798  0.0903
28048W        W43942   2.360  11.235   1.680 -0.2058 -0.0795  0.1301
28049W        W43943   5.463   2.800  12.713  0.2042  0.0716 -0.1341
28050W        W43944  10.717  10.654  14.527  0.0415 -0.1231  0.0151
28051W        W43945  10.112   9.885  11.651 -0.2569  0.3998  0.1271
28052W        W43946   8.896  12.806   4.332  0.2847 -0.0018 -0.0148
28053W        W43947  14.215   2.079   3.939 -0.1990  0.3847 -0.0688
28054W        W43948  15.544  11.421   2.956  0.1889 -0.0857 -0.0574
28055W        W43949   8.568   7.684   4.059  0.1136 -0.0672 -0.1712
28056W        W43950  16.269   1.180   4.769 -0.0959  0.0495  0.0526
28057W        W43951   6.979   4.574   4.919  0.0465 -0.0476  0.3695
28058W        W43952   5.376   3.448  14.390  0.0757  0.0971  0.2199
28059W        W43953  13.957  14.307   4.987 -0.0382 -0.1286  0.1631
28060W        W43954  10.064  14.455  13.106  0.0906 -0.0308 -0.0834
28061W        W43955   1.682  13.607  15.579  0.1960  0.0136  0.0272
28062W        W43956  15.873   7.396  11.861 -0.1376 -0.2963  0.2265
28063W        W43957   0.922  16.738   0.147 -0.1669 -0.1208 -0.1372
28064W        W43958   7.263   0.712  12.853  0.1649  0.0921 -0.1730
28065W        W43959   1.997  11.642   4.887 -0.0268  0.1120  0.1290
28066W        W43960   4.931  12.736  15.006  0.0498 -0.0583 -0.1695
28067W        W43961   2.008   2.396  13.082  0.0885 -0.0853  0.0155
28068W        W43962   8.489  10.268   6.284 -0.2089 -0.0816 -0.3253
28069W        W43963  11.296  12.239  11.518  0.2891 -0.2002 -0.1519
28070W        W43964   7.765  10.263   0.483  0.3566 -0.1887  0.1000
28071W        W43965   8.861   1.296  15.955 -0.1781 -0.1102 -0.2048
28072W        W43966   8.409  11.730   2.990  0.1291 -0.0124 -0.0689
28073W        W43967   0.497   4.677  16.358 -0.0629  0.2645 -0.0134
28074W        W43968  16.265  11.495  14.791  0.2573 -0.0686 -0.0238
28075W        W43969  11.050   9.611   1.239 -0.1421  0.1837  0.0015
28076W        W43970   0.046   7.820   5.153 -0.0078 -0.1858 -0.2929
28077W        W43971  17.354   5.060   1.576  0.1289 -0.0477 -0.1404
28078W        W43972   7.641   0.641   4.332 -0.0342 -0.2657  0.2378
28079W        W43973  15.427  15.278  13.821  0.1084  0.2945 -0.3885
28080W        W43974   3.345   5.183   1.349 -0.1351  0.1073 -0.3109
28081W        W43975  15.506   6.799  13.616 -0.0686  0.1081 -0.2864
28082W        W43976   6.389  17.376   2.902 -0.0907  0.1365 -0.1336
28083W        W43977  14.299  16.593   3.006 -0.0300  0.3625 -0.1145
28084W        W43978  11.236   9.235   4.750 -0.0362  0.0626 -0.0018
28085W        W43979   6.871   2.016  10.915  0.0769 -0.0762 -0.3837
28086W        W43980   9.230  12.225   3.380  0.1341  0.0758 -0.1344
28087W        W43981   9.281  12.051  13.682 -0.1216 -0.0641  0.1175
28088W        W43982   0.293  10.260   5.205  0.0741  0.1541  0.1233
28089W        W43983   9.415   1.679  11.906  0.3191  0.1575  0.1187
28090W        W43984  16.224  10.318   2.113 -0.1712  0.1845  0.0715
28091W        W43985   8.421   5.801   0.299  0.0707 -0.2472  0.0559
28092W        W43986   7.294   5.753  14.386  0.0358 -0.2496  0.1456
28093W        W43987   9.212  13.228  16.110 -0.1145 -0.0140  0.2042
28094W        W43988   5.093  11.520   0.837 -0.2741 -0.0618 -0.1909
28095W        W43989  13.975   9.328  11.435 -0.0514 -0.1211 -0.1380
28096W        W43990  17.635  10.616  13.685 -0.1114  0.0302 -0.2440
28097W        W43991   7.472   9.230   4.889 -0.1226 -0.1646  0.0082
28098W        W43992  16.200  11.297   5.130  0.0796  0.0845 -0.1903
28099W        W43993  16.741   4.512  15.258  0.2232 -0.0434  0.0544
28100W        W43994  12.677  11.562  13.381 -0.1452 -0.1790 -0.2751
28101W        W43995   4.530   8.534  13.128 -0.4341  0.0473  0.1643
28102W        W43996   8.341  11.985   3.428 -0.1307  0.1189  0.1348
28103W        W43997   5.480  10.460  13.342 -0.2582  0.1616 -0.0580
28104W        W43998  15.786   4.876   0.672 -0.2036 -0.1747 -0.0601
28105W        W43999   9.200   5.443  13.010  0.2027  0.0234 -0.1805
28106W        W44000   0.408   9.637   1.953  0.2155 -0.0905  0.1645
28107W        W44001  14.695   9.387  16.609 -0.3179  0.0459  0.0800
28108W        W44002  17.377  10.102   3.090  0.0253  0.0491 -0.0591
28109W        W44003   2.468  16.798   0.865  0.1699  0.3556  0.4948
28110W        W44004  13.632  17.017   5.763  0.2377  0.1311  0.3510
28111W        W44005  16.122   9.177   0.665 -0.0152 -0.0921  0.0069
28112W        W44006   1.540   7.323  16.831 -0.3460 -0.1030 -0.0915
28113W        W44007   1.301   1.995   5.001 -0.1546 -0.0826 -0.0750
28114W        W44008   0.424  11.216   5.013 -0.3828 -0.2047  0.4155
28115W        W44009   9.098  14.857  12.589  0.0868  0.2861  0.0015
28116W        W44010  11.737   6.445   2.318  0.0381  0.1378 -0.0576
28117W        W44011   9.923   3.298   5.434 -0.1258  0.0769 -0.0914
28118W        W44012  15.042   9.676  14.361  0.0061 -0.0953  0.1648
28119W        W44013   8.835   1.176  12.180 -0.0057  0.0321 -0.2060
28120W        W44014  16.092  12.569  15.931 -0.0433 -0.1778 -0.2512
28121W        W44015   7.841   2.552  12.714  0.1848 -0.0745 -0.1160
28122W        W44016   3.298   2.966   0.139  0.0948 -0.3195  0.0882
28123W        W44017   3.253   5.875   5.975 -0.3073 -0.4015 -0.0019
28124W        W44018  11.707   6.773  17.206 -0.1618  0.1121  0.0485
28125W        W44019   2.168  11.710   0.515  0.0138 -0.0866  0.1964
28126W        W44020  10.305  17.052   4.261  0.0420  0.3481 -0.0273
28127W        W44021  11.932  13.203  17.023 -0.1869 -0.0555  0.2211
28128W        W44022   2.671   6.189  16.887  0.1493  0.1344  0.4219
28129W        W44023  11.542  11.255  16.535  0.2802 -0.1978 -0.0887
28130W        W44024   9.818   1.448   3.827 -0.0046  0.1262 -0.1014
28131W        W44025   6.956  12.565  16.553 -0.0768  0.2699  0.0629
28132W        W44026   7.712  13.073   5.490  0.1429 -0.2422  0.2920
28133W        W44027   1.241  13.467   2.974 -0.2204  0.0612 -0.6665
28134W        W44028  16.874  11.455   3.225  0.2321 -0.0003  0.0645
28135W        W44029   8.019   7.773   3.346  0.1693 -0.2282  0.1943
28136W        W44030  13.209   0.012   2.462  0.0031  0.0358  0.2838
28137W        W44031   9.683  12.812   1.581  0.0034 -0.1312  0.0651
28138W        W44032  11.554   8.603  14.009 -0.1216 -0.0583  0.0661
28139W        W44033   8.114   8.216  13.179 -0.3433  0.1993 -0.0174
28140W        W44034   4.124   2.314  13.544  0.0914 -0.2272 -0.1941
28141W        W44035   8.142  15.048  17.155 -0.2990 -0.4001  0.2269
28142W        W44036   9.181  11.338  14.547  0.0190 -0.0523  0.0596
28143W        W44037  17.359  15.242  11.999 -0.1818  0.0971  0.2502
28144W        W44038  12.699   8.440   5.127  0.1143 -0.2785 -0.0014
28145W        W44039  17.355  11.612  11.724 -0.0710 -0.1508 -0.0866
28146W        W44040   0.643   6.105   5.212 -0.0512  0.2223 -0.2132
28147W        W44041   8.214   9.440  15.457 -0.0035 -0.0056 -0.0877
28148W        W44042   8.430   7.519  16.049  0.0214  0.2444  0.0096
28149W        W44043  17.496  16.987   2.326  0.0660  0.0787  0.0579
28150W        W44044  10.866  12.411  15.447 -0.3623 -0.0294 -0.0260
28151W        W44045   8.099   1.558  17.272 -0.0071 -0.0228 -0.2625
28152W        W44046  12.395  16.284   3.341  0.3654 -0.0573 -0.0829
28153W        W44047   9.903  11.982   1.106 -0.0671 -0.3278  0.0311
28154W        W44048  10.671  10.571  11.399 -0.0596  0.1398  0.1617
28155W        W44049   9.712  10.763  13.122  0.1666  0.0199 -0.0288
28156W        W44050  12.447   3.665   1.971  0.0824 -0.1552  0.3353
28157W        W44051   0.254  12.723   4.346  0.0472  0.0850  0.2347
28158W        W44052  11.418   0.854   1.460 -0.0624 -0.0624  0.0193
28159W        W44053   8.815   5.024   1.836  0.0283 -0.0669 -0.0129
28160W        W44054  11.972  16.446  13.218 -0.0320 -0.1023  0.1704
28161W        W44055  15.943   2.297  16.367  0.3249  0.0295  0.0793
28162W        W44056   8.170  16.731   6.052  0.0749  0.0376 -0.0234
28163W        W44057  14.216   1.215  12.641 -0.0296  0.1893  0.4261
28164W        W44058  15.464  12.369   3.483  0.1714  0.1299 -0.0832
28165W        W44059   9.709   6.535  11.551  0.2442 -0.1039  0.1009
28166W        W44060   4.548   3.949  16.337  0.1437 -0.3686 -0.0057
28167W        W44061   2.463  16.562  12.771  0.0047  0.1048 -0.0469
28168W        W44062   6.411  14.379  15.997  0.3126 -0.1514  0.1823
28169W        W44063   3.200  13.119   3.584 -0.0265 -0.0341  0.1143
28170W        W44064  16.187  13.497  14.011 -0.1574  0.0723  0.0601
28171W        W44065  11.402   1.476   4.489  0.1170  0.1738  0.0979
28172W        W44066  12.682   2.596  13.892 -0.0260 -0.0069  0.1763
28173W        W44067   2.253  12.801   5.297  0.0167 -0.0188 -0.0644
28174W        W44068  11.205   9.109  14.203 -0.1585  0.0370  0.0359
28175W        W44069   6.595   7.701  16.343 -0.1458  0.3481  0.0138
28176W        W44070  17.277  16.482  13.356 -0.0581  0.0625 -0.0060
28177W        W44071   5.262  11.139   0.082 -0.1884  0.1277 -0.0303
28178W        W44072   1.350   1.886   2.232 -0.0047  0.1525  0.0762
28179W        W44073  14.426   8.909   2.196 -0.1432 -0.1739  0.3832
28180W        W44074  14.955   1.883   3.076  0.2479 -0.0805 -0.1440
28181W        W44075  16.014   8.873   2.658 -0.2844  0.0073 -0.1295
28182W        W44076  10.380   5.580  15.770  0.0343  0.2555  0.0331
28183W        W44077   2.076  14.997  14.531 -0.2045 -0.0756 -0.0429
28184W        W44078  14.971   1.513   3.958  0.0456  0.0522  0.1523
28185W        W44079   1.878   4.030  16.892  0.1030  0.2967  0.1294
28186W        W44080  13.804   7.306  13.025  0.1884 -0.3292 -0.1353
28187W        W44081  13.323  12.847  16.450 -0.1321 -0.1066 -0.0948
28188W        W44082  13.105   3.128  11.689  0.1947  0.0208 -0.2469
28189W        W44083   5.319   7.799   5.756 -0.3768  0.0825  0.5283
28190W        W44084  13.650   7.575  16.728  0.1707 -0.0577  0.1817
28191W        W44085   2.079   3.937   0.074 -0.3650 -0.4096  0.1668
28192W        W44086  11.237  13.793   3.237 -0.0921  0.2610  0.0235
28193W        W44087  11.063   7.932   2.364 -0.6733 -0.0204  0.0612
28194W        W44088  14.911   1.051  15.480 -0.0952 -0.0591  0.3395
28195W        W44089  13.756  12.055   4.621 -0.2373 -0.2738  0.0997
28196W        W44090   9.707   0.653   1.111  0.1693  0.1775  0.2474
28197W        W44091   1.644  10.938  13.553  0.3220  0.0628  0.4207
28198W        W44092  13.755   8.509  11.550 -0.4801  0.0111 -0.0264
28199W        W44093   7.382   9.390   0.339  0.0040 -0.1233 -0.1035
28200W        W44094   9.378   9.788  14.407  0.0757  0.1224 -0.1804
28201W        W44095   9.474  10.641   0.751  0.1647  0.1803 -0.0317
28202W        W44096   0.614   8.518  15.851 -0.0264  0.1270  0.1437
28203W        W44097   8.939  17.394   2.577 -0.0594 -0.0220 -0.3365
28204W        W44098   5.279   0.172  16.840 -0.2372 -0.0608  0.0011
28205W        W44099  15.353   2.517  11.891  0.0654  0.2558  0.0042
28206W        W44100   3.052  11.552  15.169 -0.1363  0.0057  0.1774
28207W        W44101   2.860  14.446   3.578 -0.1889  0.0656 -0.1744
28208W        W44102   3.699   7.526   0.574 -0.3035 -0.1767  0.0101
28209W        W44103   3.098  14.351  12.206  0.0227  0.2087  0.1397
28210W        W44104  14.631  13.225   2.943 -0.2444 -0.0304 -0.1593
28211W        W44105   7.373   2.887  15.442 -0.0415 -0.5326 -0.0946
28212W        W44106   9.145   1.550   5.772  0.1246  0.2944 -0.0953
28213W        W44107   2.717   4.485   4.408  0.0583 -0.0573  0.1502
28214W        W44108   3.714   7.831   4.882 -0.0079 -0.0710 -0.3185
28215W        W44109   7.585  12.307  16.693 -0.0104 -0.0523  0.0158
28216W        W44110   2.092   0.496  12.201 -0.0547 -0.0308  0.1988
28217W        W44111   2.150  12.743   5.824 -0.2484  0.0173 -0.2112
28218W        W44112   5.471  16.670   3.520  0.0650  0.0589 -0.1430
28219W        W44113  12.751   2.011   3.412 -0.4542 -0.0815  0.1543
28220W        W44114  13.708   7.419  14.883  0.0323  0.0626 -0.0261
28221W        W44115   5.613  11.562  16.236 -0.0399  0.2946  0.1477
28222W        W44116   6.774  14.253   1.639 -0.2814 -0.0228 -0.1914
28223W        W44117   9.494   5.903   0.084  0.0097  0.1623  0.0796
28224W        W44118   8.907   1.467  14.621 -0.0265 -0.0964  0.0222
28225W        W44119   2.854  11.988   0.020  0.0822  0.2456  0.1160
28226W        W44120   9.426   8.214   3.605 -0.1629 -0.0101 -0.1102
28227W        W44121  15.810   0.776   2.943 -0.3230  0.2108  0.2674
28228W        W44122   6.020  16.167   5.433 -0.0619 -0.1644 -0.1524
28229W        W44123  12.101   9.743  13.951  0.3375  0.1527 -0.0243
28230W        W44124  17.358   1.024  14.538  0.1637 -0.2779 -0.3041
28231W        W44125   2.338   3.248   3.973 -0.0068 -0.3145 -0.3077
28232W        W44126  15.806  15.805   6.064  0.1024 -0.1117  0.0820
28233W        W44127   2.235   7.728  11.371  0.0096 -0.1015  0.1666
28234W        W44128   3.543   2.573  13.483 -0.1122 -0.2615 -0.0504
28235W        W44129   4.850   1.402  13.026  0.0621  0.0432  0.4176
28236W        W44130  10.823  11.949  14.145  0.2272 -0.0064 -0.2547
28237W        W44131   6.063  10.577   2.897 -0.1824 -0.0507  0.3282
28238W        W44132   3.311  16.485  12.379  0.1881 -0.4183  0.0881
28239W        W44133   1.991  13.834  14.643 -0.0705 -0.1108 -0.0235
28240W        W44134   8.987  12.422  13.410  0.1178 -0.0771 -0.0065
28241W        W44135   1.840   8.907   0.219 -0.1955 -0.2229 -0.0895
28242W        W44136   3.296  14.790   0.407  0.1810 -0.0077 -0.0710
28243W        W44137   1.124   4.108   4.799  0.0783 -0.3581  0.2936
28244W        W44138   4.433   5.307  14.303 -0.1685 -0.1408 -0.1367
28245W        W44139   7.205  15.939  14.451  0.0981 -0.1536 -0.0976
28246W        W44140  15.965  12.903  12.142  0.0549 -0.1047 -0.0288
28247W        W44141  12.555   9.234  11.930  0.0296  0.3698  0.0097
28248W        W44142   8.206  15.538   4.442  0.0180 -0.0818  0.4165
28249W        W44143  17.604  11.381   5.272 -0.1177  0.2520 -0.1062
28250W        W44144  17.020   8.306   3.940  0.1076 -0.1166  0.2147
28251W        W44145   3.918   0.221   0.779 -0.1992 -0.0859  0.0703
28252W        W44146  12.755   7.108   3.795 -0.2300  0.3425 -0.1955
28253W        W44147  11.888  12.866   1.958 -0.1959  0.2161 -0.0270
28254W        W44148   9.930   1.071   3.135 -0.0950  0.2076 -0.0009
28255W        W44149  10.831   9.945   3.240  0.2331  0.1668  0.3330
28256W        W44150   6.895  15.109   5.018 -0.1012 -0.1484  0.2144
28257W        W44151  16.684  11.098   5.024 -0.0764  0.0940 -0.1367
28258W        W44152  14.768  11.539  12.973  0.0168  0.0169 -0.1392
28259W        W44153  15.052  14.871   2.001 -0.1250 -0.0793 -0.3539
28260W        W44154  14.019   2.965  16.999 -0.0024  0.1305 -0.2159
28261W        W44155   9.254   2.411  15.658 -0.0359 -0.1387 -0.1165
28262W        W44156   1.096  16.253  15.353  0.0068 -0.1911 -0.0047
28263W        W44157   5.924  15.182  16.344  0.1066  0.0575  0.0854
28264W        W44158  12.270   7.864  12.183  0.1116  0.0107  0.0493
28265W        W44159   0.521  12.406  12.366  0.0829  0.4788  0.1809
28266W        W44160   0.318   7.170   1.288 -0.1526  0.0266  0.2477
28267W        W44161   3.157   2.874   5.339 -0.0880  0.0912  0.1248
28268W        W44162  11.803   9.105  14.825 -0.0605  0.0719  0.2830
28269W        W44163  14.813  12.524   4.083  0.1608 -0.0392  0.1089
28270W        W44164   1.328   9.059   2.522 -0.0681 -0.1114 -0.2316
28271W        W44165   7.519   0.871   3.126 -0.1488 -0.0465 -0.0752
28272W        W44166  11.558  10.867  15.276  0.1506 -0.0321 -0.1049
28273W        W44167   9.997  14.062   5.769  0.2954  0.0017  0.1676
28274W        W44168  13.734   9.109  13.552 -0.1074  0.1956  0.4366
28275W        W44169  14.417   8.265  15.149 -0.0111  0.2700  0.1316
28276W        W44170   7.513   2.530   4.293  0.2372 -0.1729 -0.0255
28277W        W44171  10.628  14.017  14.835 -0.0562 -0.1252  0.3039
28278W        W44172   3.949   1.288  12.894  0.3380  0.0753  0.1727
28279W        W44173   7.904   4.072   0.854 -0.0948  0.1570  0.1102
28280W        W44174  12.615   1.021   4.798 -0.1819  0.2090 -0.2425
28281W        W44175   9.617  10.809   4.495 -0.0988 -0.2466  0.1255
28282W        W44176   7.623   6.644   5.002  0.0738 -0.1667  0.2810
28283W        W44177   2.670  10.742  12.625  0.1724 -0.1352 -0.2586
28284W        W44178   2.611   9.342  12.737 -0.2349 -0.1767  0.3114
28285W        W44179   9.433  11.173   4.191 -0.0648  0.4949 -0.0196
28286W        W44180  13.756   0.801   2.390  0.0463 -0.1337  0.1486
28287W        W44181  11.522  11.424  15.054  0.0681 -0.2038 -0.0540
28288W        W44182   3.500   2.577   5.596  0.1202  0.2677  0.0645
28289W        W44183   5.318   0.043  15.526 -0.1688  0.2828 -0.1711
28290W        W44184   4.852   8.641  12.329 -0.1015  0.1865  0.0028
28291W        W44185   8.592  15.654   5.381 -0.1508 -0.2534 -0.1832
28292W        W44186  12.844  11.365   5.590 -0.1119  0.0647  0.2946
28293W        W44187   4.941  13.612   1.035 -0.1572 -0.1270 -0.3844
28294W        W44188   6.188  17.408   6.046  0.0536 -0.0291 -0.0812
28295W        W44189   8.403   1.403   3.081  0.1789  0.0371  0.0135
28296W        W44190   3.663   8.811  15.633  0.2955 -0.0612 -0.0221
28297W        W44191   8.587   5.246  15.576 -0.0239  0.1665 -0.5622
28298W        W44192   2.320   7.202  15.128  0.1488 -0.0451 -0.0423
28299W        W44193  12.221   1.717   4.484  0.0448  0.0312 -0.0208
28300W        W44194  14.798   0.847   3.528  0.1220 -0.2289  0.0033
28301W        W44195  11.707   1.822   3.487 -0.1857 -0.1480 -0.3429
28302W        W44196   6.639  15.623   0.524  0.3984 -0.0841  0.0849
28303W        W44197  12.432   7.104   1.344 -0.3819 -0.0953  0.0221
28304W        W44198  10.039  14.212  16.424 -0.1019  0.0862 -0.0685
28305W        W44199   2.663   9.343  16.209 -0.2806  0.0984  0.0846
28306W        W44200  12.002   1.408  12.040 -0.2441 -0.0830 -0.0283
28307W        W44201  13.912  11.703   2.856  0.0110  0.1884  0.0102
28308W        W44202   8.949   2.834  15.846  0.1550 -0.0222 -0.1338
28309W        W44203   6.702   5.695  14.643 -0.1071  0.2016 -0.1801
28310W        W44204   8.206  16.254   2.646  0.1441  0.0290  0.1905
28311W        W44205   2.748   4.074   3.614  0.1131  0.2416 -0.1900
28312W        W44206  10.297  12.536  15.212  0.0078  0.1936  0.2238
28313W        W44207   5.915   5.396  14.083 -0.4776 -0.2230 -0.0774
28314W        W44208  13.737  11.399   0.764 -0.2991 -0.0734  0.0370
28315W        W44209  16.411  13.987  12.818 -0.3102 -0.0591  0.0583
28316W        W44210  10.990  16.408  16.701  0.1867  0.2758 -0.0215
28317W        W44211  16.617   3.715   3.000 -0.2267  0.0909  0.0829
28318W        W44212  16.767   0.813   0.674  0.0112  0.0104 -0.1878
28319W        W44213   0.427   0.543   2.506 -0.2647 -0.1647  0.1916
28320W        W44214  14.251   5.002  13.700  0.0366  0.0535  0.1317
28321W        W44215   3.585   0.635   3.980 -0.1345 -0.0338  0.0445
28322W        W44216  15.845   7.029   1.001  0.0868  0.1129  0.3783
28323W        W44217  14.184   4.159   0.428  0.0510 -0.0472  0.1728
28324W        W44218  11.505   4.501   0.919 -0.2132 -0.1590 -0.3940
28325W        W44219  14.901  12.082   2.692 -0.0290 -0.2181 -0.0117
28326W        W44220   8.001   5.989   4.954  0.0642  0.0602 -0.0489
28327W        W44221   6.413   5.062   4.081  0.2486  0.1131 -0.4840
28328W        W44222   4.951   4.578  14.520 -0.0304  0.1894  0.2653
28329W        W44223   0.209  11.789  16.263  0.1570  0.1386  0.1711
28330W        W44224   9.506   0.424  15.312 -0.0266  0.1107 -0.1414
28331W        W44225   8.523   8.587  12.018 -0.2825  0.0034  0.0453
28332W        W44226  11.542  15.849   2.620 -0.1514  0.1962 -0.0044
28333W        W44227   8.830   0.849  17.047 -0.3686 -0.2371 -0.0821
28334W        W44228  12.850   5.836  11.338 -0.0228  0.1340 -0.3057
28335W        W44229  16.322   7.529  11.610  0.2601  0.0905 -0.1840
28336W        W44230  11.278  13.540  13.493 -0.0061 -0.1747  0.3055
28337W        W44231  13.690  13.862   4.829  0.0976  0.3019  0.3443
28338W        W44232   2.290  15.941  13.784 -0.0406  0.0395 -0.0299
28339W        W44233   2.575  12.799  15.364 -0.1421 -0.0064  0.2046
28340W        W44234  10.793  17.235   3.500  0.1205 -0.2227  0.3038
28341W        W44235   8.690  16.191  15.576  0.1195  0.2316  0.1731
28342W        W44236   2.504   7.606  16.898  0.2420 -0.3283  0.0066
28343W        W44237  12.034   9.472  14.455  0.2029 -0.2648  0.1815
28344W        W44238   5.251  10.728   1.307 -0.1958 -0.1885  0.3966
28345W        W44239   1.749   0.450  16.448  0.0718  0.2142 -0.0263
28346W        W44240   3.919  10.035   0.263  0.3393 -0.0161  0.2140
28347W        W44241  12.255   7.387   5.032 -0.0774  0.1226  0.5187
28348W        W44242  12.784   5.316   1.507  0.2497 -0.0794  0.1474
28349W        W44243  14.350  13.024  14.904  0.0256  0.1339 -0.0609
28350W        W44244   9.046   6.592  16.468  0.3448  0.0040  0.0020
28351W        W44245  13.076  13.542  12.425  0.0414  0.0800 -0.0315
28352W        W44246   3.159  13.208   5.441  0.0256 -0.2445 -0.0373
28353W        W44247   1.231  10.725   1.164 -0.2121  0.0585 -0.0740
28354W        W44248   3.688  13.381  16.268  0.0043  0.2986 -0.2110
28355W        W44249   5.514   3.294   2.180 -0.3631  0.3848 -0.0220
28356W        W44250   7.617   5.576   0.475 -0.2172  0.0251  0.0596
28357W        W44251   4.156   8.376  11.669 -0.0932 -0.0461  0.0399
28358W        W44252   8.781   9.512  14.533 -0.0437 -0.0460 -0.1047
28359W        W44253   6.249   3.713  16.400 -0.1273  0.2866 -0.1497
28360W        W44254   8.097  12.276   5.063 -0.0476  0.2982  0.3222
28361W        W44255   4.761   7.893   5.046  0.2362  0.1865  0.0231
28362W        W44256   6.515   7.702   0.809 -0.1140 -0.0050  0.2290
28363W        W44257   7.223   5.286   0.717 -0.2092  0.1226  0.1434
28364W        W44258  13.171   8.375  11.320 -0.2088  0.2306 -0.0330
28365W        W44259   8.388   9.063  12.423 -0.4256 -0.0432 -0.1198
28366W        W44260  15.371   8.449   3.789  0.1281 -0.0748  0.0381
28367W        W44261   4.680   6.840  13.763  0.0707 -0.2995 -0.1669
28368W        W44262   0.720  10.046  14.349  0.0878  0.1195 -0.0564
28369W        W44263   9.196  16.697  15.097 -0.2834 -0.0603 -0.0012
28370W        W44264  14.039   0.252   3.730 -0.1873 -0.2046 -0.0277
28371W        W44265  10.349   8.475   3.294  0.1446 -0.0061  0.2834
28372W        W44266   6.329  13.905   2.635  0.0551 -0.0399 -0.3021
28373W        W44267   0.539   9.027   4.871  0.0797 -0.2820  0.0972
28374W        W44268  14.858   3.683   5.615 -0.1024 -0.0755  0.1143
28375W        W44269   4.137  13.494   5.614  0.0928  0.1408 -0.1507
28376W        W44270   9.360   5.381  14.027  0.0783 -0.2213  0.1620
28377W        W44271   7.230  15.325   2.878  0.0635 -0.1786 -0.0984
28378W        W44272   8.045   8.689  13.393  0.0694  0.1346 -0.1001
28379W        W44273   1.879   6.930   3.820  0.0146 -0.1369 -0.0288
28380W        W44274   7.163  14.830  14.628 -0.4127  0.0565  0.2094
28381W        W44275  10.948  15.427  13.602  0.1339 -0.3649  0.2180
28382W        W44276  11.661   0.303  14.454  0.0425 -0.0060  0.0438
28383W        W44277  17.482   1.662  17.095  0.5386  0.1516  0.2199
28384W        W44278  17.269   1.553  14.568 -0.0623 -0.2703  0.1122
28385W        W44279  13.679   9.945  13.526  0.2637 -0.1863 -0.1045
28386W        W44280  10.601   9.946  15.098 -0.0374  0.1455 -0.3103
28387W        W44281   2.329   5.638   6.387 -0.1379 -0.1797 -0.0125
28388W        W44282   4.906  13.353   4.816 -0.0963 -0.2959 -0.0748
28389W        W44283  15.698   5.821   5.817  0.1164 -0.0697  0.3627
28390W        W44284  13.942   8.893   0.325 -0.0510  0.2277 -0.2546
28391W        W44285   9.732   7.797  13.938  0.2077 -0.2958  0.1918
28392W        W44286   2.245  10.875   3.468  0.3407  0.4507 -0.0158
28393W        W44287   8.559   4.978   0.233  0.1363  0.2702  0.3017
28394W        W44288   9.337   7.908   3.186 -0.3104  0.1114  0.3293
28395W        W44289  11.248   9.060  14.755 -0.0458 -0.1759  0.2119
28396W        W44290  13.144   7.380  11.882  0.1326 -0.0395  0.0294
28397W        W44291  10.144   2.777  13.092 -0.3698 -0.3337  0.2534
28398W        W44292   5.882   2.111  14.928  0.2373  0.0088  0.0524
28399W        W44293   1.474  12.230  13.763 -0.1997 -0.1086 -0.0979
28400W        W44294   1.539  11.173   1.055  0.1776  0.0530  0.1989
28401W        W44295  10.950   7.249  13.956  0.2187  0.2690 -0.4379
28402W        W44296   7.906  15.388   3.977 -0.1143 -0.1060  0.0838
28403W        W44297   3.118   2.607   3.635 -0.0230 -0.4822 -0.1682
28404W        W44298   8.197   2.106   0.031  0.1784 -0.1298 -0.1621
28405W        W44299  12.008  10.263  12.772  0.0419 -0.2209  0.2737
28406W        W44300   2.667  16.267   5.644  0.1964  0.1126  0.1238
28407W        W44301   2.470  11.017   2.945 -0.0181 -0.3085 -0.2419
28408W        W44302  11.359  14.527   0.756 -0.0826 -0.1545 -0.0810
28409W        W44303   5.163  11.581   0.324  0.0450  0.1661  0.2373
28410W        W44304  16.266  14.436  15.022 -0.0727 -0.1478 -0.1366
28411W        W44305   1.366   0.812   0.385 -0.2468  0.0136  0.1247
28412W        W44306   4.668   3.919   6.806  0.2854 -0.2907 -0.3257
28413W        W44307   7.517  11.779   3.673  0.2656  0.0500 -0.0947
28414W        W44308   2.605   7.565   4.724  0.1961  0.0541 -0.1830
28415W        W44309  13.956   2.722   2.938 -0.2191  0.1685  0.1180
28416W        W44310   6.752  12.655  14.219 -0.0732  0.0588 -0.1711
28417W        W44311  10.697   9.529  12.599  0.0702 -0.3367 -0.0184
28418W        W44312  13.637   8.728  15.356 -0.2035  0.0863  0.1341
28419W        W44313  11.170   6.852   1.114  0.1151 -0.1308 -0.0577
28420W        W44314   5.732   1.595   0.525 -0.2227 -0.1849  0.0228
28421W        W44315  14.939  10.920  14.781  0.2786 -0.2447  0.2646
28422W        W44316   6.399  10.448   3.216  0.3117 -0.1538  0.0009
28423W        W44317   2.600   3.000   1.394  0.0462  0.0668  0.0613
28424W        W44318  15.445  15.405   0.782  0.0636 -0.1535  0.0199
28425W        W44319   5.898  13.489   1.984 -0.1471  0.1209 -0.0843
28426W        W44320   1.779  12.116   3.575  0.1786  0.1873 -0.2686
28427W        W44321   4.142   3.182   3.310 -0.3673 -0.0534 -0.0581
28428W        W44322   7.437  10.749   2.844  0.1070 -0.0784 -0.3653
28429W        W44323   7.100  11.853   1.926 -0.0207 -0.0927  0.1031
28430W        W44324   8.544  17.353  13.633 -0.1199 -0.0176 -0.0349
28431W        W44325   4.463  13.245  13.847  0.5012  0.2696 -0.2690
28432W        W44326   7.291   8.255   3.409 -0.3047  0.1617 -0.1737
28433W        W44327   9.408  12.769  13.050 -0.0962  0.1211  0.0756
28434W        W44328   7.982   6.315  12.042 -0.2530 -0.1605 -0.1390
28435W        W44329  10.698   2.285  16.400  0.0679 -0.0236 -0.0477
28436W        W44330  10.788   9.730   0.005  0.1185  0.0084 -0.1645
28437W        W44331  13.804   3.587  12.020  0.0755 -0.1054 -0.1566
28438W        W44332   3.412   8.720  12.195  0.1561 -0.1047  0.1342
28439W        W44333   4.649  17.162   5.773 -0.2095  0.0425 -0.1880
28440W        W44334   9.180   9.346   3.214 -0.0038 -0.1206  0.1890
28441W        W44335  10.286   2.486  15.579 -0.0119  0.1413 -0.0191
28442W        W44336  16.149   8.127  13.700 -0.2051  0.1484 -0.0932
28443W        W44337   5.679  12.116  15.010  0.3199 -0.2241  0.2388
28444W        W44338  16.135   4.380   1.355  0.1905 -0.1835  0.1493
28445W        W44339   5.553   4.979  17.106 -0.1084  0.0342 -0.3537
28446W        W44340  11.725   7.136   4.531  0.3295 -0.0768 -0.0829
28447W        W44341   2.282   3.704   4.209  0.0921 -0.0079 -0.0265
28448W        W44342  11.851  10.988   2.570  0.0107 -0.2117 -0.2367
28449W        W44343   0.441   2.556   2.151  0.0567 -0.2603  0.2066
28450W        W44344   3.861   9.953   1.642  0.2018  0.0449  0.1451
28451W        W44345   6.892  10.810   0.556  0.2446  0.0347 -0.1854
28452W        W44346  16.416  16.489   2.585  0.0804  0.2521  0.0541
28453W        W44347   8.742   1.103  14.891 -0.0740  0.1344  0.0673
28454W        W44348  10.091   6.386  16.159  0.2557 -0.1471  0.1973
28455W        W44349   1.316  15.211  14.398 -0.1504  0.3142  0.1158
28456W        W44350   1.390   9.789   5.705  0.1269 -0.4686  0.2794
28457W        W44351   3.895  17.450  15.729  0.1010 -0.2687  0.0716
28458W        W44352  14.908   3.232   3.210  0.0945 -0.0838  0.0281
28459W        W44353   1.588   8.388   4.834 -0.4050 -0.2716 -0.0802
28460W        W44354  17.026  15.428   4.332 -0.0197 -0.1626  0.3950
28461W        W44355   0.849  14.825   4.489  0.2687 -0.4274 -0.1482
28462W        W44356  14.099  13.811  13.813 -0.3404  0.0266 -0.0318
28463W        W44357   7.013   7.875   0.788  0.0664  0.0173  0.1924
28464W        W44358  15.901  17.130  11.899  0.0833  0.3684 -0.1456
28465W        W44359  15.493   0.057   6.127 -0.1391 -0.0059 -0.0302
28466W        W44360   7.486   0.110   1.387  0.1631  0.3328  0.0213
28467W        W44361   8.763  10.650   1.890  0.0605 -0.0029 -0.2788
28468W        W44362   2.928  11.191   3.095  0.0457  0.0386 -0.5416
28469W        W44363   7.084   4.809  15.664  0.1618  0.1643  0.1143
28470W        W44364   7.534  15.475  13.256  0.0021  0.1229  0.1465
28471W        W44365  14.281  13.071  15.637  0.0507 -0.2632 -0.0319
28472W        W44366  16.583  11.498  15.574 -0.1934 -0.0796  0.0261
28473W        W44367  13.586  11.967   5.859  0.2911  0.0017 -0.0350
28474W        W44368   6.974  12.783  13.533  0.0179 -0.0069  0.2795
28475W        W44369  13.572   2.610   5.233  0.0728  0.0931  0.0834
28476W        W44370  16.424   9.378  12.925  0.0620 -0.1653 -0.4701
28477W        W44371   8.230   5.716   2.734 -0.3477 -0.0551  0.0964
28478W        W44372   0.426  10.453   1.259 -0.2207 -0.0136  0.0959
28479W        W44373  15.108   9.863   1.290  0.1956  0.0490 -0.4273
28480W        W44374   3.680   8.122  12.348 -0.2786  0.0930  0.1462
28481W        W44375   4.200  16.316   2.905 -0.0222  0.0447 -0.0615
28482W        W44376  11.763   0.846  15.896 -0.0533  0.4087  0.0105
28483W        W44377  10.807   8.141   3.309 -0.0389  0.2336  0.1037
28484W        W44378  13.704  15.816  16.854 -0.1429  0.0758 -0.2064
28485W        W44379   6.828  16.628   2.958 -0.0567  0.1359  0.0355
28486W        W44380  11.590  12.160  14.407  0.1973  0.2011  0.0132
28487W        W44381   2.681   1.113  15.692 -0.2074  0.0090  0.1709
28488W        W44382   0.760   9.652   2.396 -0.0162 -0.0499  0.2937
28489W        W44383   2.348   1.617  13.524 -0.0312  0.0348  0.2295
28490W        W44384   6.118   2.304  15.537 -0.0777  0.5816  0.0183
28491W        W44385   7.419   1.358   3.035  0.1105 -0.0522  0.2606
28492W        W44386   2.014   2.107  16.455  0.0116  0.0258 -0.1400
28493W        W44387  16.576  13.909  15.770 -0.1093 -0.3523 -0.0314
28494W        W44388   2.621   0.828   4.778 -0.1286  0.1457 -0.0066
28495W        W44389  14.499  10.068  10.541  0.1012 -0.0675  0.1939
28496W        W44390  15.533  17.199  14.524 -0.1977 -0.0260 -0.2250
28497W        W44391  12.069  16.402   1.988 -0.0496 -0.0415 -0.1862
28498W        W44392  12.540   3.516   2.721  0.3087 -0.0639  0.4090
28499W        W44393   0.949   8.619   6.596 -0.2025 -0.2309  0.0951
28500W        W44394   9.757   7.292  15.514 -0.1236 -0.1119  0.0351
28501W        W44395   2.606   5.914  14.370 -0.1253  0.4420 -0.0280
28502W        W44396  12.405  17.182  13.734  0.1885  0.0883 -0.3200
28503W        W44397   1.176  13.276   4.542  0.0723 -0.0658  0.1694
28504W        W44398   8.011  11.994   3.897 -0.1922  0.0941 -0.0106
28505W        W44399   8.695  15.460   4.246 -0.0535  0.0360 -0.1845
28506W        W44400  10.607  13.709  12.521 -0.2888 -0.1028 -0.2920
28507W        W44401   4.160   4.481  14.836 -0.1525 -0.3004 -0.1493
28508W        W44402   3.342   0.367   0.302  0.1097  0.0338 -0.0794
28509W        W44403   5.754   2.646   4.022  0.0149  0.1864  0.2594
28510W        W44404  14.804   5.995   5.718 -0.5065 -0.0328 -0.1442
28511W        W44405   6.518   5.565  10.944  0.0419  0.1124  0.0368
28512W        W44406   8.779   2.216  17.072 -0.0867 -0.2483  0.1900
28513W        W44407  10.508  10.792   1.408 -0.0342  0.0357  0.1151
28514W        W44408   1.215   8.927  13.120 -0.0504  0.2263  0.2119
28515W        W44409   9.640  17.400   2.946 -0.0072 -0.0641  0.1711
28516W        W44410  17.143   6.773   3.688  0.5605 -0.2673  0.3035
28517W        W44411   5.465  12.310  12.291  0.2333 -0.0777 -0.0460
28518W        W44412   2.211   8.004   4.919  0.0602  0.3404  0.1576
28519W        W44413   3.737  15.966  13.886  0.0861  0.3822 -0.0941
28520W        W44414   0.789  16.453  12.105 -0.2152 -0.1805 -0.3921
28521W        W44415  14.398  16.765  12.348 -0.2586 -0.1419  0.2007
28522W        W44416  11.389   4.456  12.382 -0.1894  0.1127 -0.0510
28523W        W44417  16.143  10.336   2.965 -0.2827  0.0090 -0.0186
28524W        W44418   1.439   7.551   5.160  0.2285  0.2289 -0.0015
28525W        W44419  12.667   4.925   0.943  0.2551  0.1433  0.1004
28526W        W44420   8.930  15.028  13.510 -0.1170  0.2927  0.1808
28527W        W44421  10.417   1.914  12.264  0.2186  0.3852 -0.2074
28528W        W44422  10.039  16.676   2.913 -0.0776  0.2023 -0.1641
28529W        W44423  17.474   4.887   0.244 -0.1938  0.1614 -0.1473
28530W        W44424   3.103  10.738   4.405 -0.0097 -0.1255  0.0792
28531W        W44425  16.967  12.482   4.628  0.3267 -0.0251  0.0881
28532W        W44426  12.162   5.277  13.643 -0.0451  0.2234 -0.0572
28533W        W44427   4.366  15.484  16.215 -0.1500 -0.0334 -0.0944
28534W        W44428   2.030  14.190   3.293  0.1046  0.0059  0.6008
28535W        W44429   5.838  17.406  16.414  0.1563 -0.0087 -0.1085
28536W        W44430   8.444  12.472   0.259  0.2568 -0.2315 -0.0899
28537W        W44431   0.172   9.565  12.622  0.0556  0.0614 -0.0395
28538W        W44432   3.803   2.292   5.306  0.1639  0.0698  0.0101
28539W        W44433   4.121   5.420   5.876  0.3078 -0.1597  0.1232
28540W        W44434  13.162  14.837   1.387  0.4475 -0.0395 -0.1264
28541W        W44435   4.483   9.581  16.371  0.0327 -0.2516 -0.0269
28542W        W44436  13.665  10.035  15.345  0.1212  0.1546  0.1775
28543W        W44437  14.490   8.167  12.091 -0.0941  0.1470 -0.1826
28544W        W44438  13.350   2.224  15.553  0.0200  0.0368  0.2730
28545W        W44439  14.648   1.492  15.376 -0.1675  0.1005 -0.1666
28546W        W44440   7.828   9.299   4.078  0.0523  0.2058 -0.0502
28547W        W44441  16.841   1.794   3.780  0.0579 -0.1523  0.2434
28548W        W44442   0.356  11.904  15.632  0.2565 -0.2590  0.0756
28549W        W44443  10.001   1.030  14.900 -0.1467  0.1025  0.0211
28550W        W44444   6.572   4.736  15.271 -0.0804  0.0997  0.3496
28551W        W44445   1.169   1.552  14.010 -0.2697 -0.2354  0.3219
28552W        W44446  15.680   3.113  14.587  0.2186 -0.2045  0.3497
28553W        W44447  11.035   8.310   1.276 -0.3793  0.1956 -0.2680
28554W        W44448  16.798   7.377  14.962  0.4143  0.1034  0.1569
28555W        W44449  14.372   1.573  16.178 -0.0385  0.2106 -0.0575
28556W        W44450  14.823   1.180   2.461  0.0589  0.4176 -0.1866
28557W        W44451  10.590  17.494   2.154  0.0156 -0.3598 -0.0107
28558W        W44452  15.965   0.813  11.948  0.0170 -0.1178  0.0898
28559W        W44453  16.589   1.812   2.748  0.2913 -0.1355  0.1336
28560W        W44454  13.003  10.815   1.177  0.1991  0.0973 -0.2515
28561W        W44455   7.233  14.747   4.103  0.0045  0.2192  0.2233
28562W        W44456   1.877   6.156   6.246 -0.2251 -0.1039 -0.1605
28563W        W44457  12.872  10.998  14.028 -0.1739  0.1240 -0.2741
28564W        W44458   7.242  10.508   4.057 -0.1270  0.0684 -0.0364
28565W        W44459   2.295  14.158   4.681  0.0902 -0.1642  0.1822
28566W        W44460   2.348  16.480   6.339  0.1098  0.0807  0.2429
28567W        W44461   8.276   6.041  14.826  0.0225 -0.1566 -0.1060
28568W        W44462  11.025  10.552   1.613  0.0395 -0.0748  0.1264
28569W        W44463   1.855   0.146   4.419 -0.2403  0.1731  0.0161
28570W        W44464  16.039  15.204   5.217  0.0297  0.0954  0.1722
28571W        W44465   6.958   6.566   5.102 -0.3795 -0.1894  0.0944
28572W        W44466  12.526  15.342  12.065 -0.0003 -0.0122  0.2430
28573W        W44467   3.171   5.764   2.532  0.0366  0.2173 -0.0757
28574W        W44468   4.651   8.322  16.417 -0.0722  0.1685  0.2902
28575W        W44469   3.918   0.701  16.987  0.1484 -0.0481 -0.2173
28576W        W44470  15.278   7.051   5.194 -0.1718 -0.2337 -0.3566
28577W        W44471   0.988   0.519   2.685  0.3958  0.1554 -0.2389
28578W        W44472   5.648   0.459   4.562 -0.0927  0.1019 -0.0561
28579W        W44473   7.237  14.284  13.328  0.2336  0.0157  0.2468
28580W        W44474  17.632   0.663  14.137 -0.1888  0.2083  0.1129
28581W        W44475  12.666  12.724   5.051 -0.0564 -0.0017 -0.1219
28582W        W44476  13.116   5.480  12.901  0.0479  0.1513  0.0836
28583W        W44477   2.557   8.795  16.236 -0.0326 -0.0764  0.2680
28584W        W44478   8.541  13.327  13.430 -0.1470  0.0407  0.0469
28585W        W44479   6.599   3.569  15.665 -0.2986  0.2413  0.2011
28586W        W44480  12.968  15.060  13.459 -0.0655 -0.1512 -0.0032
28587W        W44481   4.541   1.149   0.389 -0.0374  0.0697  0.0768
28588W        W44482   4.639  14.751  15.075  0.1263  0.1943 -0.1796
28589W        W44483   8.013   1.667   4.410 -0.1342  0.0804 -0.1745
28590W        W44484  15.804   1.189  10.781 -0.3085 -0.1646 -0.1513
28591W        W44485   5.550  10.085  14.895 -0.0389 -0.2388  0.0002
28592W        W44486  11.163   9.444   2.928  0.2132 -0.4479  0.0466
28593W        W44487  11.934  11.305  15.293 -0.2000 -0.0347  0.0450
28594W        W44488   6.316  14.123   4.837  0.2553 -0.2181  0.3009
28595W        W44489  15.859  10.184   4.992 -0.3106  0.0802  0.1812
28596W        W44490  12.266  11.934   4.939 -0.3010 -0.0526  0.1260
28597W        W44491  14.431  14.794   3.698  0.1822 -0.0237  0.3954
28598W        W44492   3.323   7.875  12.804 -0.0500 -0.2553 -0.0789
28599W        W44493   0.861  13.197  15.911  0.3373 -0.1816  0.0716
28600W        W44494   8.432   4.300  13.654  0.0128  0.0599  0.1844
28601W        W44495  16.138  16.042   2.972 -0.0060 -0.0258 -0.1069
28602W        W44496   1.645  11.389  16.454 -0.1516  0.1159 -0.0814
28603W        W44497  13.183   6.725  16.552 -0.0002  0.1497  0.2347
28604W        W44498   6.424   6.515  11.774 -0.2667  0.2590  0.1644
28605W        W44499  14.227   7.278   2.396 -0.3045  0.0045 -0.0211
28606W        W44500   2.978   4.914   2.951 -0.3071  0.0703 -0.0821
28607W        W44501   0.657   5.868   6.198  0.0789 -0.0273  0.0205
28608W        W44502   6.902  13.749   4.360 -0.0192  0.0490  0.0301
28609W        W44503   5.936  14.256  14.630 -0.0602  0.1259  0.1833
28610W        W44504  16.451   6.313  16.011 -0.2647 -0.0372 -0.0794
28611W        W44505   1.909   7.648  12.851 -0.3106  0.2207  0.0403
28612W        W44506   0.733  16.792   2.589  0.1074 -0.0620  0.0863
28613W        W44507   0.003   5.306   0.614 -0.1420 -0.0877  0.1216
28614W        W44508  17.344   9.946  12.813 -0.0738 -0.2530 -0.3249
28615W        W44509   5.596  12.477  13.147  0.0695 -0.1300  0.0639
28616W        W44510  14.785  13.311  12.760  0.2049  0.1549  0.2876
28617W        W44511   0.078   5.110  13.544  0.1947 -0.0882  0.1264
28618W        W44512   3.442   4.913  14.287  0.1655  0.2703 -0.2163
28619W        W44513   1.654   0.998   4.595  0.0072  0.3528 -0.1015
28620W        W44514  11.161  15.978   2.911 -0.0608  0.0785  0.1051
28621W        W44515   0.579   5.078  16.681 -0.1287  0.1367 -0.0092
28622W        W44516  14.616   7.517   2.723  0.0418  0.2463 -0.1822
28623W        W44517   1.790  16.651  14.406  0.3231 -0.0249 -0.5731
28624W        W44518   8.685   9.688   3.653  0.2141 -0.2883  0.2327
28625W        W44519   6.958   9.083   4.962 -0.0925 -0.1777 -0.2521
28626W        W44520  16.077  12.746  17.001  0.1875  0.0018  0.2441
28627W        W44521  16.987   0.152  12.897 -0.0103  0.4708  0.3294
28628W        W44522  17.317  12.428   2.027  0.0408  0.3260 -0.0056
28629W        W44523  11.697  13.064  14.549  0.1905  0.0600  0.2889
28630W        W44524  14.856   6.456  12.064 -0.1561  0.3232 -0.1267
28631W        W44525  13.715  13.351   4.711  0.3158 -0.0857  0.0572
28632W        W44526  12.169  17.488   5.294  0.3044 -0.2488 -0.2261
28633W        W44527  15.210   4.967   2.634 -0.0749 -0.2017  0.0563
28634W        W44528  10.170  15.380  14.104  0.0045  0.0302 -0.3551
28635W        W44529   3.869   1.604  13.264 -0.0182  0.2492  0.0857
28636W        W44530  17.298   1.188  17.223  0.0644  0.3062  0.1688
28637W        W44531   5.204   8.084   0.663 -0.0399 -0.1660 -0.2480
28638W        W44532  13.077   9.491   2.166  0.1679  0.0906 -0.0165
28639W        W44533   4.673   4.436   4.952 -0.2027 -0.2612 -0.1122
28640W        W44534  16.776  12.865   1.261 -0.1343  0.1053  0.2621
28641W        W44535  16.098  16.432   4.935  0.1016 -0.1033 -0.0821
28642W        W44536  11.062   0.868   3.751  0.0702 -0.0673 -0.0608
28643W        W44537  13.294  17.326  14.781 -0.0046  0.2416 -0.2143
28644W        W44538  14.877   1.932  12.478  0.0154 -0.0018 -0.1696
28645W        W44539   3.974   1.276   2.227 -0.3502 -0.2319 -0.1722
28646W        W44540  10.299  14.653  12.219  0.0478  0.2409 -0.0435
28647W        W44541  13.319   1.449  12.636 -0.1671  0.2332  0.2168
28648W        W44542  11.149   4.393   4.217 -0.1370 -0.1875 -0.1191
28649W        W44543  10.901  17.534  14.933 -0.0483 -0.3423  0.1239
28650W        W44544   3.430  10.691   5.315  0.0196 -0.0119  0.1051
28651W        W44545   2.845  17.171   5.301 -0.0034  0.0637 -0.1745
28652W        W44546  16.057   8.011  12.817  0.2449  0.1147  0.1938
28653W        W44547   1.365  10.688   0.326 -0.0623  0.0716  0.2078
28654W        W44548   7.763   0.327   4.676  0.1850  0.1796  0.1755
28655W        W44549   6.235   3.702  15.349 -0.0755 -0.0623  0.3833
28656W        W44550  16.441  12.721  15.037 -0.1100  0.3349 -0.2497
28657W        W44551   7.348  14.710   4.999  0.1483 -0.0531  0.0346
28658W        W44552  15.618   7.195  13.311  0.1273  0.0754  0.2699
28659W        W44553   8.509  10.019   1.493 -0.4402 -0.3256 -0.0405
28660W        W44554   6.496   9.736   3.457 -0.2060 -0.0582 -0.0396
28661W        W44555   7.423  11.889  12.027  0.4187  0.0451 -0.2061
28662W        W44556  12.492  16.286  12.421 -0.1300  0.0402  0.0263
28663W        W44557   9.825   4.232   5.397  0.0742  0.0287 -0.3713
28664W        W44558  12.298  15.685   0.596  0.0924  0.2041  0.1647
28665W        W44559   4.774   3.563  16.586 -0.0056  0.1617  0.3392
28666W        W44560  16.642   5.000   0.984  0.1826  0.0807  0.3603
28667W        W44561  14.979   9.410   0.181  0.0798 -0.0719  0.1501
28668W        W44562  17.526   2.912   0.211 -0.0426  0.0138 -0.1042
28669W        W44563  15.134   5.535   4.788  0.0966 -0.3349  0.1869
28670W        W44564   5.505   5.292   5.091 -0.0198  0.1724  0.0107
28671W        W44565  12.657   9.887   0.941  0.1847  0.0473 -0.1168
28672W        W44566   7.311  15.249  17.068 -0.1282 -0.1648  0.0309
28673W        W44567  12.710  10.652  15.051  0.0788 -0.1892  0.0007
28674W        W44568   9.238   2.763   3.840  0.1190  0.0633 -0.4869
28675W        W44569   4.337   1.656   0.523  0.1715 -0.2936  0.0891
28676W        W44570  12.580  10.929  12.777  0.0247 -0.0619 -0.0814
28677W        W44571  13.222   9.573   4.349  0.0344  0.1070  0.1115
28678W        W44572   0.924   0.425   3.235  0.0839 -0.0634  0.1265
28679W        W44573   6.447   3.606   1.459  0.0520  0.0320 -0.1851
28680W        W44574   8.941   1.485   0.210  0.1472 -0.0700  0.1633
28681W        W44575   8.447   3.582   5.021  0.3307 -0.0893  0.1602
28682W        W44576  14.896   1.271   3.007 -0.1161 -0.1644 -0.0944
28683W        W44577   4.462  15.945   2.121 -0.2275  0.0108  0.0376
28684W        W44578   5.442   6.786  14.272 -0.1188 -0.1836  0.3563
28685W        W44579  13.068  14.862  11.988  0.0753 -0.0216  0.0221
28686W        W44580  14.038   0.044  16.866  0.1024 -0.0915 -0.1649
28687W        W44581  14.934   0.625   3.141  0.0263  0.0035 -0.2048
28688W        W44582   6.819  17.580  16.286  0.3783 -0.0702 -0.0941
28689W        W44583   8.698   6.988  14.749  0.3991 -0.1042  0.1631
28690W        W44584  12.499   4.029  15.873  0.1303  0.1795  0.5257
28691W        W44585   6.686  10.782   3.427  0.1372  0.2597  0.2621
28692W        W44586  12.373   9.414  13.694  0.0582  0.2121  0.0082
28693W        W44587  13.477  10.897  13.527  0.1302  0.1589  0.1139
28694W        W44588   8.752   5.271   5.095 -0.0643 -0.2116  0.0273
28695W        W44589   2.377   6.301  15.527 -0.0832 -0.3167  0.2401
28696W        W44590   3.317   3.680  16.897  0.0682  0.0013  0.3294
28697W        W44591  10.993   6.075   4.611 -0.2298  0.0057  0.1471
28698W        W44592   4.255  16.189  13.389  0.3661  0.1175  0.1646
28699W        W44593   2.813   7.084   2.081  0.1327 -0.1474 -0.0087
28700W        W44594   2.065  15.490  13.729 -0.1639 -0.2084  0.1475
28701W        W44595  13.477  12.487   3.714  0.4175  0.0428  0.1697
28702W        W44596   0.106  16.432   3.115 -0.0604 -0.1438 -0.0786
28703W        W44597  10.424  14.205  11.770  0.0401  0.0273  0.1452
28704W        W44598   7.919   2.626   0.750 -0.0294  0.3483  0.1394
28705W        W44599   4.600   9.122   4.167 -0.5680 -0.0318  0.1515
28706W        W44600   9.717  16.111  15.654 -0.1724  0.3223  0.3020
28707W        W44601  15.882   6.459  14.968 -0.0156 -0.1993  0.0142
28708W        W44602  11.399  11.443  12.848 -0.1755  0.1067  0.0699
28709W        W44603  17.530  12.156   5.502 -0.0235 -0.1467  0.0135
28710W        W44604   9.826  14.270  14.473 -0.1459 -0.1976 -0.0059
28711W        W44605   1.810   0.625   2.134  0.0355  0.1484  0.1102
28712W        W44606   4.396   9.500   2.785  0.0359 -0.0132  0.1834
28713W        W44607   7.990  16.027   5.080 -0.3076 -0.4240  0.0050
28714W        W44608   6.421   7.162   4.346 -0.1048  0.1306  0.2380
28715W        W44609  11.157  16.440  12.911 -0.0852 -0.1426 -0.0282
28716W        W44610   9.852  16.857  11.973 -0.3453 -0.0613 -0.3107
28717W        W44611   1.737  15.615   3.859  0.3370 -0.0360  0.1813
28718W        W44612  12.919   7.429  13.908  0.1633  0.0714 -0.0308
28719W        W44613   0.241   5.274   0.163 -0.1073 -0.0357  0.0601
28720W        W44614  14.464   6.691  15.859  0.1052  0.2766 -0.3850
28721W        W44615   9.530  15.728   5.173 -0.2165 -0.1605 -0.0240
28722W        W44616   8.925  11.961   4.348 -0.0830 -0.0502  0.0261
28723W        W44617   1.274  10.090   0.406  0.0216 -0.0861  0.1488
28724W        W44618   4.319   2.355   5.131  0.1467 -0.1839 -0.1450
28725W        W44619   3.289  10.650  16.148 -0.0490 -0.1807  0.0825
28726W        W44620  14.779   3.317   5.940 -0.1163  0.0327 -0.1702
28727W        W44621  13.843  14.555  13.637  0.0991  0.1470 -0.1649
28728W        W44622   5.053   2.144  13.856 -0.0944 -0.0122  0.1063
28729W        W44623  16.767  11.253   3.742  0.1164  0.0162 -0.1138
28730W        W44624   1.136   8.075   2.659  0.0590 -0.1128 -0.1019
28731W        W44625  11.735   4.319   4.008  0.1761 -0.1391 -0.0377
28732W        W44626  11.818  10.010  15.775 -0.0721 -0.1101  0.1268
28733W        W44627  10.380   7.353   2.794  0.1067 -0.0042 -0.0191
28734W        W44628   7.539  15.216   4.280 -0.1802  0.0502 -0.1080
28735W        W44629   5.459  11.578  11.718  0.0979  0.1837  0.1382
28736W        W44630   1.361   9.182  13.657 -0.1026  0.3241 -0.1729
28737W        W44631   0.850  14.810  15.437  0.0431 -0.2378 -0.0262
28738W        W44632   2.427   1.488   0.723  0.0826 -0.0712  0.1237
28739W        W44633   6.452  13.318  15.668 -0.0892  0.1418  0.3611
28740W        W44634  12.162   2.527  16.598  0.0341 -0.0515 -0.0818
28741W        W44635   1.574   0.599  13.796  0.2702 -0.1789 -0.1886
28742W        W44636   6.793   4.874  13.422  0.1959  0.1490  0.0197
28743W        W44637   2.502  12.040  17.011 -0.1482  0.0003  0.1063
28744W        W44638  14.268  13.111  16.513 -0.0214 -0.3299  0.0871
28745W        W44639  14.209  10.638  13.704  0.0833 -0.2715 -0.1910
28746W        W44640  17.324   8.813  13.717 -0.1689 -0.1101  0.0869
28747W        W44641   9.863   9.643   3.940  0.0809 -0.1714 -0.1898
28748W        W44642  10.781  10.271  14.151 -0.1273 -0.0993  0.1265
28749W        W44643   3.819  10.175  13.375  0.1180  0.0252 -0.1883
28750W        W44644  10.303  14.019   2.249 -0.2684 -0.1962 -0.0059
28751W        W44645   3.127   1.925   0.796 -0.2575  0.1494 -0.1694
28752W        W44646   7.254  13.316   1.860  0.0981  0.1307 -0.0621
28753W        W44647   1.560   3.126  12.305  0.4787  0.0943  0.0373
28754W        W44648  15.630  17.039  12.898 -0.1995 -0.0719 -0.0574
28755W        W44649   2.689   2.200   4.761  0.1894  0.0577  0.0162
28756W        W44650   7.995   9.118   2.624  0.1445  0.3068 -0.1043
28757W        W44651  17.412   5.160   1.068 -0.0019 -0.2048 -0.2165
28758W        W44652  14.735   2.635   4.593 -0.0199 -0.0782  0.1718
28759W        W44653   4.644   7.213   3.647  0.0056 -0.1349  0.1800
28760W        W44654   2.462   7.603  13.512  0.1782 -0.0488 -0.3189
28761W        W44655   3.813   3.703  13.557 -0.1247 -0.2694  0.2765
28762W        W44656  14.734  10.033   0.224  0.2134  0.2599 -0.4798
28763W        W44657   1.432   3.918  15.561  0.1512 -0.0998 -0.1625
28764W        W44658  12.586  12.256  12.009  0.1261  0.1911 -0.0248
28765W        W44659   8.888   2.094   1.600 -0.0230 -0.0475 -0.0052
28766W        W44660  12.630  11.448  12.421  0.1501  0.0279  0.3551
28767W        W44661   2.352  13.286   4.244  0.0114  0.1098 -0.1405
28768W        W44662  12.789   3.646  15.028  0.0008 -0.3208 -0.1320
28769W        W44663   6.768   4.414  16.891 -0.2839 -0.0183  0.0161
28770W        W44664  15.948  10.141   1.675  0.0956  0.0404 -0.0652
28771W        W44665  15.454   2.365   5.688 -0.0958 -0.2351 -0.2627
28772W        W44666  15.127   8.080  13.602  0.0876 -0.0592 -0.1691
28773W        W44667  17.199   9.839  17.063  0.2198 -0.0735  0.0320
28774W        W44668   4.910  15.387   5.452 -0.1438 -0.1554  0.0068
28775W        W44669  10.411  10.600   0.938  0.0360 -0.1761  0.2349
28776W        W44670   0.386   0.705   4.501 -0.0542  0.1659 -0.1121
28777W        W44671   4.026   9.594  15.695  0.2158  0.0768 -0.0797
28778W        W44672  15.206  15.481   5.313 -0.0475 -0.0559  0.1112
28779W        W44673   5.559   9.061   5.072 -0.1262  0.2962 -0.0750
28780W        W44674  17.491   6.033   5.671 -0.1095 -0.0545 -0.2680
28781W        W44675   2.253   7.427   0.046  0.1247 -0.1636 -0.2910
28782W        W44676   4.071   9.121   3.030 -0.2579 -0.0613  0.1590
28783W        W44677   6.533  12.542   3.957  0.0755 -0.1573 -0.2001
28784W        W44678   0.361  10.709  12.897 -0.1937 -0.0891 -0.3780
28785W        W44679  12.325   6.069   0.296  0.0336  0.0939 -0.0915
28786W        W44680   8.303  12.965   0.854 -0.1423 -0.0450 -0.1135
28787W        W44681  17.196   9.974  15.494 -0.1920 -0.3421  0.1399
28788W        W44682   9.888  12.443   3.362 -0.3223  0.1261  0.4332
28789W        W44683   7.812   7.781  13.438 -0.1792 -0.1553 -0.0128
28790W        W44684  13.302   9.096   2.808  0.1152  0.1371 -0.4868
28791W        W44685  10.871   0.677  12.280 -0.2267 -0.1136  0.0153
28792W        W44686   3.984   3.325   5.608  0.0501  0.1857  0.0807
28793W        W44687  11.152   3.714   3.644 -0.1639 -0.1237 -0.0331
28794W        W44688   1.002   1.210   5.196  0.0126  0.3238 -0.0256
28795W        W44689  11.033  13.818   3.707 -0.0915  0.0787 -0.0018
28796W        W44690  15.509   0.871  13.754  0.0382 -0.0099  0.0461
28797W        W44691  14.802   3.243  14.586  0.1264 -0.1137  0.2278
28798W        W44692  14.329  16.630   5.399 -0.3201  0.1219 -0.0834
28799W        W44693   3.127   9.114  16.513 -0.3916  0.0010  0.0686
28800W        W44694  12.597  16.215   0.793  0.0922 -0.0586 -0.0142
28801W        W44695   2.319   4.936  13.043  0.0939 -0.4318  0.0056
28802W        W44696  10.565  12.742  11.435 -0.0038  0.2680 -0.0126
28803W        W44697   2.164  17.218   5.056  0.1020  0.0747 -0.0612
28804W        W44698   6.362   5.889   5.673 -0.0944  0.1971  0.2632
28805W        W44699   1.887  17.130  16.969 -0.1120  0.0698  0.0436
28806W        W44700   8.221   7.313  11.992 -0.3936 -0.0070 -0.2264
28807W        W44701   0.220   8.426  14.098  0.1339 -0.0012 -0.1271
28808W        W44702   6.916  10.070   1.448 -0.2419  0.2171 -0.2495
28809W        W44703  16.862  10.325   1.058 -0.1170  0.1484  0.0380
28810W        W44704   8.667  10.151  15.945 -0.1668  0.1794 -0.1472
28811W        W44705   8.712  14.478  12.603  0.0578  0.1672 -0.2460
28812W        W44706   8.117   9.785   2.335 -0.1014  0.1216 -0.2836
28813W        W44707   9.782   6.257  12.479 -0.0899 -0.0707 -0.3168
28814W        W44708   2.485   3.103  15.784  0.0627 -0.4193 -0.2044
28815W        W44709  10.730  16.014  11.819 -0.0057  0.3649  0.0319
28816W        W44710   7.782   5.002  12.559  0.2912 -0.1154 -0.1309
28817W        W44711   1.165  11.391   2.541  0.0854 -0.1444  0.0245
28818W        W44712  13.359   5.102   4.210  0.1607  0.0124  0.3266
28819W        W44713   4.049   3.633   3.418  0.0693 -0.2031  0.1286
28820W        W44714   8.401   6.637   3.819  0.2540 -0.3972  0.1860
28821W        W44715   9.077   3.764   5.753  0.0252  0.0939 -0.0398
28822W        W44716  16.711   4.685   0.511 -0.4371 -0.0809 -0.2532
28823W        W44717   9.116   4.897   0.114  0.0832  0.1797  0.1439
28824W        W44718  15.919  16.806   4.545  0.0022 -0.1299  0.1542
28825W        W44719   2.331   8.922   6.619 -0.1509 -0.4398  0.1762
28826W        W44720  10.151   9.971   4.355 -0.2991 -0.0929  0.1346
28827W        W44721   7.874   9.555  15.928  0.1008 -0.0192  0.0591
28828W        W44722  10.810  15.109   5.476 -0.1916  0.2284  0.0235
28829W        W44723   7.460  11.786   0.002  0.4895 -0.1013  0.0322
28830W        W44724   7.163  15.598  14.083  0.1428  0.1027 -0.0210
28831W        W44725   6.122  14.944  14.670 -0.1120  0.2141  0.2874
28832W        W44726   0.172  12.229   4.150 -0.1053  0.2261 -0.1031
28833W        W44727   8.596  13.742   5.284 -0.3121 -0.1274  0.0609
28834W        W44728  15.991  12.314   0.456  0.4660  0.1606 -0.2044
28835W        W44729  10.797   5.490   2.672  0.2824 -0.0781 -0.2207
28836W        W44730   0.013   5.372   4.091 -0.1624 -0.0620  0.0731
28837W        W44731   9.443   2.539  12.099  0.3200  0.1141  0.0836
28838W        W44732  16.547  12.829   6.669  0.1948 -0.1673 -0.1745
28839W        W44733   8.851   7.453  16.366 -0.0862 -0.2203  0.1731
28840W        W44734   5.458   0.551   2.918 -0.0822  0.1198 -0.1697
28841W        W44735   1.538  14.781   0.286  0.1138  0.3349  0.0761
28842W        W44736   2.882   3.194   0.012 -0.3126  0.0146 -0.0800
28843W        W44737  16.275  14.365   2.680  0.0877 -0.0584  0.2594
28844W        W44738   2.272  11.682  14.888  0.0051 -0.2320  0.3214
28845W        W44739  10.784   0.269   4.186 -0.3327  0.0485 -0.0470
28846W        W44740   3.337   7.301   3.832 -0.1823  0.0288  0.2071
28847W        W44741  17.057   3.619   2.717 -0.1669 -0.0664 -0.1750
28848W        W44742  16.994  17.287   2.359  0.1544 -0.2544 -0.1034
28849W        W44743   9.849  16.670  16.665  0.1808  0.0823  0.0681
28850W        W44744  10.792   6.461   4.325 -0.1838 -0.2091  0.0654
28851W        W44745  12.923   4.556  14.648  0.2015  0.0017  0.1340
28852W        W44746  11.169   7.031  15.334  0.1572 -0.0058 -0.0215
28853W        W44747   0.628  10.152  15.818  0.1450  0.1366 -0.0110
28854W        W44748  17.123   5.899   0.100  0.1054 -0.1121 -0.1423
28855W        W44749  13.251  15.930   2.100  0.0174  0.0529 -0.2677
28856W        W44750  13.475   8.722  14.868  0.1676 -0.2310  0.1917
28857W        W44751   1.659  14.032  15.237 -0.1467 -0.0699  0.1258
28858W        W44752   8.775  14.946   4.479  0.0669 -0.0564 -0.0253
28859W        W44753   3.331  14.600  16.171  0.1936  0.1943  0.0068
28860W        W44754   5.284  10.260   0.315 -0.1838 -0.3992 -0.1465
28861W        W44755  11.945   3.650  13.596  0.0739  0.1681  0.1002
28862W        W44756   9.630   4.307   3.196 -0.4448  0.2481 -0.2665
28863W        W44757   0.600  10.688  17.083 -0.0243  0.2269 -0.1270
28864W        W44758   0.459   7.605  14.583  0.0309  0.2756  0.1752
28865W        W44759  13.953  14.850  17.230  0.1470  0.4911  0.2040
28866W        W44760  14.897   5.946  12.300 -0.1188  0.0457  0.2311
28867W        W44761  16.180  14.550   0.006 -0.1304 -0.0845 -0.0187
28868W        W44762   2.384  11.804   1.626 -0.0757 -0.0965 -0.1325
28869W        W44763   6.009   0.514  14.742 -0.0358 -0.0230  0.1363
28870W        W44764   0.630   1.506   4.103 -0.1955  0.0811 -0.0635
28871W        W44765  11.190  16.222   4.211 -0.3654  0.0730  0.1009
28872W        W44766  11.471  17.029   1.778  0.0108 -0.0481  0.0996
28873W        W44767  16.579   5.576  14.434  0.0087  0.0582 -0.0059
28874W        W44768  13.491   7.243  15.737 -0.3101  0.0963 -0.1022
28875W        W44769  11.163   5.171   2.568 -0.2917  0.0825 -0.0933
28876W        W44770   6.868  12.069   3.123 -0.1632  0.1424 -0.0147
28877W        W44771   4.211   9.498   5.110  0.1303 -0.1820  0.0651
28878W        W44772   3.510  16.068   5.412 -0.0252 -0.0939 -0.2037
28879W        W44773   2.824  15.979  11.112  0.0621 -0.1618  0.0658
28880W        W44774   9.515   8.941  13.482 -0.1243 -0.2668  0.0246
28881W        W44775   6.193   1.326   1.744 -0.1031  0.0518 -0.1338
28882W        W44776   3.271   6.454   1.439 -0.0544 -0.1205  0.0235
28883W        W44777  13.735   4.389   5.046  0.0251 -0.2456 -0.2598
28884W        W44778  11.795  17.096  15.706 -0.3371  0.0541 -0.2693
28885W        W44779   4.219  13.396   0.801  0.0554 -0.1183 -0.1182
28886W        W44780   3.896   2.072  12.462 -0.1433  0.2252 -0.1694
28887W        W44781   5.258   5.281   3.663  0.0562 -0.0538 -0.0934
28888W        W44782  12.457   9.977   5.253 -0.0333  0.4161 -0.1317
28889W        W44783  15.298  10.450   5.547  0.1473 -0.1565  0.1888
28890W        W44784   4.564   4.618   1.803  0.0407 -0.0544 -0.2193
28891W        W44785   6.845  17.036   4.896  0.3248 -0.0276 -0.0172
28892W        W44786   1.350   5.854   0.610 -0.3217  0.2619 -0.0831
28893W        W44787  15.983   7.906   2.416  0.0095 -0.1946  0.0007
28894W        W44788   3.836  16.381  16.518  0.2641  0.1539 -0.0872
28895W        W44789  16.261   8.264   0.561 -0.0332  0.3221 -0.1741
28896W        W44790  10.507  17.219  14.762  0.0613 -0.1938  0.3044
28897W        W44791   5.863  16.679  12.237 -0.1856  0.1634 -0.0010
28898W        W44792  12.018  15.377   5.399 -0.2615 -0.1015  0.2016
28899W        W44793   9.775   5.138   1.776 -0.2593  0.0341  0.1193
28900W        W44794   1.418  11.832  10.908  0.0323 -0.4434 -0.1395
28901W        W44795  12.159   1.041  16.192  0.1674  0.3582 -0.3126
28902W        W44796   4.244  11.805   2.817  0.2725 -0.0014 -0.2785
28903W        W44797  16.349  11.824   4.967 -0.1104  0.0854  0.0172
28904W        W44798   4.098  14.178  13.403 -0.2225  0.0391  0.1564
28905W        W44799  11.098  14.282   5.785 -0.0068 -0.2698  0.0875
28906W        W44800   3.197   4.700  14.646 -0.0791 -0.1053 -0.0865
28907W        W44801   9.476  10.635  13.740 -0.0103  0.1617 -0.1548
28908W        W44802   9.793  11.449  13.576 -0.0001 -0.4695  0.1861
28909W        W44803   7.567   4.152   2.982 -0.1091 -0.1524 -0.2582
28910W        W44804  10.598  13.252   1.228 -0.2097  0.2806  0.1744
28911W        W44805   4.029   5.221  15.504 -0.3890  0.2635 -0.1276
28912W        W44806  14.189  16.229   1.930 -0.1795  0.0438 -0.1724
28913W        W44807   1.482   7.580   3.815 -0.0953 -0.1155 -0.2343
28914W        W44808   5.504  11.809   2.619 -0.1711  0.1221  0.0075
28915W        W44809   1.071  13.023   5.012 -0.0494 -0.0229  0.2978
28916W        W44810   2.096   3.202  12.745 -0.1372  0.0648 -0.2697
28917W        W44811  13.000   7.038   3.101 -0.2159  0.2306 -0.3189
28918W        W44812   8.172  15.785   0.653  0.1325  0.2099 -0.2734
28919W        W44813   9.946  14.424  12.630 -0.2504  0.3295 -0.5081
28920W        W44814  11.544   4.973   3.572 -0.1356  0.0431  0.2003
28921W        W44815  14.440   7.559   1.066  0.0239  0.0466  0.1912
28922W        W44816   2.590   1.531   0.235  0.0234 -0.1383 -0.0847
28923W        W44817   3.389   5.464   3.373  0.3126  0.4323  0.0135
28924W        W44818  16.859   4.243  16.839 -0.0730 -0.0365  0.0711
28925W        W44819   5.145   8.596   3.681  0.1424  0.1089  0.1650
28926W        W44820   9.828  13.552   5.793 -0.1573  0.0385  0.0587
28927W        W44821   6.571  17.385  14.621  0.0762 -0.0891 -0.0163
28928W        W44822  16.360  16.125   4.194  0.3634 -0.1575  0.0363
28929W        W44823   5.759  12.398   4.489 -0.1388 -0.0686 -0.0307
28930W        W44824   5.808  17.299   1.018 -0.1090  0.0672 -0.0530
28931W        W44825  12.445   7.048   3.076  0.0744  0.1510 -0.0767
28932W        W44826  12.864  12.468   2.921  0.0795  0.1680  0.0915
28933W        W44827   9.487   3.098  13.933  0.2028 -0.2177 -0.0875
28934W        W44828   3.602  10.678  16.538  0.0458  0.0378 -0.0697
28935W        W44829  10.409  13.504   2.864  0.0012 -0.1961  0.4815
28936W        W44830  16.396  17.122  14.226 -0.1809 -0.0536 -0.3438
28937W        W44831  13.818   2.428  15.774  0.3099  0.2104 -0.2126
28938W        W44832   9.232  13.236  15.595  0.1384 -0.0274  0.1587
28939W        W44833  10.059   4.264  15.816 -0.0544 -0.0089 -0.1692
28940W        W44834  14.768  16.832   1.666 -0.3011 -0.1104  0.2100
28941W        W44835   6.381   8.789   2.303 -0.0234 -0.0423  0.2402
28942W        W44836   3.421   2.940  15.802 -0.1965  0.1775  0.0590
28943W        W44837  15.473   0.080   0.931 -0.0077 -0.1499  0.0437
28944W        W44838   3.961  16.035  11.866  0.2424 -0.1785 -0.2621
28945W        W44839   2.415   5.154   6.121 -0.1496  0.0504 -0.1429
28946W        W44840  16.963   8.428   0.116  0.0662  0.1500  0.2135
28947W        W44841  15.102  11.196   2.839  0.0759 -0.0042 -0.0312
28948W        W44842  15.144   6.687   4.713  0.1325  0.0503  0.2126
28949W        W44843   1.127   5.918  14.642  0.2384  0.0511 -0.3029
28950W        W44844   2.190  11.541   6.316  0.1026  0.0761  0.1650
28951W        W44845  16.729  16.742   0.547  0.1068  0.0740 -0.0414
28952W        W44846   7.652  10.581  14.781  0.2451  0.3171  0.0907
28953W        W44847  17.195  13.665   0.724  0.2797  0.0212  0.0673
28954W        W44848   3.623  13.882   5.147 -0.1138  0.2225 -0.2435
28955W        W44849   4.194  10.355   2.359  0.1564 -0.1293  0.0090
28956W        W44850   0.382   3.623   3.055 -0.1942 -0.1271 -0.0588
28957W        W44851   4.369  10.996   3.030  0.1088 -0.1300 -0.2188
28958W        W44852  11.224   6.735  13.353  0.2336  0.0218 -0.1071
28959W        W44853   4.569   5.865  13.981  0.1360 -0.0723 -0.2749
28960W        W44854  17.115   0.930   1.038  0.1730  0.1436  0.4331
28961W        W44855  14.787   1.639   0.709  0.3442 -0.0986 -0.0861
28962W        W44856  13.073   4.827   4.565  0.1556 -0.0843 -0.2765
28963W        W44857  12.213   5.187   0.845 -0.0811 -0.3921  0.0012
28964W        W44858  17.351   7.211   2.208 -0.0018  0.1260 -0.2589
28965W        W44859  12.895   9.663  14.498 -0.3166  0.0741 -0.0681
28966W        W44860   4.005   6.677  13.200 -0.3311 -0.2346 -0.0099
28967W        W44861  10.869   7.271   1.466 -0.0327  0.1222 -0.0194
28968W        W44862  13.097   8.510   0.052  0.0658 -0.1770 -0.1319
28969W        W44863   3.413   6.216   0.131 -0.0625 -0.2876  0.0706
28970W        W44864  14.054  16.825   1.370  0.1230  0.1512 -0.1655
28971W        W44865   2.391   8.121  17.116  0.0468  0.1271 -0.0174
28972W        W44866   4.628  14.348   5.493  0.2362 -0.5225  0.1764
28973W        W44867  13.339  11.869   1.156  0.3167 -0.1486 -0.0645
28974W        W44868  12.137  16.110   4.460 -0.0056  0.2840 -0.1695
28975W        W44869   8.226   7.045   3.507 -0.2503  0.0093  0.2205
28976W        W44870  14.879  12.900  13.996  0.0931 -0.0053 -0.3196
28977W        W44871   2.284  14.555   4.123  0.2466  0.3440 -0.0138
28978W        W44872   9.260   3.978  13.745 -0.0062 -0.0585 -0.1557
28979W        W44873   4.118   2.193  14.114 -0.0906 -0.1080 -0.0836
28980W        W44874   8.318   8.542   0.986  0.0549 -0.0717 -0.1043
28981W        W44875   8.578   8.696  15.109  0.3938 -0.2775  0.3938
28982W        W44876   5.049   3.789  12.626 -0.1075  0.2565  0.0056
28983W        W44877   7.079  17.551  15.840  0.2659 -0.1231 -0.0253
28984W        W44878  14.364  17.579  11.783  0.0379 -0.0563 -0.1806
28985W        W44879  14.576  13.161  12.195 -0.1139 -0.2647 -0.1542
28986W        W44880   6.597  10.562  12.774 -0.0338 -0.1575  0.4992
28987W        W44881   3.500   9.252   5.667  0.0766  0.1534 -0.0744
28988W        W44882  12.608  17.464   2.437 -0.1467 -0.2082  0.0491
28989W        W44883   2.335   0.670   2.254 -0.0304  0.0542 -0.1239
28990W        W44884   7.720   1.321  15.752 -0.2610  0.0739 -0.3341
28991W        W44885  12.148   6.149   2.294 -0.2197 -0.0360 -0.1248
28992W        W44886   7.595   8.198  12.209  0.0575 -0.1883 -0.1737
28993W        W44887   7.532   3.393  16.899  0.1570 -0.0121  0.0389
28994W        W44888   2.064   1.201  15.377 -0.0452 -0.0647  0.1957
28995W        W44889   0.396   5.671   4.177 -0.0999  0.1368 -0.0115
28996W        W44890   2.566   1.239   6.522  0.0448 -0.0170  0.1259
28997W        W44891  17.532  16.439   2.642  0.1994 -0.2646  0.0355
28998W        W44892   2.144   4.399   0.036  0.4228 -0.0509 -0.0067
28999W        W44893  17.599   8.869  14.181 -0.0318 -0.2118  0.1030
29000W        W44894  14.378   7.661  16.337  0.1809  0.2440  0.2197
29001W        W44895  12.246  13.455  13.460  0.0767 -0.0289  0.2207
29002W        W44896   5.562   8.987   3.367 -0.0852  0.4429 -0.0213
29003W        W44897   3.285  14.463   1.197 -0.0628  0.0754  0.0267
29004W        W44898   3.471  12.780  15.682  0.0296  0.3497  0.5681
29005W        W44899   0.040  11.534  15.063 -0.0485  0.1448  0.3348
29006W        W44900   7.218  15.323  12.296  0.0394 -0.1904  0.0888
29007W        W44901   5.367   4.446   2.443  0.3329 -0.0165  0.1099
29008W        W44902   2.209   3.862  13.365  0.2325  0.5563 -0.0809
29009W        W44903  15.286  11.691  13.829  0.0237 -0.1359  0.1350
29010W        W44904  14.756  16.651  16.742  0.1247  0.1082 -0.1386
29011W        W44905  15.646  12.691  12.938  0.0312  0.1149 -0.1867
29012W        W44906   0.821  11.199   0.091  0.1712 -0.0456  0.2650
29013W        W44907   7.104  12.129  16.985 -0.2204  0.1304 -0.0151
29014W        W44908   9.574   9.060   3.901 -0.0022  0.2076 -0.0673
29015W        W44909   8.834  17.520  16.729 -0.2651  0.0099  0.1892
29016W        W44910  17.342   9.347  14.404 -0.0378 -0.0230  0.0913
29017W        W44911   8.423   6.125   2.025 -0.1427 -0.0147  0.1323
29018W        W44912  12.406   8.271  14.106  0.1159  0.0808 -0.2529
29019W        W44913   7.180  12.847   5.625 -0.2100 -0.0094  0.2739
29020W        W44914   6.042   9.352  14.583  0.2494  0.0508 -0.1709
29021W        W44915   5.355   9.651  15.856 -0.0596 -0.0326  0.1856
29022W        W44916   9.079   4.166   1.572 -0.0255 -0.0246 -0.0969
29023W        W44917   6.136  15.780   0.244  0.0379  0.0205 -0.1672
29024W        W44918  17.589   2.285   1.444 -0.1998 -0.1684  0.1737
29025W        W44919  13.587   5.753  13.004  0.0998  0.1589  0.2653
29026W        W44920   7.711   2.152   5.291 -0.2539 -0.0783  0.2669
29027W        W44921  10.623   7.192  11.188 -0.0767  0.3472  0.1746
29028W        W44922   0.095  14.346   3.702 -0.0305 -0.0968  0.0389
29029W        W44923   6.040   0.541   2.007 -0.0789 -0.1034 -0.0336
29030W        W44924   0.977  17.323   1.952 -0.0177  0.4676  0.1295
29031W        W44925  14.653  12.241  16.986 -0.0470 -0.0876 -0.0373
29032W        W44926   9.519   3.966   1.483  0.3613 -0.1165  0.2333
29033W        W44927  14.043   9.518  13.421 -0.1336 -0.0798 -0.1592
29034W        W44928  10.182   4.506  14.050  0.1113 -0.1338  0.2057
29035W        W44929  10.860   5.012   2.933  0.0712  0.2287 -0.1816
29036W        W44930   5.967   6.606   5.361  0.0108  0.0499 -0.0565
29037W        W44931  11.390   7.978   4.668 -0.0026 -0.2498  0.0543
29038W        W44932   9.591   5.022   2.367  0.2606  0.1387  0.1603
29039W        W44933  10.749  12.540   3.813 -0.2022  0.2684 -0.2280
29040W        W44934   6.347  16.959  15.746 -0.1175  0.1573  0.2295
29041W        W44935  11.258   6.567   2.194  0.2590 -0.2792 -0.1353
29042W        W44936   1.336   7.597   1.346  0.0184 -0.0846  0.2814
29043W        W44937   5.890  14.043  12.044  0.1183  0.1448  0.4056
29044W        W44938  15.906  15.934   1.314  0.1199 -0.0419  0.1855
29045W        W44939  12.991  12.562   4.657  0.0014  0.0520 -0.0713
29046W        W44940   5.636  13.146   0.388  0.1619  0.0449  0.0003
29047W        W44941   5.508   1.730  15.965  0.1922  0.1274  0.0077
29048W        W44942   9.721   0.637   3.561 -0.0840  0.0971  0.0133
29049W        W44943   6.108   9.819   0.737 -0.1331  0.1119  0.4052
29050W        W44944   1.477  11.870   4.737  0.0054 -0.2802 -0.0603
29051W        W44945   7.745  13.325  16.771  0.2186 -0.2012 -0.4070
29052W        W44946  17.011  16.088  17.270 -0.2767  0.3424 -0.2398
29053W        W44947  11.206  13.187   5.169  0.2263 -0.0945 -0.2055
29054W        W44948   2.529   7.151  16.852  0.0557 -0.1229 -0.0492
29055W        W44949  13.741  12.848   1.006 -0.1919 -0.2275 -0.0422
29056W        W44950  15.205  15.389   0.188  0.1086  0.1570  0.1174
29057W        W44951   2.181  11.082   2.243  0.0605 -0.0795 -0.1833
29058W        W44952   2.696   9.488  15.700  0.0664  0.2169  0.2012
29059W        W44953  17.112  10.958   4.097 -0.0368  0.0996 -0.0290
29060W        W44954  10.289   1.269  17.161 -0.2033 -0.2937  0.0104
29061W        W44955   1.721   8.665   3.147 -0.0109 -0.1647  0.1350
29062W        W44956   0.430   7.994   1.439  0.0045  0.0597  0.2170
29063W        W44957  10.071  16.595   4.936  0.0605  0.1583 -0.0635
29064W        W44958   5.798  14.826  13.455  0.2182 -0.1034  0.1110
29065W        W44959  10.613   5.849   4.391 -0.1569  0.1335  0.0032
29066W        W44960   0.311  10.542   4.067 -0.1263  0.0907  0.0280
29067W        W44961   7.499  16.871   6.077 -0.1627 -0.0424  0.0889
29068W        W44962   8.288  15.655  15.690  0.1606  0.0308 -0.3931
29069W        W44963   5.402   9.128   2.293 -0.0009 -0.3991 -0.1369
29070W        W44964  16.581   6.592   1.964 -0.3305 -0.1095  0.3886
29071W        W44965   8.374  15.469  12.825  0.0632 -0.1720  0.0085
29072W        W44966  15.128   2.845   3.480 -0.0840 -0.2987 -0.1197
29073W        W44967   9.466  12.090  12.215 -0.0158  0.0841  0.1260
29074W        W44968  11.765   5.522  15.424 -0.0337  0.0496 -0.1850
29075W        W44969  12.748   7.456   4.267 -0.2449 -0.0317 -0.1631
29076W        W44970  15.558  11.797  13.364  0.3087  0.2431  0.1892
29077W        W44971   6.543   4.954   2.861 -0.0639 -0.0328  0.1278
29078W        W44972   5.768   3.937  15.532 -0.1338 -0.2977  0.0119
29079W        W44973  12.580   4.742   5.813 -0.1097  0.0219  0.0494
29080W        W44974   1.090  10.957   0.740 -0.0122 -0.1327  0.0159
29081W        W44975   9.201   2.030   4.383  0.2315  0.0342 -0.1057
29082W        W44976  11.822  10.000  15.252 -0.0918  0.2123  0.0237
29083W        W44977  10.700  15.461   2.480 -0.1442 -0.3120 -0.1992
29084W        W44978   9.063   6.197  14.180 -0.0861 -0.1061 -0.0101
29085W        W44979   1.104   4.721   1.524 -0.0704  0.0675 -0.0764
29086W        W44980  15.712   4.400   0.340 -0.1380  0.1022  0.1893
29087W        W44981  15.371  15.218  15.468  0.2277 -0.0013  0.2620
29088W        W44982   5.789  13.495   3.791  0.0786 -0.2769  0.1391
29089W        W44983  15.210   5.233   3.583  0.1506 -0.1264 -0.0067
29090W        W44984  17.287  10.040  12.017  0.1871 -0.2942  0.1489
29091W        W44985   1.263   9.263  12.327  0.2243  0.1087  0.2923
29092W        W44986   3.109   8.781  13.651  0.1481 -0.1080  0.0658
29093W        W44987   9.713   4.667   5.150  0.3093  0.1597  0.2376
29094W        W44988   2.928  11.032   1.800 -0.1051 -0.2509  0.0878
29095W        W44989  14.306  10.818  15.138 -0.2998  0.2728  0.2502
29096W        W44990   0.480   6.320  17.076 -0.2498 -0.0005  0.0878
29097W        W44991   8.725   1.757  13.368 -0.1421 -0.0027 -0.1655
29098W        W44992   0.753   4.077  12.624 -0.0092  0.2415 -0.2297
29099W        W44993  13.100  10.283   1.289 -0.0256 -0.0989 -0.0247
29100W        W44994   8.432  13.500  15.241 -0.0961  0.2941  0.2447
29101W        W44995   3.194  12.440   2.952  0.1910 -0.1811 -0.1302
29102W        W44996  14.617   7.246   0.729 -0.1126 -0.0898 -0.3614
29103W        W44997  15.715  14.644   4.354 -0.0362 -0.1535  0.2081
29104W        W44998  15.446  15.219   2.476 -0.0865 -0.1733  0.0741
29105W        W44999   1.234  15.932  16.980  0.0401 -0.2861  0.1201
29106W        W45000  14.303   8.221  14.561 -0.0716 -0.3241 -0.1082
29107W        W45001  16.049   2.215  14.214  0.4311  0.1289  0.3694
29108W        W45002   5.226   9.887  12.529  0.2741 -0.2128 -0.1720
29109W        W45003  10.624   1.135  13.136 -0.1114 -0.2654  0.0652
29110W        W45004   3.059   2.208   2.962 -0.2383 -0.0333  0.2932
29111W        W45005   9.539  14.672  16.626 -0.0956  0.0881 -0.0471
29112W        W45006   7.752   8.180   0.439 -0.1760 -0.1616 -0.0770
29113W        W45007  13.430   8.124  13.952 -0.0097  0.5338 -0.0131
29114W        W45008  11.921   5.546  17.111 -0.2334 -0.1889  0.4812
29115W        W45009   3.504   5.692  13.020 -0.2256 -0.2555  0.0571
29116W        W45010   5.691  16.125  16.324  0.2218  0.0040  0.3422
29117W        W45011   5.323   9.502   0.803  0.3799  0.1669 -0.0585
29118W        W45012   9.008   4.960  13.852  0.0552 -0.0922  0.1301
29119W        W45013  15.447  15.011   0.495  0.0347 -0.0113 -0.1046
29120W        W45014  13.361   2.077   4.233  0.0269 -0.0579  0.3561
29121W        W45015  17.613   2.113  12.526  0.1935 -0.0395  0.0919
29122W        W45016  12.846   4.484  12.881  0.0313 -0.3069  0.0700
29123W        W45017   3.990   0.616   4.412 -0.0430  0.3614  0.1576
29124W        W45018  15.752   7.108  14.975  0.0907 -0.2304  0.0844
29125W        W45019  14.105  15.193   3.501 -0.0856  0.1795  0.0170
29126W        W45020  13.118  16.903  15.954 -0.1204 -0.0520 -0.2638
29127W        W45021   3.405  12.182   6.349  0.2395  0.1669  0.1197
29128W        W45022   4.227   8.858   6.484 -0.0374 -0.1669  0.1113
29129W        W45023  13.802  11.933   0.892 -0.1542  0.0563  0.1253
29130W        W45024  15.801   3.644  16.815 -0.2135 -0.2554 -0.0381
29131W        W45025  11.341  15.184  11.866 -0.1055 -0.1549 -0.1883
29132W        W45026   5.048   4.607  12.878 -0.1273 -0.0527  0.2044
29133W        W45027   8.502   3.816  13.902 -0.2129  0.2172  0.1259
29134W        W45028   2.056  14.734  15.016  0.0074  0.1343 -0.2053
29135W        W45029   6.239  15.827   4.305 -0.0519  0.1332  0.2160
29136W        W45030  11.262  10.946  13.066  0.1980  0.4277 -0.0113
29137W        W45031   9.549  14.754   5.036  0.0161  0.0410 -0.3584
29138W        W45032  10.827   1.975   0.548  0.0734  0.0879 -0.0720
29139W        W45033  12.628   8.062  14.494  0.1526  0.3096 -0.1424
29140W        W45034   3.959  15.569   4.864 -0.4592  0.2971  0.2657
29141W        W45035  13.034   3.797   4.694 -0.0171  0.2539 -0.2641
29142W        W45036  14.306  13.375  12.921  0.3351 -0.2441  0.1258
29143W        W45037   8.324  10.381  11.397 -0.2954 -0.0047  0.0452
29144W        W45038   3.440  17.200   2.939 -0.0268 -0.2458  0.2666
29145W        W45039  10.313   0.504  15.127 -0.0347 -0.2147  0.0229
29146W        W45040   6.462   4.437   1.168 -0.1303  0.1281  0.1795
29147W        W45041  13.788   0.222  16.460  0.2807  0.0029 -0.3151
29148W        W45042  16.126   9.347  14.833  0.0285  0.0369  0.0531
29149W        W45043  17.103   4.831   3.693 -0.2638  0.3795  0.0887
29150W        W45044  10.449  16.815   4.729 -0.4118 -0.1319  0.1507
29151W        W45045   6.126   1.195   4.193  0.0047 -0.0731  0.0969
29152W        W45046   4.229   3.558   3.893 -0.0364 -0.0515 -0.0779
29153W        W45047  15.699  14.409  13.882 -0.3215  0.0996 -0.0554
29154W        W45048  16.769   0.949   2.469  0.2856 -0.0937  0.3294
29155W        W45049   0.704  12.731   0.942  0.3672  0.2084  0.2931
29156W        W45050  11.198   9.888  13.336 -0.0632  0.1120 -0.0418
29157W        W45051   1.284   4.232   3.547 -0.3806 -0.0885 -0.0169
29158W        W45052  17.131   2.621   0.229  0.2151  0.1868  0.1113
29159W        W45053   4.056   7.642  13.120  0.0474 -0.0971 -0.0815
29160W        W45054  13.436   6.440  14.696 -0.1475 -0.0683  0.2282
29161W        W45055  16.854   9.906  12.183 -0.1532 -0.0715  0.0875
29162W        W45056   7.255   8.976  16.841 -0.0364 -0.2416  0.0135
29163W        W45057   3.922  11.482  16.449 -0.2000 -0.0459  0.0297
29164W        W45058  13.134   3.522   1.404 -0.2507  0.0087 -0.2376
29165W        W45059   2.184  15.247  16.336  0.0509 -0.2237 -0.5021
29166W        W45060   3.328  16.136   3.060  0.1133 -0.3466 -0.0108
29167W        W45061   3.984  17.424   3.662 -0.2579 -0.2350  0.2106
29168W        W45062  13.176   9.258   5.082 -0.0563  0.1314  0.0875
29169W        W45063   3.833  11.394   1.063 -0.0990  0.2096  0.0656
29170W        W45064  10.148  12.412   4.857  0.0110  0.0501 -0.2292
29171W        W45065  11.886   8.795   1.114 -0.1752  0.1590 -0.2518
29172W        W45066  14.030  12.702  14.695 -0.2125 -0.1208 -0.2281
29173W        W45067   0.069  17.307   0.888 -0.4390  0.2078 -0.2176
29174W        W45068  14.064   7.343   4.097 -0.0597  0.0731  0.3028
29175W        W45069   9.703  15.531  14.852  0.0318 -0.1181  0.1376
29176W        W45070  15.250   4.228  15.293 -0.2307  0.0604  0.2148
29177W        W45071  14.679  15.445  11.136 -0.2629 -0.0285  0.2563
29178W        W45072  11.797   8.638  16.063  0.3627 -0.0247 -0.1665
29179W        W45073   8.017  11.055   3.610  0.2123 -0.2452 -0.4033
29180W        W45074  13.686  11.834   1.981  0.0667 -0.2193  0.1818
29181W        W45075  10.061  14.311   1.924  0.0477 -0.2045 -0.3590
29182W        W45076   7.805  11.009   1.016 -0.0937 -0.2922  0.2447
29183W        W45077   4.801   8.208  13.455  0.2924 -0.1213 -0.1381
29184W        W45078   2.342   7.051   0.825 -0.0452  0.0231 -0.0927
29185W        W45079   8.456  14.657   2.020  0.1556  0.0577 -0.0052
29186W        W45080  15.851  17.529   5.283 -0.1090  0.1225  0.1819
29187W        W45081   9.185  16.903   3.493 -0.2260 -0.3387  0.3991
29188W        W45082  11.883  16.726   0.206  0.2244 -0.1177  0.0356
29189W        W45083   2.711  15.327   5.281  0.1652  0.2605 -0.2547
29190W        W45084   2.968   9.496  12.346 -0.1126  0.0644 -0.4373
29191W        W45085  13.528  15.731   0.795  0.1812  0.0813 -0.2519
29192W        W45086  16.597   1.497   3.329  0.0571 -0.0048 -0.3087
29193W        W45087  14.307   9.711   3.558 -0.2722 -0.0704  0.0392
29194W        W45088   0.502   1.457  16.727 -0.2401  0.2173 -0.3107
29195W        W45089   7.822   3.414   1.389  0.0213 -0.0600 -0.0573
29196W        W45090   2.112   3.657  12.457  0.1775  0.1516  0.1334
29197W        W45091   4.281  15.515  12.656  0.1683 -0.1701  0.1476
29198W        W45092  17.033  12.859  14.150 -0.1462 -0.0292  0.0746
29199W        W45093  14.515  16.265   4.296 -0.0842  0.0936  0.3319
29200W        W45094   6.448  12.095  13.272 -0.1808  0.4007  0.1126
29201W        W45095  16.264  10.120   4.036  0.0041 -0.0910 -0.2816
29202W        W45096  15.007   9.822  16.583  0.1832  0.0482 -0.0479
29203W        W45097   0.921  14.298   4.570 -0.0311 -0.1975 -0.2225
29204W        W45098   7.749  13.928   5.975 -0.2526 -0.2730 -0.1213
29205W        W45099   8.828   9.314   2.800  0.2890 -0.0083  0.0699
29206W        W45100   0.666  15.998   5.507 -0.1250 -0.2832  0.0831
29207W        W45101   3.338   0.406   5.431 -0.0785  0.0478  0.1088
29208W        W45102   8.459   6.553  12.188 -0.1065  0.2702  0.1756
29209W        W45103  16.805  14.914   3.059  0.1085  0.0429 -0.1761
29210W        W45104  15.093  14.548  13.230  0.0591 -0.1311 -0.1792
29211W        W45105  11.695  14.603   2.395  0.0796  0.2182  0.0664
29212W        W45106   7.565   1.803   1.071  0.3683 -0.1550  0.0826
29213W        W45107   5.295   3.276  13.301 -0.1515 -0.1726  0.3319
29214W        W45108   5.337  12.925   1.522 -0.1784 -0.0036 -0.0454
29215W        W45109  16.828  16.325  13.975 -0.2177  0.0713 -0.0893
29216W        W45110  12.668  12.100   3.274  0.0212 -0.0690 -0.0941
29217W        W45111  13.638   3.081  11.695 -0.3081  0.1783  0.1107
29218W        W45112   0.048  16.647   4.062 -0.0570 -0.0478 -0.0579
29219W        W45113   1.210   5.294   4.540 -0.0775  0.2610  0.0232
29220W        W45114  16.704  11.660  15.116  0.1966 -0.0788  0.0933
29221W        W45115   3.387  16.614  14.192  0.0244 -0.2828 -0.0948
29222W        W45116  16.905  12.240  11.676  0.2847 -0.1869 -0.2516
29223W        W45117   9.878   6.392   5.359 -0.0301 -0.0676  0.0512
29224W        W45118   1.929   4.632  15.591 -0.1875 -0.1541  0.0716
29225W        W45119  12.258   8.705   0.269 -0.0552  0.0159  0.2069
29226W        W45120   7.574  13.165  12.150 -0.1754 -0.2428  0.0389
29227W        W45121   9.444   4.936  16.292 -0.1380 -0.1124  0.0500
29228W        W45122   8.727  16.532   1.565  0.1640 -0.1216  0.1291
29229W        W45123  11.183   8.003  14.415  0.3616 -0.3060 -0.1554
29230W        W45124  17.582   1.563  12.331 -0.2630 -0.2833  0.1978
29231W        W45125  11.621  11.230  15.703  0.0148 -0.0196  0.3661
29232W        W45126   7.885   8.745  16.151  0.2594  0.0053 -0.0706
29233W        W45127   4.952  13.644   2.910  0.3229  0.0411 -0.2085
29234W        W45128   2.931  12.302   6.248  0.0082 -0.0874 -0.2638
29235W        W45129  17.390   2.388   4.221 -0.2251 -0.3425 -0.1136
29236W        W45130   8.603   0.893  13.079 -0.2295  0.2695 -0.1658
29237W        W45131   1.840  14.243   1.170  0.0869  0.1373  0.0466
29238W        W45132  17.295  10.737   1.362  0.2769  0.5114  0.0695
29239W        W45133   8.511   7.773  11.967 -0.0460 -0.0519 -0.2456
29240W        W45134   5.145  15.277   3.205  0.0903 -0.1750 -0.0915
29241W        W45135  11.361   6.462  13.691 -0.0195  0.2278 -0.1053
29242W        W45136   7.945   3.299   5.845  0.1527 -0.0395  0.0491
29243W        W45137   0.644  12.187  14.486  0.0561 -0.3284 -0.1267
29244W        W45138   0.050  11.387   3.061  0.0828 -0.1609 -0.1526
29245W        W45139   2.542   8.521   2.574  0.0432  0.0073  0.0736
29246W        W45140   2.835  14.815  14.235  0.1300  0.0929 -0.0676
29247W        W45141   7.040  11.308  15.805 -0.1023  0.2906 -0.0382
29248W        W45142   9.149  15.927   0.975 -0.2176  0.1267  0.0369
29249W        W45143   7.636   7.818  14.809  0.0631 -0.1309 -0.0971
29250W        W45144   4.127   8.557   1.721  0.2737 -0.2650 -0.0688
29251W        W45145  16.205   3.289  16.166  0.0953 -0.2303 -0.1071
29252W        W45146   9.365  11.781  15.828  0.1349  0.0865  0.3066
29253W        W45147   0.502  17.474   3.850 -0.0743  0.1564  0.1049
29254W        W45148  12.195   8.445   0.686  0.2591 -0.0834  0.2390
29255W        W45149   5.712   2.694   2.377  0.0407 -0.2070 -0.1993
29256W        W45150  17.224  16.761   0.433  0.0969 -0.0147  0.0158
29257W        W45151  15.699  17.030  15.564 -0.1196 -0.0309  0.0480
29258W        W45152   2.107  15.647   2.751 -0.1118  0.0769  0.1066
29259W        W45153   5.993   8.023  17.254  0.1953  0.0923 -0.1031
29260W        W45154   5.201  11.404  12.272  0.1354 -0.2087 -0.4231
29261W        W45155  12.373   1.168  12.376 -0.1941  0.1356 -0.1951
29262W        W45156   9.580  16.413  12.036  0.1682  0.1822  0.3376
29263W        W45157  14.848   6.363   0.727 -0.1162  0.1964  0.0087
29264W        W45158   7.106   2.330  16.917 -0.0638 -0.0191 -0.2290
29265W        W45159  13.493  13.814   0.558 -0.5197  0.1617 -0.0351
29266W        W45160  10.490   9.177  17.206  0.0788 -0.0835 -0.2375
29267W        W45161   0.205   3.170  15.051  0.1575 -0.0448  0.1431
29268W        W45162  16.590   0.934   1.265  0.1451 -0.1720 -0.0315
29269W        W45163   4.211   1.564  12.508  0.3363  0.0732 -0.0529
29270W        W45164  16.170  16.564   3.061 -0.1799  0.0244  0.2067
29271W        W45165  15.077  15.797   3.357  0.1044 -0.2719 -0.0068
29272W        W45166   4.362   1.667  14.187  0.0853  0.1432 -0.2415
29273W        W45167  16.490  15.990  16.668  0.2951 -0.1592  0.1007
29274W        W45168  15.944   9.180   1.343  0.4475 -0.0491  0.0582
29275W        W45169  15.829  17.577  15.614  0.0125 -0.0406  0.1056
29276W        W45170   0.327   6.447  16.534  0.1567 -0.0992 -0.0539
29277W        W45171   6.781  11.688   3.738  0.1064 -0.1300 -0.0391
29278W        W45172  12.583   8.442  16.461  0.1049 -0.0211  0.3337
29279W        W45173  17.126  14.396   0.614  0.1721 -0.1790 -0.4051
29280W        W45174  14.836  12.634  15.497 -0.0704  0.2031 -0.3968
29281W        W45175   6.137   7.283  13.226 -0.1792 -0.1044 -0.0819
29282W        W45176  12.926  11.927   0.354  0.1331  0.0199  0.0041
29283W        W45177   5.431  13.679   0.938 -0.0766 -0.0173 -0.1817
29284W        W45178   9.969   1.534   2.788 -0.0561  0.2983 -0.2611
29285W        W45179  15.990   6.231   3.158  0.2128  0.0044  0.0816
29286W        W45180   4.343  12.709  13.861  0.0119 -0.0191 -0.1216
29287W        W45181   8.369   9.757   0.477 -0.1161  0.0069 -0.0439
29288W        W45182   0.427   6.614  14.602 -0.3624  0.0171  0.0707
29289W        W45183  12.410  17.047  13.107 -0.1132 -0.2111  0.2479
29290W        W45184   8.327   8.693   4.695  0.1860  0.0890  0.3648
29291W        W45185   1.876   7.109  14.365  0.1267 -0.0902  0.1331
29292W        W45186   0.893  17.578  13.694  0.1708 -0.0126  0.2516
29293W        W45187   9.375  13.282  13.907 -0.0216  0.0415 -0.0557
29294W        W45188   8.560   5.973  11.991 -0.0472 -0.1167  0.1307
29295W        W45189  15.072  16.602   3.852 -0.1562 -0.1217  0.0346
29296W        W45190   3.133   4.490  16.693 -0.2783  0.2825  0.5271
29297W        W45191   5.765  10.400   1.932  0.2246 -0.1724  0.2564
29298W        W45192   3.990   2.832   5.485  0.2987  0.2002  0.0206
29299W        W45193  15.858   2.470  13.140  0.0272  0.0547 -0.0137
29300W        W45194   6.764   8.625  14.566 -0.1463  0.4011  0.2372
29301W        W45195   2.660  15.257   1.563  0.2973 -0.0675 -0.2145
29302W        W45196  15.160   4.516   2.913 -0.0889  0.0314 -0.0416
29303W        W45197  10.959   0.716   2.956 -0.1078 -0.1164  0.2069
29304W        W45198   1.389   4.167   1.238 -0.0081 -0.1098  0.1398
29305W        W45199  16.432   6.552  15.155 -0.0129 -0.2627 -0.1810
29306W        W45200  16.907   6.787  13.398  0.0287 -0.0308  0.4274
29307W        W45201  17.354  15.551   2.077  0.0614 -0.0173  0.1099
29308W        W45202   5.267  10.746   5.440  0.0493  0.1510 -0.1710
29309W        W45203   0.942  13.937  12.414 -0.1459  0.0898 -0.1103
29310W        W45204  16.818  13.391   3.604 -0.0626  0.2169 -0.0673
29311W        W45205  14.959   5.173   6.026 -0.2699  0.2646  0.0979
29312W        W45206  10.751  13.751   6.368 -0.0349  0.0174  0.2021
29313W        W45207   7.912   5.884   1.913  0.0264 -0.0119 -0.5176
29314W        W45208   4.262  16.800   4.130  0.0991  0.0761  0.1624
29315W        W45209  14.368  12.704  15.301  0.3241 -0.0029  0.1202
29316W        W45210  16.846  14.493  15.504  0.3292  0.2703  0.1188
29317W        W45211   3.199  17.250   2.374  0.3513  0.3419  0.0090
29318W        W45212   2.365  16.800  12.276 -0.2227  0.1054  0.0109
29319W        W45213   0.934   8.766   3.392  0.3285  0.3240 -0.3483
29320W        W45214   9.965   6.799   0.662  0.2808 -0.4362 -0.0549
29321W        W45215  11.854   1.507   3.894 -0.1514  0.2911 -0.0537
29322W        W45216   1.811   6.826  15.994 -0.0451 -0.0527 -0.1588
29323W        W45217   8.442   1.339   4.384  0.0729 -0.0743  0.1393
29324W        W45218   3.384   7.205   0.305 -0.0420 -0.3880  0.1713
29325W        W45219   6.056  10.216  16.717  0.3063  0.1077  0.1202
29326W        W45220  17.306  14.363   5.006  0.0421  0.1901  0.3279
29327W        W45221  14.796  13.355   0.480 -0.2527 -0.1503 -0.0529
29328W        W45222   8.750  10.439   4.280 -0.0550  0.0744 -0.1448
29329W        W45223   7.852   0.292   4.058 -0.4113  0.0634  0.2774
29330W        W45224   6.959   1.318   2.727  0.0159  0.0361  0.0676
29331W        W45225   9.964   6.298   0.632 -0.0552  0.2238 -0.1344
29332W        W45226   2.799  17.377   1.431 -0.3491 -0.0688 -0.1793
29333W        W45227  14.435   9.873   4.068  0.2032  0.0894 -0.3181
29334W        W45228  11.063  15.906  16.783  0.4214 -0.1863 -0.0771
29335W        W45229   4.683   9.981  12.900 -0.1404  0.0842  0.0969
29336W        W45230   4.889   2.240  11.981 -0.2610  0.2540  0.3213
29337W        W45231   1.125   4.589  12.644 -0.0044 -0.0098  0.1136
29338W        W45232   0.709   1.179  14.456  0.0725  0.3833  0.0107
29339W        W45233  15.764  14.057   4.649 -0.1365 -0.3374  0.1170
29340W        W45234  13.769   0.608  13.176  0.1339 -0.0886 -0.0518
29341W        W45235  16.101   5.659   1.883 -0.0171 -0.0168  0.0239
29342W        W45236   4.846  14.484  11.960  0.0941  0.1370 -0.0814
29343W        W45237   1.124  12.485   4.525  0.0164 -0.0075 -0.0101
29344W        W45238  11.361  10.115   2.414 -0.2715  0.0417 -0.0801
29345W        W45239   8.732  13.411  12.956  0.1475  0.0484  0.3700
29346W        W45240   0.191   2.203  12.962 -0.0584  0.2009 -0.0176
29347W        W45241  10.234   4.028   1.476 -0.0493 -0.0926 -0.0401
29348W        W45242  13.796   5.729  16.291 -0.1858  0.1959 -0.0640
29349W        W45243   2.575   8.773  14.428 -0.0265  0.1256 -0.1740
29350W        W45244   5.956  15.187   3.205  0.0451 -0.2642  0.0574
29351W        W45245   5.931   2.644  14.853 -0.1966 -0.0788  0.2082
29352W        W45246   2.143   9.174   0.607 -0.2983  0.0064 -0.3087
29353W        W45247  13.590   7.809   2.560  0.1096  0.2686  0.0152
29354W        W45248   0.350  14.804   1.717 -0.0620  0.1238  0.1055
29355W        W45249   9.165  15.195   1.312  0.1519  0.1954 -0.1076
29356W        W45250  16.163  10.597   2.549 -0.0759  0.0964 -0.0185
29357W        W45251   6.531   5.970   0.668  0.1977  0.1450  0.1745
29358W        W45252  14.551  15.764   3.883  0.6075 -0.2810  0.2230
29359W        W45253  11.227   8.367   3.373 -0.0780 -0.3206 -0.0963
29360W        W45254  11.641  13.001   4.977  0.1310 -0.0320 -0.2145
29361W        W45255   2.706  16.600   2.459 -0.3268  0.1968  0.3405
29362W        W45256  17.504   4.617   5.328  0.2863  0.0424  0.1569
29363W        W45257   1.585  13.873   0.347 -0.3242  0.0722  0.3227
29364W        W45258   9.431   7.527   2.167  0.2666 -0.1921  0.0249
29365W        W45259  17.519  16.737  12.185  0.0316  0.0394  0.2433
29366W        W45260   9.599  14.730  14.149 -0.0675  0.0610  0.1262
29367W        W45261   2.416   3.462   3.011 -0.2350  0.0356 -0.2830
29368W        W45262   6.752  12.837   1.144 -0.0982 -0.3092 -0.0362
29369W        W45263   7.591   7.761  12.483  0.2211  0.2164  0.1934
29370W        W45264   2.651   9.082   3.464 -0.1023  0.0151  0.1550
29371W        W45265  15.271   1.814   5.807 -0.0417  0.4397 -0.2004
29372W        W45266   0.762  16.580  13.904 -0.0006 -0.0404  0.3517
29373W        W45267  10.299   4.874   2.881 -0.0617  0.2158  0.1048
29374W        W45268   2.100   0.888   4.901 -0.0184  0.1398  0.2757
29375W        W45269   9.951  13.796   1.208 -0.1027 -0.1528 -0.1685
29376W        W45270   2.747   2.028  13.924 -0.2235 -0.2724 -0.0758
29377W        W45271  13.835   9.952   1.216  0.2035 -0.1276  0.3471
29378W        W45272  16.824   5.822   4.114  0.2435 -0.0249  0.2117
29379W        W45273  13.967   0.856  12.823 -0.3820  0.2668 -0.1326
29380W        W45274  14.335   7.545  15.265 -0.2736  0.1986 -0.0363
29381W        W45275   0.748   9.554   4.855  0.0023  0.1744 -0.0520
29382W        W45276  11.961   7.072  12.112  0.0226 -0.0924 -0.0486
29383W        W45277   1.581   3.888  17.278 -0.1445  0.1817 -0.1399
29384W        W45278   6.793  13.298   4.000 -0.0210 -0.0823  0.1442
29385W        W45279  13.131  15.584   0.541 -0.1597 -0.2922 -0.1765
29386W        W45280   9.898  11.125   3.894  0.0391 -0.2346  0.1315
29387W        W45281   7.126  11.519  14.823 -0.0385 -0.2384  0.0690
29388W        W45282   4.281   0.854   3.538 -0.2983  0.3824 -0.4542
29389W        W45283  16.630   7.133   0.581  0.1630 -0.0235  0.2457
29390W        W45284   1.942   3.482   5.083 -0.0010 -0.0003 -0.0809
29391W        W45285   8.063  17.053   4.272  0.1881  0.2863  0.0811
29392W        W45286   1.634   6.488   3.620 -0.2682  0.0896 -0.1932
29393W        W45287   7.969   6.411  16.672 -0.1106 -0.1624 -0.2602
29394W        W45288  11.597  13.912   1.518  0.2160  0.0221  0.0062
29395W        W45289   9.903  16.157  12.266 -0.0571  0.2740  0.0843
29396W        W45290  13.327  11.744   3.479  0.3154  0.0256  0.2458
29397W        W45291   8.309   4.440   0.120 -0.0096 -0.0503  0.3626
29398W        W45292   1.586  14.166  14.620  0.2032  0.0209 -0.3091
29399W        W45293   1.181  15.253   2.051  0.0799 -0.0066 -0.1466
29400W        W45294   7.412   6.410   0.510  0.1686  0.0988  0.1151
29401W        W45295   6.412   4.800  14.692 -0.0643 -0.0772  0.3339
29402W        W45296  13.996   1.952  16.017  0.0377  0.3079 -0.0760
29403W        W45297  11.531   9.684   4.969  0.2187 -0.3002  0.0698
29404W        W45298   2.849   6.185   4.519  0.0884  0.2362  0.2574
29405W        W45299   6.722  15.805   1.714 -0.3411 -0.0811  0.4550
29406W        W45300   5.442   6.029   3.940  0.0395  0.2145 -0.2436
29407W        W45301  11.435  12.421  11.048  0.2441 -0.4543 -0.0507
29408W        W45302  11.340   6.988   3.744  0.1390 -0.3295 -0.1567
29409W        W45303   0.729  12.859  12.448  0.0705  0.3175 -0.0190
29410W        W45304  12.795   6.987   1.784  0.0518  0.1205 -0.3214
29411W        W45305  17.577  16.852   0.007 -0.3515 -0.0631 -0.0245
29412W        W45306   3.601   8.914  15.124 -0.0703 -0.1421 -0.3257
29413W        W45307   5.420  12.738  13.690 -0.0588 -0.1310  0.1147
29414W        W45308  11.029   3.019  12.447 -0.1248 -0.1755 -0.2128
29415W        W45309  12.027   0.879  11.969 -0.0494  0.0792  0.1117
29416W        W45310   6.855  16.306  10.928  0.0783 -0.3063 -0.0544
29417W        W45311  12.087   2.703   3.378 -0.2083 -0.1233 -0.0922
29418W        W45312  10.612   9.005  11.637  0.1811  0.0085 -0.1627
29419W        W45313   1.609  16.054   4.153  0.0955  0.2483  0.1815
29420W        W45314  10.231   3.168   2.661  0.2796 -0.2830 -0.1040
29421W        W45315   6.607   1.157   3.060  0.1163 -0.1227 -0.2328
29422W        W45316   0.529   1.261  12.927  0.2691  0.3576 -0.0995
29423W        W45317   1.520   5.559   6.422 -0.0335  0.0866 -0.2339
29424W        W45318   6.447  12.173  15.242  0.1053  0.0904 -0.0113
29425W        W45319  11.858   1.008   1.074  0.2240  0.4615  0.0745
29426W        W45320  10.431   5.607  12.719  0.0751 -0.0574  0.1743
29427W        W45321   2.814   1.611  17.069 -0.2677 -0.2409 -0.0298
29428W        W45322   9.574  13.560  15.932 -0.2131 -0.1523  0.3429
29429W        W45323   9.075   1.997  12.611 -0.0893  0.0662 -0.0355
29430W        W45324   8.954   9.462  11.817  0.0064 -0.1650  0.0974
29431W        W45325   3.656   1.975   3.736 -0.0869  0.5764  0.0721
29432W        W45326  12.527   6.526  14.163 -0.2318  0.0202 -0.3759
29433W        W45327   2.828   5.272   5.870 -0.2123  0.1923  0.2537
29434W        W45328  15.109  13.615   1.637  0.0517  0.0451 -0.1405
29435W        W45329   4.925  15.410   1.406  0.3131  0.0036  0.2019
29436W        W45330   3.325   6.912   3.306 -0.1618 -0.0243  0.2313
29437W        W45331  15.986  12.193   5.134  0.2217  0.3076 -0.2181
29438W        W45332   9.381   4.542  16.575 -0.0368  0.0225 -0.2552
29439W        W45333   2.216   5.777   3.868 -0.3023  0.0972 -0.0507
29440W        W45334  14.091   8.865  13.865  0.3616  0.2813  0.0419
29441W        W45335  17.153   4.959  15.773 -0.1820  0.1041 -0.0946
29442W        W45336   7.755   4.472  14.757  0.2291 -0.1771 -0.3261
29443W        W45337   0.660  10.191   2.956 -0.0145  0.1341  0.1818
29444W        W45338  10.629   6.062   3.198  0.1046 -0.3513  0.0228
29445W        W45339   4.417   6.425  17.297 -0.3831 -0.1769 -0.0737
29446W        W45340  15.722  14.334  12.054 -0.0524  0.2165 -0.1749
29447W        W45341  15.827  14.794  14.907  0.0439 -0.0842 -0.1540
29448W        W45342   6.060  11.786   3.647 -0.0118 -0.0015 -0.1309
29449W        W45343   9.226   2.274   0.161  0.1018  0.1014 -0.3037
29450W        W45344   8.050   7.676  11.534  0.0092 -0.0850  0.0610
29451W        W45345  11.251   5.256   3.878  0.0264  0.0521  0.0735
29452W        W45346  15.629   4.614   4.883  0.1601  0.1114 -0.0127
29453W        W45347   0.876  13.966   0.952  0.0127 -0.0682 -0.2038
29454W        W45348   7.200  12.666  13.962  0.0821 -0.0575 -0.2504
29455W        W45349  10.176  13.943   2.840 -0.1630  0.1405  0.1976
29456W        W45350   9.379   7.140  10.387 -0.0834  0.0858 -0.4025
29457W        W45351  14.689  14.482  13.898  0.2150  0.2400 -0.1501
29458W        W45352  14.986   0.219   2.550 -0.0683  0.0911  0.1053
29459W        W45353   1.240  13.825  13.482  0.0916  0.2241 -0.1546
29460W        W45354   9.265   8.298   1.089 -0.1281  0.2131 -0.1430
29461W        W45355  13.341   2.585   2.148 -0.2006  0.1286  0.3564
29462W        W45356   1.788   5.383   1.431  0.2112 -0.2048  0.1229
29463W        W45357   2.628   6.380   3.161  0.2612  0.3325 -0.1026
29464W        W45358   8.199   9.988   2.977 -0.2092  0.0978  0.2817
29465W        W45359  13.509   5.100   2.819 -0.1802  0.1192 -0.0322
29466W        W45360   2.892   4.864   6.240  0.1006  0.1184 -0.0739
29467W        W45361   0.327   7.507   1.962 -0.0069 -0.0562  0.2030
29468W        W45362   9.269  16.355  16.436 -0.1270  0.0277 -0.1935
29469W        W45363   5.481   0.623  12.119  0.1557  0.0662  0.0744
29470W        W45364   9.850   1.456   0.084  0.2657  0.1919  0.0101
29471W        W45365  10.354  14.562  13.593  0.0521 -0.1194  0.0272
29472W        W45366   3.537  13.666   2.399 -0.0431  0.1044  0.0277
29473W        W45367   2.639   7.347   0.411  0.1133 -0.1406  0.3685
29474W        W45368   5.823  16.105  16.834  0.0698  0.4573  0.3149
29475W        W45369  17.450  10.249   5.491  0.0889  0.0746  0.3464
29476W        W45370  16.203  11.730  15.819 -0.2410  0.1500  0.1583
29477W        W45371  15.853  17.579  16.438  0.1401 -0.1330 -0.1589
29478W        W45372  12.158   0.692  15.475 -0.1239  0.0049 -0.0488
29479W        W45373   6.645   6.004   3.607  0.2070 -0.0108 -0.1425
29480W        W45374  11.384   7.203  14.264 -0.3035  0.1474 -0.1350
29481W        W45375   0.923   8.928  13.823 -0.2910  0.2581  0.0431
29482W        W45376   7.516  14.197   3.264  0.1227 -0.3824  0.1658
29483W        W45377  14.965   1.471  12.226  0.0474  0.2254 -0.0012
29484W        W45378  15.147   0.805  14.125  0.0109 -0.0470  0.1801
29485W        W45379  10.571   4.849  15.261  0.0450  0.0044 -0.1648
29486W        W45380  13.939  11.280   0.313  0.2043 -0.4543  0.2605
29487W        W45381   2.046   1.384   4.637 -0.3254 -0.0680 -0.0098
29488W        W45382   3.164   1.752   3.233 -0.2168 -0.3809  0.0370
29489W        W45383  16.812   9.452   4.108 -0.0296 -0.0097  0.0792
29490W        W45384  11.052   0.356   3.789 -0.1399 -0.1699 -0.1703
29491W        W45385  13.843   0.959   0.040 -0.1712  0.1208 -0.2690
29492W        W45386   6.646  10.582   0.106 -0.0849  0.1365  0.2119
29493W        W45387  17.380   4.344  17.298 -0.1007  0.5515 -0.2388
29494W        W45388  14.051   5.234   1.130  0.0845  0.1132  0.3131
29495W        W45389   5.212   1.902   1.837 -0.1951 -0.0000  0.1137
29496W        W45390  11.382  15.226  16.340 -0.3022 -0.2007 -0.2069
29497W        W45391   2.845   9.850  13.630 -0.1864  0.3288  0.1094
29498W        W45392   8.914   5.789   3.844 -0.1054 -0.0164 -0.3534
29499W        W45393   3.353   9.267   0.140  0.1426 -0.1095  0.1650
29500W        W45394  16.735   9.245  16.920 -0.0010  0.1768 -0.0021
29501W        W45395  11.400   4.466   3.640  0.0380  0.1148  0.0169
29502W        W45396  12.455  17.077   0.285 -0.1069  0.0221  0.3294
29503W        W45397   5.055   4.147  12.970 -0.1333 -0.1471 -0.1347
29504W        W45398   0.809   3.968   0.337 -0.3024 -0.1940 -0.1520
29505W        W45399  12.172  10.468  16.466  0.1540 -0.2728 -0.0073
29506W        W45400  17.535   5.383   1.922  0.1775  0.1607 -0.0398
29507W        W45401   0.587  11.794   0.201  0.1242  0.1007 -0.1837
29508W        W45402   0.806  16.777  11.659  0.0962 -0.2178  0.2951
29509W        W45403  16.625   3.526   0.966  0.1225 -0.1108 -0.5734
29510W        W45404   2.127  17.084   0.875  0.0151  0.0179 -0.2350
29511W        W45405  14.388   6.375   2.485  0.1394  0.0245  0.0561
29512W        W45406   5.075  17.059   4.878  0.1889  0.2117 -0.0778
29513W        W45407  12.180  17.082  11.955  0.1852 -0.0689  0.0652
29514W        W45408   3.577   9.339   3.103  0.1213 -0.2196 -0.0280
29515W        W45409  15.406   3.792   0.295 -0.3196  0.0693  0.0605
29516W        W45410   6.982  10.843  13.128 -0.0940 -0.2312 -0.1027
29517W        W45411   2.035  11.000  14.015 -0.1275 -0.2707 -0.2145
29518W        W45412   6.478   5.449   5.891 -0.1432  0.2572 -0.0395
29519W        W45413  12.425  13.044   6.042  0.0482  0.3746  0.0353
29520W        W45414   8.317  11.010   1.221  0.1555 -0.4955 -0.0925
29521W        W45415   6.139   6.334   0.550  0.3218 -0.0657  0.0673
29522W        W45416   4.878   7.948   5.499  0.0115  0.3307 -0.2174
29523W        W45417   6.052  10.485   4.443  0.1504 -0.0065  0.2170
29524W        W45418   0.713   3.630  12.308 -0.2676 -0.0788  0.0751
29525W        W45419  11.031   0.204  16.918 -0.3716 -0.1323  0.1564
29526W        W45420   0.147   3.260  16.527 -0.2314 -0.0709 -0.0980
29527W        W45421  10.875  11.898  12.430 -0.0939 -0.2423  0.2402
29528W        W45422  14.467   7.006   1.168  0.0390  0.0196 -0.1845
29529W        W45423   0.929   0.603   4.260 -0.3416 -0.1197 -0.1295
29530W        W45424   9.272   0.925   0.722  0.0607  0.3291  0.2985
29531W        W45425   3.202   8.250  12.458  0.1095  0.5975 -0.3363
29532W        W45426  11.536   8.161   0.077 -0.0329 -0.1500 -0.1915
29533W        W45427   8.315  16.772  16.141  0.1381  0.2400  0.2848
29534W        W45428  15.446  13.921  13.879  0.0491 -0.2110 -0.0623
29535W        W45429   6.070   0.979  12.828 -0.3441 -0.0018  0.2186
29536W        W45430  13.288   4.533   1.933  0.2927  0.3305 -0.1603
29537W        W45431   8.624   1.405  13.023  0.0651  0.1836  0.4656
29538W        W45432  11.678   1.199  16.440 -0.0457 -0.3134 -0.0098
29539W        W45433   0.324   0.214   2.124 -0.0559 -0.0871  0.2694
29540W        W45434   0.700   7.053   3.315 -0.4771 -0.1543  0.3457
29541W        W45435  16.925   3.057  13.809  0.1802 -0.0957 -0.1560
29542W        W45436   6.362   6.016  11.694  0.0772  0.0256 -0.0574
29543W        W45437   5.565   1.503  15.478 -0.0110  0.0307  0.1662
29544W        W45438  12.855   7.866  11.405  0.3557  0.0859  0.1213
29545W        W45439  12.842   7.253   0.484 -0.0847  0.1922 -0.3473
29546W        W45440   5.982   6.520   4.523 -0.1394 -0.1403 -0.1610
29547W        W45441   8.723  16.054   3.862  0.0559 -0.0515 -0.3215
29548W        W45442   1.172  13.590   1.940  0.0264  0.0345  0.0983
29549W        W45443  13.135  11.587   2.112 -0.0474 -0.1100  0.3001
29550W        W45444  17.181  14.625  14.112  0.1763 -0.0374  0.0530
29551W        W45445  16.550   3.517   3.497 -0.1115  0.0130 -0.1472
29552W        W45446  12.994   1.430  11.753 -0.1267 -0.3572 -0.0855
29553W        W45447   2.190   1.007   0.772  0.0383  0.0339 -0.1909
29554W        W45448   6.407  17.393  12.627 -0.1075  0.2006 -0.0076
29555W        W45449  13.372   4.998  12.273 -0.2581  0.0396 -0.3047
29556W        W45450   7.319   6.080  15.819 -0.1834 -0.2135  0.0056
29557W        W45451   6.300   4.677  12.565 -0.1245 -0.2201 -0.3996
29558W        W45452   2.623   5.753   1.713 -0.0028  0.0473  0.2989
29559W        W45453  13.023   3.758  16.910 -0.0431 -0.0216 -0.0710
29560W        W45454   5.723  10.916  15.520 -0.1568 -0.1254 -0.3714
29561W        W45455  14.217   9.975   5.559 -0.0774 -0.0946 -0.2985
29562W        W45456  17.548   7.640   0.271  0.0663  0.0293 -0.0198
29563W        W45457  10.671  10.745   2.401  0.3474  0.2201  0.1154
29564W        W45458  12.956  10.075  12.988 -0.0667 -0.0238  0.2179
29565W        W45459   0.979   1.599  16.845 -0.1650 -0.1576 -0.0430
29566W        W45460  17.159   7.741   4.286  0.0766 -0.0385  0.0097
29567W        W45461   6.517  13.540   0.079  0.1309 -0.0377  0.1839
29568W        W45462  11.292   2.169  12.828 -0.0719 -0.1415 -0.2977
29569W        W45463   4.358   7.323   0.087 -0.1453  0.0269  0.0597
29570W        W45464  13.849   7.767   5.407  0.0773 -0.3231  0.1181
29571W        W45465   3.908  15.330   1.965  0.1279 -0.1397  0.0233
29572W        W45466  11.786   5.963  15.190  0.0528  0.1097 -0.1675
29573W        W45467   1.160  10.877  17.182 -0.1784 -0.2437  0.1412
29574W        W45468  13.373   0.518  14.491 -0.1715 -0.0436  0.0368
29575W        W45469   3.615  17.597   0.091 -0.1739 -0.0438 -0.1081
29576W        W45470   3.348  16.363  16.440  0.0322  0.0359 -0.0272
29577W        W45471   1.805   7.208  17.282  0.1062 -0.1102 -0.0687
29578W        W45472  16.661  12.651  16.345  0.2633 -0.0435  0.1974
29579W        W45473   6.310  14.781  16.947 -0.3014 -0.1009 -0.1926
29580W        W45474   3.072   0.973   1.312  0.2480 -0.1178  0.0993
29581W        W45475  17.165   2.734  16.156  0.0365 -0.0563  0.0585
29582W        W45476   4.553  11.737   0.926  0.0485  0.0647  0.2608
29583W        W45477   2.389   6.119   3.549  0.1465  0.2740 -0.2592
29584W        W45478  15.889   1.859   4.039 -0.0989  0.0762 -0.2328
29585W        W45479   9.208  11.067  15.378 -0.0992  0.0994 -0.1965
29586W        W45480  14.444  11.146  16.160 -0.0025  0.1660  0.4428
29587W        W45481  17.030   6.596  12.740 -0.0107 -0.2105  0.1413
29588W        W45482   2.875   7.323  13.315  0.0288  0.1483  0.3301
29589W        W45483  14.909  17.214   2.199  0.1328 -0.1843  0.1227
29590W        W45484   1.364   2.982   5.666  0.1205 -0.0370  0.2223
29591W        W45485  13.009   9.973   2.358 -0.0052  0.2939 -0.1133
29592W        W45486  15.580   0.828   1.930 -0.0898  0.0666  0.0584
29593W        W45487   7.391  11.775   2.986 -0.0444  0.1189  0.1581
29594W        W45488  10.394  12.492  14.235 -0.1430 -0.0693  0.1989
29595W        W45489  14.330  12.191  12.403 -0.3674  0.1183  0.0878
29596W        W45490  11.961  13.735  17.111 -0.1750 -0.1715  0.1185
29597W        W45491   5.720  16.444  13.713 -0.0779 -0.0383 -0.0250
29598W        W45492  12.451   3.547   0.760  0.0393  0.1306  0.0430
29599W        W45493   9.393  14.717   2.845  0.1927  0.1543  0.1011
29600W        W45494   6.612  11.447  15.356  0.1624  0.0970 -0.1308
29601W        W45495  13.080   1.219  16.514  0.0877 -0.1816 -0.0715
29602W        W45496   9.643   5.409  16.332  0.2344 -0.0610 -0.1426
29603W        W45497  15.857   2.961   2.830 -0.0977  0.0324 -0.0255
29604W        W45498   2.831   1.545  13.774 -0.1490  0.0275 -0.1479
29605W        W45499   6.311   9.331  14.999  0.0916 -0.0244 -0.0472
29606W        W45500  10.597   2.570   5.328 -0.0317 -0.2621 -0.2942
29607W        W45501   7.740  15.207   2.761 -0.0888 -0.2338 -0.3735
29608W        W45502  13.795  14.588   0.846  0.2011 -0.0330  0.0471
29609W        W45503   9.589   7.851   1.259 -0.1675  0.3468 -0.0316
29610W        W45504   8.577  14.202   5.601  0.2012 -0.0146  0.1765
29611W        W45505  10.601  17.361   1.658  0.1418 -0.0823  0.1141
29612W        W45506  10.436  15.195   3.491  0.1943 -0.0232  0.2094
29613W        W45507  13.204  16.600  17.073 -0.0258 -0.1093  0.1506
29614W        W45508   2.969   2.128  16.415  0.1742 -0.2198 -0.0034
29615W        W45509   9.374   4.070   0.378 -0.2556 -0.0370 -0.1611
29616W        W45510   0.336   3.930   0.437 -0.0069 -0.0055 -0.2009
29617W        W45511   6.920   2.327   5.007 -0.1290  0.0961  0.0355
29618W        W45512  11.670   2.336  15.799  0.0498  0.0544 -0.0583
29619W        W45513   0.056   0.072   1.667  0.2960  0.3160 -0.2919
29620W        W45514  16.948   9.036   5.467  0.0089 -0.2467 -0.0235
29621W        W45515  12.288  15.194   3.024 -0.1527 -0.0379  0.1615
29622W        W45516  17.587  13.207  14.866 -0.2279 -0.2291 -0.0439
29623W        W45517   9.508   9.252  12.106 -0.0836 -0.0736  0.0468
29624W        W45518   1.901   5.418   2.338 -0.2005  0.0182 -0.2375
29625W        W45519  15.025  14.696   4.120  0.0741  0.2422 -0.2164
29626W        W45520  10.962   3.811   1.675 -0.4008  0.0222 -0.2119
29627W        W45521  16.584   1.924   1.666 -0.1537 -0.0889  0.0647
29628W        W45522  12.673  12.781  12.898  0.2925 -0.1784  0.0634
29629W        W45523   9.842   7.363  16.833  0.1552  0.3034 -0.1771
29630W        W45524  13.397   9.818  16.754 -0.1188  0.3992 -0.0286
29631W        W45525   7.584  10.371   2.529 -0.0211  0.2711 -0.1859
29632W        W45526  14.719  16.896   0.254 -0.1586  0.1731 -0.1945
29633W        W45527  14.471  15.318  12.961 -0.0876 -0.0427 -0.3506
29634W        W45528   8.282   0.678  11.669 -0.0092  0.0141  0.2639
29635W        W45529  16.055   6.966  15.885  0.1488 -0.1911 -0.0340
29636W        W45530   1.426  15.389  14.983 -0.2755  0.0087  0.0511
29637W        W45531   9.492   7.699  16.965  0.1999 -0.0490 -0.0715
29638W        W45532  15.761  13.181   3.991  0.1818 -0.0995  0.3271
29639W        W45533  16.502   4.917   4.549 -0.1336  0.1772  0.1400
29640W        W45534  17.557   2.778  16.647  0.2106  0.0471  0.1658
29641W        W45535  11.668  16.238   5.748 -0.1069 -0.1727  0.2014
29642W        W45536   6.088   3.242  14.247 -0.1237  0.1357  0.1886
29643W        W45537  13.424  15.800   3.845  0.1470 -0.0299 -0.1042
29644W        W45538  16.517  12.406   3.355  0.1842 -0.1126 -0.1786
29645W        W45539   8.420  15.435  11.956  0.1540 -0.1916  0.0583
29646W        W45540   0.387   9.752   0.814 -0.0136 -0.1782  0.0249
29647W        W45541  10.247  12.473   2.960  0.0038 -0.0321 -0.2635
29648W        W45542  15.228   6.681   0.495  0.1448  0.3008 -0.2052
29649W        W45543   6.900  15.645   2.858  0.1488  0.1047  0.2257
29650W        W45544  17.204  12.801   4.946  0.0991 -0.2671  0.1434
29651W        W45545  12.830   7.192  12.259 -0.1921 -0.2122  0.3331
29652W        W45546  16.955   0.610   1.396  0.0456 -0.1011 -0.1799
29653W        W45547  16.465  14.452   3.890  0.1829 -0.1532  0.0700
29654W        W45548   2.136  17.621  11.360 -0.1265  0.0519 -0.1033
29655W        W45549  15.778   3.842   4.422 -0.3658  0.2845  0.1835
29656W        W45550   6.267  14.154  13.409 -0.2405  0.0455 -0.4166
29657W        W45551   4.024   1.273  16.168  0.0507  0.3308 -0.2170
29658W        W45552   4.861   3.689  16.104 -0.0389  0.3348  0.1647
29659W        W45553   5.701   3.525   0.353  0.0231  0.0270 -0.2599
29660W        W45554  11.921   0.610   3.984  0.3491 -0.0134 -0.1344
29661W        W45555   0.675   6.172   5.712  0.2069  0.1995 -0.1479
29662W        W45556   9.473   5.086   0.420 -0.2398 -0.5899 -0.0686
29663W        W45557   1.249   5.802   1.916  0.1231  0.0945  0.1735
29664W        W45558  17.351  14.097  13.466 -0.1661 -0.0216  0.1998
29665W        W45559   7.735   1.798   2.603 -0.1814 -0.1207  0.1425
29666W        W45560   9.041   6.061  11.818  0.1848 -0.1097  0.0310
29667W        W45561   9.395   4.164   3.697  0.1626 -0.1608 -0.1449
29668W        W45562  14.015   9.817   0.562  0.0259  0.2495  0.0708
29669W        W45563   5.070  13.122   3.007  0.1305 -0.0925 -0.0474
29670W        W45564   9.735   4.632   2.088 -0.3813  0.0534  0.0783
29671W        W45565   9.150  10.728  13.358 -0.2711  0.0351 -0.1979
29672W        W45566  14.715  17.499   1.726 -0.2359 -0.0724  0.0883
29673W        W45567  12.056  10.831   0.334 -0.0896 -0.0526  0.0722
29674W        W45568  11.109   8.453  11.045  0.1357 -0.1207 -0.0494
29675W        W45569  12.194  13.481   0.438 -0.1687 -0.0579  0.0938
29676W        W45570   0.953   1.203  17.236 -0.0015 -0.0410  0.1069
29677W        W45571  11.470   8.242  15.070  0.0891 -0.0353 -0.0998
29678W        W45572   5.764   5.282   3.456  0.1845  0.0939  0.0157
29679W        W45573   0.210   6.233  13.364  0.0455  0.1234 -0.0816
29680W        W45574   8.951   0.302  13.760  0.0835 -0.0516  0.1278
29681W        W45575  12.892  11.955  13.083  0.0138  0.3508  0.2746
29682W        W45576   4.520   3.647  14.159 -0.0775  0.0894 -0.1722
29683W        W45577   6.994   1.034   0.871 -0.0498  0.1628  0.0889
29684W        W45578   4.639   3.926   3.931 -0.1478 -0.0904  0.2270
29685W        W45579   1.657   3.221   2.503  0.1781 -0.0376 -0.0392
29686W        W45580  16.991  11.367  16.351 -0.1987  0.0427 -0.0835
29687W        W45581   4.301  12.127  17.239 -0.2265 -0.0781 -0.0577
29688W        W45582   8.308   9.062  11.878  0.1569  0.2226 -0.1398
29689W        W45583   1.223   5.767   3.785  0.1571 -0.0922 -0.0287
29690W        W45584  16.942   9.681   1.879 -0.1594  0.2069  0.0762
29691W        W45585  12.367  16.798   1.297 -0.0503  0.0042  0.1252
29692W        W45586   8.585   1.967  12.350 -0.1877  0.0390 -0.0389
29693W        W45587  15.459   9.103  16.775 -0.4760  0.1560 -0.0383
29694W        W45588  16.536  14.842  15.393  0.3392  0.0358 -0.4348
29695W        W45589  12.039   6.414   3.888 -0.0494  0.0830  0.0076
29696W        W45590  13.121  15.724   5.256 -0.0088  0.1702  0.2646
29697W        W45591  12.394   9.561  12.385 -0.0210 -0.0186  0.0384
29698W        W45592   8.824  11.348  16.594  0.3520  0.0310  0.0310
29699W        W45593  11.387  13.991  13.305 -0.0485 -0.2194 -0.1670
29700W        W45594  12.941  13.243   2.198  0.1232  0.1278  0.2670
29701W        W45595  15.866   9.491   6.192 -0.1709 -0.1972  0.1869
29702W        W45596   9.661  14.628   4.341  0.2026  0.1698  0.1238
29703W        W45597  12.473  16.463  13.344  0.4092 -0.1493 -0.1916
29704W        W45598   8.870   5.128  17.024 -0.0984  0.0687  0.4009
29705W        W45599  10.545  13.257  13.817  0.4036  0.0251  0.2232
29706W        W45600  13.283   1.492  16.991 -0.0820  0.2502 -0.1057
29707W        W45601   1.614  12.557   4.017 -0.4064 -0.1134 -0.1836
29708W        W45602  13.491   4.762   4.802 -0.0165  0.1236  0.0369
29709W        W45603  17.402   3.391  14.948 -0.1964 -0.1203 -0.3230
29710W        W45604   9.297   3.046  13.133 -0.0752 -0.0065  0.0928
29711W        W45605   4.912  14.126  13.119  0.1948  0.2414 -0.3539
29712W        W45606   9.713   4.189  13.808 -0.1117  0.2046 -0.0767
29713W        W45607   7.844   8.056  14.307  0.3452  0.0066 -0.0888
29714W        W45608  16.569  15.225   2.615 -0.2515 -0.0623 -0.0819
29715W        W45609   1.949   1.424  12.596  0.0143  0.1901 -0.0670
29716W        W45610   7.397  11.019  13.263 -0.1474  0.0301  0.0879
29717W        W45611  14.871   5.336  16.585 -0.0520  0.3888 -0.2907
29718W        W45612  12.058   2.941   0.644  0.1055 -0.3441 -0.4468
29719W        W45613   0.472  13.195  16.249  0.2453 -0.2136 -0.0449
29720W        W45614   6.038   8.463   2.170  0.2202  0.1286  0.0738
29721W        W45615  11.572   6.019   1.572 -0.1310  0.1676  0.1984
29722W        W45616  11.535  12.365  12.450 -0.1145  0.3845 -0.2812
29723W        W45617  15.642   4.846   0.206 -0.1307 -0.0873  0.0666
29724W        W45618  12.197  13.183  15.134 -0.0566 -0.1693  0.1033
29725W        W45619   5.220   5.020   5.387  0.0131  0.3478 -0.1120
29726W        W45620   8.773   5.576   1.982 -0.0993  0.1523  0.2217
29727W        W45621  11.468   8.123  13.596 -0.0074  0.0423  0.1173
29728W        W45622  14.923   3.989   2.102 -0.0963  0.0057  0.1455
29729W        W45623   8.867   3.489   2.554 -0.3216  0.1791  0.3224
29730W        W45624   1.109  10.372   4.126 -0.0628  0.0552 -0.1994
29731W        W45625   8.334  16.908  14.931 -0.1009 -0.4067 -0.2576
29732W        W45626   5.415  15.325  14.812  0.0932 -0.1483  0.1163
29733W        W45627   7.211  16.890  15.254  0.0876  0.0288 -0.0261
29734W        W45628  13.737   2.675   1.081 -0.1236 -0.0586  0.0829
29735W        W45629  17.082  15.484   4.842 -0.1254  0.2066  0.0891
29736W        W45630   2.089   5.277  14.819 -0.1940 -0.0281 -0.0313
29737W        W45631  15.101  10.884   5.011 -0.1661 -0.1242 -0.1748
29738W        W45632  11.527   1.994   6.167 -0.3006  0.0931 -0.2604
29739W        W45633   2.250   8.234  13.628  0.1005 -0.1306 -0.0679
29740W        W45634  11.223   9.640  17.088 -0.0422  0.0996 -0.0788
29741W        W45635   4.904   5.306   2.972 -0.3479  0.0531  0.2633
29742W        W45636   5.885   0.805  16.818 -0.0499 -0.2089  0.2443
29743W        W45637  14.228   6.970  13.057 -0.1570 -0.1054 -0.1532
29744W        W45638  14.199  10.984  17.233  0.0463  0.3521  0.0260
29745W        W45639  12.445  14.225   1.824  0.0604  0.0035  0.1349
29746W        W45640  13.180   1.448   5.537  0.0568 -0.1868 -0.3223
29747W        W45641   3.363   3.930   0.935  0.2901  0.3171  0.1030
29748W        W45642   2.309   7.691   3.762 -0.0628  0.2650  0.0796
29749W        W45643  17.128  13.006   3.806  0.0236  0.4238  0.2175
29750W        W45644  11.937   2.874  15.400 -0.1475 -0.2967  0.4224
29751W        W45645   0.729   9.896  14.905  0.1098 -0.1732 -0.2837
29752W        W45646   7.399   0.050  14.416 -0.2587 -0.4208 -0.0244
29753W        W45647  14.709  10.781  13.419 -0.4785  0.1828  0.2482
29754W        W45648  11.807  13.469  14.216 -0.0492  0.0274  0.3289
29755W        W45649   7.517  13.493   5.228 -0.0296 -0.2030 -0.1254
29756W        W45650   0.587   9.344  12.771 -0.0835  0.2801 -0.0145
29757W        W45651   3.802   2.604   2.585  0.0093 -0.1425  0.0157
29758W        W45652   1.458   9.196  14.773 -0.4396  0.0122  0.0636
29759W        W45653  14.757  13.666   4.200 -0.0001  0.0514 -0.1785
29760W        W45654   3.101  16.439   4.666  0.1799 -0.2600 -0.5417
29761W        W45655   2.069   3.388  13.371 -0.0427 -0.0043  0.2663
29762W        W45656   6.349   6.896   5.632  0.1949  0.2685  0.0287
29763W        W45657   6.637   4.414  16.384  0.1299 -0.1300  0.1212
29764W        W45658   9.833  16.304  12.793 -0.0285 -0.0533  0.2395
29765W        W45659   1.438   0.337  12.537  0.0640  0.0859  0.1605
29766W        W45660  16.269   2.481  16.761  0.1079 -0.1938 -0.2059
29767W        W45661  10.307   0.562   4.518 -0.2641 -0.0056 -0.0214
29768W        W45662   4.596  17.236   1.010  0.0818  0.1153 -0.2313
29769W        W45663  16.072   5.093   5.426  0.0658  0.2648 -0.2956
29770W        W45664   3.412   7.994  15.402  0.2379 -0.1231 -0.3805
29771W        W45665  16.597   5.750   5.957  0.0854  0.1164  0.1511
29772W        W45666   0.286  14.146   1.638 -0.1824 -0.0997  0.1779
29773W        W45667  17.372  10.488  15.613  0.3524 -0.3379 -0.1377
29774W        W45668  15.803   2.523   1.692 -0.1866 -0.2050  0.0546
29775W        W45669  10.526  10.978   0.573 -0.1062 -0.0111 -0.4163
29776W        W45670   9.915  12.585  14.232  0.2246  0.0519  0.0624
29777W        W45671   7.436  11.221   3.858 -0.0235  0.1892  0.0634
29778W        W45672   6.297  10.216  13.039 -0.0309  0.0389 -0.1359
29779W        W45673  12.549  14.952   1.339 -0.1549  0.1673 -0.3285
29780W        W45674   0.145  12.835  15.253 -0.0629  0.1395 -0.3155
29781W        W45675   1.473   0.260   3.638  0.2765 -0.0991  0.2173
29782W        W45676   8.851  13.945   3.275  0.1701 -0.1052  0.0160
29783W        W45677   0.783   2.540  14.028  0.1879  0.3797  0.4213
29784W        W45678   7.050   6.116   2.269 -0.1198  0.0388  0.3113
29785W        W45679   1.796  11.880  15.021  0.0854  0.2075 -0.2213
29786W        W45680   7.083  15.049   0.962 -0.1946 -0.0290  0.1454
29787W        W45681   8.908  13.569  14.094 -0.0363 -0.0021  0.2589
29788W        W45682   9.854  12.279  13.162  0.2414  0.3696  0.0887
29789W        W45683   3.151  13.503  12.012 -0.1637  0.0030 -0.1388
29790W        W45684   0.003   0.564  14.634 -0.2553  0.1444  0.1750
29791W        W45685   3.589   1.380   5.482  0.4398  0.1371  0.2533
29792W        W45686   8.135  16.897   3.217 -0.0575  0.1395 -0.2118
29793W        W45687   5.340  14.833   2.623  0.0418 -0.3321  0.1013
29794W        W45688   0.822   8.045  13.588 -0.2175 -0.0075  0.2621
29795W        W45689  15.102   1.458   1.451  0.1327  0.0264 -0.0684
29796W        W45690  13.463   5.891  15.465 -0.0118 -0.0391 -0.1865
29797W        W45691  14.983   4.466   1.897 -0.2368  0.2839  0.0604
29798W        W45692   6.930  11.643   4.864 -0.1739  0.0031  0.1317
29799W        W45693  17.625   2.778   2.838  0.0515 -0.1134  0.0677
29800W        W45694   6.765   6.133  13.130 -0.1073 -0.1412  0.0824
29801W        W45695   0.436  10.240  17.206 -0.1028  0.0926  0.0309
29802W        W45696  12.209   5.982  16.018 -0.3853 -0.2377  0.0560
29803W        W45697   1.553   7.245   2.284  0.1575 -0.0929  0.2669
29804W        W45698   7.790  15.750  12.014 -0.1722  0.0140  0.1343
29805W        W45699   1.193   1.948   5.664 -0.3738  0.0481 -0.2180
29806W        W45700   6.886   8.509   0.470 -0.0459 -0.0694  0.1324
29807W        W45701  10.984  16.647   4.097 -0.3062 -0.0655 -0.4347
29808W        W45702   5.970   9.865   1.780  0.0492  0.0052  0.1534
29809W        W45703   7.240   8.588   1.431  0.1556 -0.1150  0.1710
29810W        W45704   9.457  15.672  15.801 -0.3954 -0.1416  0.0415
29811W        W45705   1.475  12.623   2.201 -0.0475  0.1138 -0.0205
29812W        W45706  14.592   9.217  17.106  0.3747 -0.3518  0.0335
29813W        W45707   9.858  14.396   2.849  0.0072  0.1167  0.0973
29814W        W45708  14.924  16.698   3.028 -0.0068  0.0763 -0.3763
29815W        W45709   3.786   3.705   0.753  0.1142 -0.0342  0.1788
29816W        W45710   2.110  16.076   0.573  0.0091  0.0361  0.0700
29817W        W45711   6.166   0.560   0.968 -0.0065 -0.1483 -0.1377
29818W        W45712   8.233  11.702  12.319  0.1914 -0.0029 -0.0142
29819W        W45713  10.657   2.744   3.641 -0.2228  0.0504 -0.2482
29820W        W45714  17.366   6.632  15.710 -0.0376 -0.1546  0.1728
29821W        W45715   4.201   2.672  13.894  0.1146  0.0352  0.0599
29822W        W45716   4.874  10.197   3.307  0.2250 -0.1687 -0.2097
29823W        W45717   3.925  11.076   3.672  0.3046  0.2284 -0.2476
29824W        W45718  12.789  10.774   3.762  0.0037 -0.2165 -0.0349
29825W        W45719   2.520  13.277   4.749 -0.0598  0.0372 -0.1296
29826W        W45720   7.537  14.507  16.136  0.1688  0.1134 -0.0435
29827W        W45721   0.082   0.543   1.867  0.2645 -0.2430  0.2259
29828W        W45722  13.988   3.120  13.977 -0.0546 -0.0760  0.0448
29829W        W45723  12.963   9.276  16.266 -0.0480 -0.0345 -0.1671
29830W        W45724  12.363   0.349   0.267 -0.1050 -0.1936 -0.1854
29831W        W45725   2.428  15.207  17.258  0.0080  0.0465 -0.0766
29832W        W45726  13.305   0.457   4.175 -0.0718  0.1482  0.1997
29833W        W45727  12.457   5.830  12.969 -0.0166 -0.0942  0.1441
29834W        W45728   3.446   1.393  13.126 -0.0980  0.0223  0.1257
29835W        W45729   0.269   6.447  13.809 -0.0265 -0.0255 -0.0697
29836W        W45730   1.201   8.372   5.264  0.0533  0.1509  0.1934
29837W        W45731  17.525   8.047  13.933  0.1963 -0.0895  0.1655
29838W        W45732  12.436  13.944  13.698 -0.1820  0.1867  0.1688
29839W        W45733   3.600   0.943   4.563 -0.0694  0.0262  0.0750
29840W        W45734  10.654   0.871   1.509  0.0673 -0.1846  0.2311
29841W        W45735   4.404   0.042  13.853 -0.0983 -0.0711 -0.1382
29842W        W45736  13.542   5.139  12.956 -0.1008 -0.1190 -0.1741
29843W        W45737  14.370  11.137  13.729 -0.1366 -0.0084  0.1122
29844W        W45738   1.415  16.099   3.135  0.0845  0.2011  0.0154
29845W        W45739   5.434  17.219   5.585  0.0099  0.1517  0.0408
29846W        W45740   3.777  17.465  12.210 -0.3578  0.0300 -0.0371
29847W        W45741   7.173   9.762  11.915 -0.2978  0.0472 -0.0136
29848W        W45742   0.551   4.027  13.284 -0.2079 -0.1345 -0.1894
29849W        W45743  11.184   1.445   4.949 -0.0229 -0.0744  0.2293
29850W        W45744  13.577  16.688   1.335 -0.1372 -0.2302 -0.3485
29851W        W45745   7.547   6.674  12.808  0.2522  0.0441  0.1830
29852W        W45746  17.328  12.556   2.551 -0.0572  0.1481 -0.1003
29853W        W45747   9.212  12.093   0.339  0.4438 -0.1023  0.0806
29854W        W45748   6.080  16.576  15.737 -0.1188  0.2496  0.1315
29855W        W45749  13.614  10.925   4.945 -0.0641 -0.2883 -0.0240
29856W        W45750  16.908  16.793  16.152  0.2548  0.2094  0.0536
29857W        W45751  12.899  14.923  12.956  0.0392 -0.1483  0.2676
29858W        W45752   9.911  13.849   5.331 -0.3294 -0.0601 -0.0538
29859W        W45753   7.541  16.270  13.453  0.0487 -0.1562 -0.1091
29860W        W45754  13.008  16.815   2.040 -0.0100 -0.1367 -0.2893
29861W        W45755   8.513  11.830   3.993  0.3571  0.1960  0.1856
29862W        W45756  12.653   8.028   5.961 -0.1078 -0.0348 -0.1274
29863W        W45757   6.107  12.332  13.532  0.0197  0.0423 -0.1972
29864W        W45758   2.052   6.990   2.679  0.1069 -0.0091 -0.0112
29865W        W45759  14.528   8.493  15.936  0.0225 -0.3566  0.0761
29866W        W45760   0.594  11.227  12.134 -0.1071 -0.0793 -0.2702
29867W        W45761  10.507   7.874   4.165 -0.3194 -0.0214 -0.3347
29868W        W45762  11.503  16.078   6.570  0.1487 -0.0405 -0.3014
29869W        W45763  13.764   8.808   4.644 -0.0958 -0.2148  0.0308
29870W        W45764  16.605  15.466  14.748  0.0648 -0.2216 -0.2770
29871W        W45765   4.173  16.400   6.352  0.0287 -0.0020 -0.1060
29872W        W45766  15.816  12.882   5.981 -0.1719 -0.1575 -0.1341
29873W        W45767  12.953  15.421   4.499  0.1767 -0.0005 -0.3577
29874W        W45768  10.877  16.610  12.542 -0.0898  0.2477 -0.1164
29875W        W45769  10.678   2.771  14.217 -0.0402  0.2969  0.0120
29876W        W45770  16.731  15.024  14.507  0.1454  0.0844  0.0540
29877W        W45771   6.356   8.936  14.573 -0.0824  0.0631  0.2548
29878W        W45772   7.773  12.308   0.911 -0.0632 -0.1216 -0.0506
29879W        W45773   0.651  14.518   5.376 -0.0871 -0.1850  0.1850
29880W        W45774   3.408   3.249  16.145  0.0951  0.3661 -0.0910
29881W        W45775  11.017   5.773   0.852  0.1192  0.1391  0.0619
29882W        W45776  10.236  14.510   0.076  0.2359 -0.0854  0.0513
29883W        W45777   4.114   4.428   4.743 -0.3068  0.0047 -0.1079
29884W        W45778   1.590   3.881   4.917 -0.0240 -0.3275 -0.1622
29885W        W45779  13.411   3.738   3.796  0.0272 -0.0017  0.0764
29886W        W45780   9.549   8.383   2.031  0.0541  0.5340  0.0315
29887W        W45781   1.908  13.185   1.027  0.2262 -0.3058  0.2184
29888W        W45782   4.754   5.615   1.561 -0.0038  0.0847 -0.0858
29889W        W45783   4.330   6.969   1.737 -0.0518 -0.0396  0.1792
29890W        W45784   1.698   7.984  14.553  0.1690 -0.0516  0.1305
29891W        W45785  13.869  13.381  17.090  0.0846  0.2969  0.1048
29892W        W45786  14.891  11.006   1.976 -0.2182 -0.1515  0.3965
29893W        W45787   2.592   3.643   0.104  0.0434 -0.0022 -0.3898
29894W        W45788  15.926  12.999  14.020  0.0890  0.1295  0.0154
29895W        W45789   8.401   2.992  14.196 -0.2306 -0.1274  0.1875
29896W        W45790  11.355   1.313   0.391 -0.1705  0.1572  0.1201
29897W        W45791   3.000  16.378  12.767 -0.3248 -0.2695  0.2035
29898W        W45792   3.762   3.666  13.016  0.0758  0.2024  0.1050
29899W        W45793   0.285  11.832  14.633  0.1583 -0.1960 -0.2251
29900W        W45794   5.604   8.845   2.886 -0.0481 -0.0945  0.1770
29901W        W45795  11.658   8.638   4.024 -0.1574  0.2029 -0.0377
29902W        W45796  16.394  16.156  15.268  0.1137 -0.2361 -0.1760
29903W        W45797   2.334   5.553   5.716  0.4099  0.0692  0.1004
29904W        W45798  12.539  10.287  14.689  0.1044 -0.0466  0.1887
29905W        W45799   6.932   1.229   0.371 -0.2040 -0.1017  0.1229
29906W        W45800  12.417   4.510  16.050 -0.2037 -0.2807  0.0078
29907W        W45801   4.525   0.361  14.520  0.1600 -0.1840  0.2250
29908W        W45802  13.851  10.005  14.403  0.0805 -0.1913 -0.4356
29909W        W45803   2.429  14.642  15.550 -0.2870 -0.0750  0.2061
29910W        W45804  12.832  17.315  14.564 -0.1603 -0.0580  0.1345
29911W        W45805   1.597   9.656  16.744  0.0072  0.1508  0.0753
29912W        W45806   8.363   1.655   0.385 -0.0509  0.1679 -0.1360
29913W        W45807   3.492   8.630   4.323  0.6203  0.0891 -0.3678
29914W        W45808  17.310   8.751   0.861  0.0217  0.2073  0.0830
29915W        W45809  12.550  11.904  14.331  0.2000 -0.1484  0.2782
29916W        W45810  15.920   1.208  13.722  0.0083 -0.0847 -0.0819
29917W        W45811   2.023   0.103  16.102  0.2483  0.1520 -0.0831
29918W        W45812   6.435   1.450  15.511  0.2713  0.0807 -0.2025
29919W        W45813   8.111  12.622  15.519  0.0221  0.0832  0.0554
29920W        W45814   1.316   0.221  13.140  0.0868 -0.2052 -0.2735
29921W        W45815   0.063   7.129   0.187 -0.0499  0.2097 -0.1612
29922W        W45816   0.178   6.867   2.590 -0.0175 -0.3932 -0.2420
29923W        W45817   5.855  14.925   6.386  0.1139  0.0178  0.3930
29924W        W45818   5.417  14.061  13.221 -0.0731  0.1002 -0.3588
29925W        W45819   7.242   6.711  16.118  0.0761  0.4282 -0.0687
29926W        W45820   6.231  14.553   3.240  0.2223 -0.1790 -0.2086
29927W        W45821   9.095   4.453  12.981  0.0817  0.0527  0.3106
29928W        W45822  13.425  17.023   0.019  0.0838 -0.1404  0.0847
29929W        W45823  14.518   7.683  14.291 -0.0225  0.2027 -0.1349
29930W        W45824  16.246  14.576  16.758 -0.2652  0.1710 -0.0027
29931W        W45825   0.776  13.566   2.816 -0.0258  0.1879 -0.2546
29932W        W45826   8.433   3.302  14.625  0.2208  0.1400 -0.2486
29933W        W45827  13.606   3.536  14.739 -0.3853 -0.2326 -0.6887
29934W        W45828   8.084   6.469  13.532 -0.1469 -0.0193  0.1165
29935W        W45829   6.242   8.970   2.793 -0.1377  0.3523  0.0535
29936W        W45830  14.264   2.644  13.390 -0.3078 -0.4694  0.3298
29937W        W45831  17.219   8.977  12.602 -0.0515 -0.2246  0.2072
29938W        W45832   1.953   4.947  15.194 -0.1456  0.0258  0.0379
29939W        W45833   2.577   5.923  13.276  0.0700 -0.2093  0.3787
29940W        W45834   2.325  10.078   3.020 -0.0397 -0.1304  0.3321
29941W        W45835   1.301  10.742   3.493  0.1243  0.0759 -0.1451
29942W        W45836   3.946   5.030   3.613 -0.1083 -0.0139  0.1963
29943W        W45837   5.495   8.848   1.538 -0.3624  0.0985 -0.1273
29944W        W45838   8.669  17.410   5.005  0.2433 -0.3987  0.1212
29945W        W45839   3.642   9.460  13.973 -0.1191  0.0505 -0.4036
29946W        W45840   1.737  15.087  13.492 -0.0250 -0.0652 -0.0290
29947W        W45841   7.843  13.303  12.715  0.4313  0.1275  0.2336
29948W        W45842  10.068  13.963  14.127  0.2608 -0.0545  0.1817
29949W        W45843   6.184   9.807  11.695  0.0507 -0.1624  0.0254
29950W        W45844  10.621   3.341   0.002  0.2187  0.0574 -0.1253
29951W        W45845  15.454   1.763  15.977 -0.0073  0.2827  0.1867
29952W        W45846  10.788   1.357  14.422  0.0273 -0.2349 -0.0862
29953W        W45847  10.963   6.444  11.619  0.2150 -0.3078  0.1944
29954W        W45848   9.488   6.730  16.661 -0.2408  0.0621 -0.1147
29955W        W45849  17.479  14.083   1.387  0.1464  0.2964 -0.2598
29956W        W45850  14.170  12.822  12.260  0.1791  0.0950  0.2839
29957W        W45851   9.845  12.646  14.752  0.1392 -0.1253 -0.3595
29958W        W45852  17.242   5.845   1.279  0.0023  0.1482  0.2500
29959W        W45853  11.429   1.259   5.355 -0.1540 -0.0485  0.1465
29960W        W45854  12.899   9.803   0.362 -0.2563 -0.0869  0.0856
29961W        W45855  11.528  14.481  16.738 -0.4572  0.3593  0.0240
29962W        W45856   3.477   6.788  17.143 -0.0396  0.2432  0.0089
29963W        W45857  13.250   9.527   0.554 -0.0761 -0.0722  0.1748
29964W        W45858   8.522  14.532  16.361 -0.2267  0.0829 -0.1304
29965W        W45859  12.456  17.597   4.920 -0.1220  0.0991 -0.1507
29966W        W45860  15.045  10.237  17.048 -0.1679  0.2667  0.0237
29967W        W45861  10.904   5.941  13.889  0.1720 -0.1162 -0.1132
29968W        W45862  15.263   9.067   2.166 -0.3494 -0.1451 -0.1092
29969W        W45863   6.996  15.248  13.109 -0.1325 -0.3263  0.2538
29970W        W45864  12.548   4.521   2.964 -0.0471 -0.0723 -0.1454
29971W        W45865   7.138  11.756  11.027  0.1928 -0.0453 -0.0799
29972W        W45866   6.422   5.717   1.703  0.1348  0.0181  0.1951
29973W        W45867   2.965  14.349  15.706 -0.1599  0.3551 -0.2339
29974W        W45868  12.127   0.423   3.270  0.0295 -0.2610 -0.1810
29975W        W45869  14.365  13.066   3.848  0.0642 -0.2076  0.0489
29976W        W45870   6.304   0.468  12.935  0.1608 -0.1083 -0.1059
29977W        W45871   4.455   9.429  15.434  0.0049 -0.0031 -0.1559
29978W        W45872  17.522  13.553  13.112 -0.3192 -0.3502  0.2069
29979W        W45873   3.746  16.088  13.326  0.2319 -0.1619  0.4850
29980W        W45874   7.266  11.707   2.492 -0.0420  0.1538  0.0667
29981W        W45875   3.397   6.721   3.788 -0.1993  0.2050 -0.0270
29982W        W45876   9.532   1.377   1.305 -0.1177  0.1318 -0.0077
29983W        W45877   7.029   4.064   3.850 -0.0962  0.1632 -0.2304
29984W        W45878  17.337   4.301  11.246 -0.0424 -0.1562 -0.2585
29985W        W45879  16.171   7.509  17.152 -0.1337  0.0191 -0.0648
29986W        W45880  11.861   5.873  11.393 -0.0688 -0.0239  0.1181
29987W        W45881   9.406  16.010   4.803 -0.0116  0.2686  0.1252
29988W        W45882   3.626   3.308  12.112 -0.3551 -0.2816  0.0249
29989W        W45883  14.973  13.685   6.151 -0.2133 -0.2296 -0.1653
29990W        W45884   8.854   4.180   5.577  0.0516  0.0476  0.1449
29991W        W45885   7.623   4.788  15.726  0.1721  0.1468 -0.1246
29992W        W45886  12.224   8.292   4.927  0.0999  0.2847 -0.0402
29993W        W45887  15.472   2.373   4.644  0.4796 -0.0424  0.1894
29994W        W45888  14.746  16.077   4.684  0.0288 -0.0255 -0.2301
29995W        W45889   8.221   1.785   2.741  0.1560 -0.0661 -0.0237
29996W        W45890   5.855   4.159  13.586 -0.0063  0.0343  0.2544
29997W        W45891   2.850   4.575   0.979 -0.0012 -0.0133  0.1142
29998W        W45892   8.165   8.152  12.047 -0.1153 -0.0442  0.3676
29999W        W45893   5.170   2.631  16.467 -0.1124  0.3490  0.1017
30000W        W45894   3.705   5.614  13.931 -0.0067 -0.3074 -0.4132
30001W        W45895   8.916  13.460   1.973 -0.1680  0.1946 -0.2671
30002W        W45896  15.402  13.671   4.099  0.3207  0.3519  0.0804
30003W        W45897   3.879   5.362   4.336 -0.3036 -0.0459  0.1740
30004W        W45898   5.133   3.956   2.486 -0.1031  0.2933  0.3150
30005W        W45899  14.159  10.706  11.818 -0.0132  0.1907 -0.0125
30006W        W45900  13.080  12.550  16.080  0.0525  0.2413  0.3741
30007W        W45901   9.884  15.241   0.116 -0.0764  0.5371  0.1018
30008W        W45902   1.171   8.846  17.114  0.0242  0.0158  0.2157
30009W        W45903   4.715   8.830   4.882  0.2665 -0.1191  0.0595
30010W        W45904   1.251  11.292   5.463  0.2169  0.1453  0.0922
30011W        W45905   1.882  15.958  15.640  0.0065 -0.1403  0.1113
30012W        W45906   4.542   3.287  16.207 -0.2817 -0.0116  0.0129
30013W        W45907  10.012   0.377   5.748 -0.0490  0.0516 -0.1170
30014W        W45908  10.090  13.743   0.427  0.1574  0.1880 -0.0939
30015W        W45909  13.242  12.421   4.173  0.0135 -0.1761 -0.1303
30016W        W45910   4.758  15.744  12.750  0.2372 -0.4243 -0.1247
30017W        W45911   6.693  11.252   5.130  0.3168 -0.0305  0.1578
30018W        W45912   4.912  15.582   4.365  0.2207  0.2879 -0.3239
30019W        W45913   9.647   7.978   4.712 -0.0487 -0.3261  0.2075
30020W        W45914   2.652  13.175   2.323 -0.2652  0.0258 -0.0309
30021W        W45915   9.213  15.895   4.387 -0.0880  0.1232  0.3091
30022W        W45916   7.310  13.265  12.658  0.1481  0.2331 -0.0475
30023W        W45917   7.968   0.432  17.177 -0.2759  0.0417 -0.2130
30024W        W45918   3.760  15.428  15.187  0.2577  0.0070  0.5422
30025W        W45919  12.208   3.028  12.290 -0.2418  0.1719  0.0697
30026W        W45920   5.282  14.662  11.996 -0.3123  0.0118 -0.2261
30027W        W45921   6.584  11.258   1.777 -0.0981  0.4159 -0.3075
30028W        W45922   4.069  10.939  15.304 -0.0486  0.2002 -0.2061
30029W        W45923  17.299   1.285   6.491  0.2615  0.2961  0.2540
30030W        W45924   7.478  15.438  16.281 -0.1360  0.1581 -0.0155
30031W        W45925   9.159  16.019   0.375 -0.0196 -0.0335 -0.1457
30032W        W45926  16.961  14.679   3.885  0.0577  0.1845  0.1254
30033W        W45927   8.616  13.787   2.235  0.1519  0.0125 -0.1810
30034W        W45928  13.764  16.452   2.180  0.0717 -0.5037 -0.0359
30035W        W45929   1.613  15.595  13.514  0.1009  0.0871 -0.2009
30036W        W45930  16.457  12.114  16.026  0.0819 -0.2547  0.0600
30037W        W45931   9.833   3.671  16.759 -0.1023 -0.0082 -0.1661
30038W        W45932   1.644  17.612  16.514 -0.0020  0.0187 -0.1908
30039W        W45933   1.555   5.160  14.791 -0.0176 -0.3381  0.2101
30040W        W45934   0.925   0.182   0.751 -0.2422 -0.0618  0.1595
30041W        W45935   7.069   4.609  12.355  0.0906 -0.1489  0.0184
30042W        W45936  13.598  10.300   1.532  0.1858  0.1723  0.3818
30043W        W45937   6.932  15.781  16.103  0.1509 -0.2974 -0.0496
30044W        W45938   4.256   6.820   3.625  0.0562  0.1350  0.1616
30045W        W45939  13.070   8.870   2.435 -0.0742  0.1384  0.0469
30046W        W45940  15.126   1.504   5.434 -0.3189 -0.0138  0.0240
30047W        W45941   2.722  14.441  12.916  0.0027  0.4018 -0.0221
30048W        W45942   9.543  13.992   0.446  0.2263 -0.3202 -0.2755
30049W        W45943  16.134  15.390   3.509  0.0117 -0.2075 -0.0637
30050W        W45944  15.762  13.886  16.168 -0.2016 -0.2214 -0.1612
30051W        W45945  11.886  10.493  16.012  0.1487 -0.0559  0.0770
30052W        W45946   1.408   8.444  16.809  0.1362 -0.1784 -0.1684
30053W        W45947  13.290   3.536   5.288  0.0185  0.2479  0.2996
30054W        W45948   5.068  14.141   4.187  0.0243  0.1884 -0.0884
30055W        W45949  15.090  11.463  14.268 -0.1559  0.0816 -0.2337
30056W        W45950   1.770   5.211  13.874 -0.0878  0.1897  0.2431
30057W        W45951   8.904  11.196  13.608  0.2439  0.2027  0.1034
30058W        W45952   1.458   9.636  13.832 -0.0167  0.1628 -0.0663
30059W        W45953  16.441   2.303   4.360 -0.0807 -0.0895 -0.1442
30060W        W45954   1.853  14.160   5.341 -0.0868  0.0209  0.1030
30061W        W45955  16.767  17.564   0.857 -0.0592 -0.1837  0.0333
30062W        W45956  17.080  10.783   4.986 -0.0302  0.0960  0.0923
30063W        W45957   6.919   7.302  13.159  0.0764  0.0007 -0.0863
30064W        W45958  14.412   5.123  16.569  0.1965 -0.0905  0.1848
30065W        W45959   5.059  12.860   1.097  0.0240  0.2411 -0.1520
30066W        W45960   6.605   6.535  12.882  0.0011 -0.0855  0.0279
30067W        W45961   2.609  17.456  15.045  0.2611  0.1200 -0.0025
30068W        W45962   3.533   1.684  17.074  0.0452 -0.2558  0.1866
30069W        W45963   9.172   2.916   1.245  0.2842  0.0793 -0.2156
30070W        W45964  11.561  16.104   3.846  0.1986 -0.1998  0.1989
30071W        W45965  16.814   3.160   3.267 -0.1066  0.1061 -0.0960
30072W        W45966  11.481  16.711   1.367 -0.0820  0.0758 -0.1169
30073W        W45967   6.953  12.786  12.353 -0.1488  0.0747  0.0175
30074W        W45968  10.196   8.265   2.355 -0.0066 -0.1091 -0.0398
30075W        W45969  14.656  15.512  16.741 -0.1223 -0.0413  0.0385
30076W        W45970  16.857  13.052   5.278 -0.2629  0.0777  0.0258
30077W        W45971  17.314   0.713  17.106 -0.1391  0.0063  0.0744
30078W        W45972   4.675  13.025  12.998  0.2312 -0.0079  0.1378
30079W        W45973   8.133  13.179  12.283  0.0247  0.0582 -0.2494
30080W        W45974  13.675  16.901   3.582  0.2141 -0.1999 -0.0356
30081W        W45975  17.098   7.245   5.980 -0.1294  0.0584 -0.0028
30082W        W45976   8.910   2.679  16.787 -0.0192  0.2172  0.0922
30083W        W45977  12.898  11.473  11.615 -0.0391 -0.1749 -0.2225
30084W        W45978  15.132  10.364  16.135 -0.0953 -0.0494 -0.0679
30085W        W45979   3.600   8.808   3.149 -0.0331 -0.1799 -0.0720
30086W        W45980   0.879  16.428   5.319  0.1512 -0.3630  0.0451
30087W        W45981   0.075   4.386   0.477  0.2873 -0.0856 -0.2038
30088W        W45982  15.147   6.759  16.585  0.1531 -0.5195  0.1695
30089W        W45983  11.016   9.951  11.371  0.1763  0.1273 -0.1181
30090W        W45984   5.485   3.787  12.962  0.0894  0.1985 -0.1892
30091W        W45985  12.532   3.038   4.750  0.2267  0.1580 -0.4348
30092W        W45986  10.139  16.005  16.029  0.1224 -0.4225  0.3540
30093W        W45987   0.704   8.045  15.533 -0.1426  0.2158 -0.0206
30094W        W45988  15.228  16.931  15.405 -0.0089  0.2212 -0.0413
30095W        W45989  17.550   8.425   2.517  0.0878  0.1466 -0.0884
30096W        W45990  14.851  11.131  11.770 -0.0522  0.3661  0.2239
30097W        W45991  10.350   5.920  17.064 -0.0245  0.0463  0.0286
30098W        W45992   3.699   6.873  13.590 -0.2003  0.3380  0.1401
30099W        W45993  12.700   4.679  16.492 -0.1964  0.0019  0.2072
30100W        W45994   6.525   1.236   2.483 -0.1001 -0.0432 -0.1271
30101W        W45995   2.202   4.356   1.021 -0.1375 -0.2081 -0.2962
30102W        W45996  13.321  14.470   5.556  0.2604 -0.0024  0.0831
30103W        W45997   3.069   8.471   2.441 -0.1388 -0.0721 -0.1335
30104W        W45998  14.105   4.662   4.201 -0.1230  0.2592  0.0587
30105W        W45999   4.804   6.419  15.226 -0.0613 -0.1147  0.1457
30106W        W46000  10.962   2.835   4.758 -0.3654 -0.0362 -0.0931
30107W        W46001  14.223   4.313  12.964 -0.0112  0.1507  0.1528
30108W        W46002   8.891   2.968  12.806 -0.2725 -0.0546 -0.1150
30109W        W46003   1.797  12.063   1.188  0.2041  0.1232  0.0237
30110W        W46004  16.596  14.351   1.730 -0.4086  0.2332 -0.1245
30111W        W46005  13.078  10.683  11.793  0.2168  0.0187 -0.1264
30112W        W46006   6.341   4.592  15.994 -0.3170  0.2035 -0.3616
30113W        W46007  12.569   8.856   0.755 -0.1823 -0.0620  0.1401
30114W        W46008  10.283   5.078  11.848  0.2634  0.3439 -0.0359
30115W        W46009  17.358   3.557  14.342  0.2235  0.4167  0.2214
30116W        W46010   1.878  13.844  12.474 -0.1192 -0.1943 -0.1572
30117W        W46011  15.293  10.975   0.183 -0.3088  0.2127 -0.1415
30118W        W46012   7.346  16.770   3.071  0.1761  0.0383  0.2261
30119W        W46013  17.003  12.203  16.210 -0.0318  0.0165  0.0307
30120W        W46014  12.779  12.808   2.520 -0.1462  0.0849 -0.1270
30121W        W46015  10.321   9.129  15.593  0.0147 -0.1097  0.0614
30122W        W46016   0.203   5.729   3.205  0.0736  0.2814 -0.0268
30123W        W46017  15.011  15.807   1.815 -0.1582 -0.0797 -0.1085
30124W        W46018  12.594   8.346   1.040 -0.0288 -0.1326  0.1608
30125W        W46019  15.250   9.301  12.457 -0.2187  0.3031  0.0022
30126W        W46020   6.524  14.002  17.069 -0.1182  0.0166  0.0740
30127W        W46021   7.244  10.907  15.087  0.1151 -0.1541 -0.3067
30128W        W46022   6.606  16.422  14.532 -0.1023  0.0725  0.1557
30129W        W46023   2.954   1.550   4.008 -0.0591 -0.2346  0.0401
30130W        W46024   8.120   9.912  12.504 -0.1973  0.0695 -0.1214
30131W        W46025   9.890  12.182  11.658  0.3240 -0.5324  0.1779
30132W        W46026  10.860   5.573  15.538 -0.1051  0.2115  0.1956
30133W        W46027  17.026   1.094   3.188  0.0277 -0.0649  0.0494
30134W        W46028   7.654  17.490  14.029  0.3696 -0.1746  0.0350
30135W        W46029   2.699   5.784   0.469  0.3646  0.2286 -0.0021
30136W        W46030   7.176   2.767  12.840 -0.0138  0.1438  0.0801
30137W        W46031  11.083   7.596  13.612  0.0176 -0.0395 -0.0540
30138W        W46032   4.278   3.975  13.714 -0.1300 -0.1264 -0.0735
30139W        W46033   8.466   2.296  16.220  0.0037  0.0099  0.1769
30140W        W46034   4.464   2.816   5.060  0.2202  0.0357 -0.2419
30141W        W46035  16.563   3.942   3.808 -0.1891 -0.1606  0.4165
30142W        W46036   3.458  16.783  12.784  0.2985  0.0716  0.0983
30143W        W46037   7.390  13.891   5.547  0.1035 -0.0122  0.0774
30144W        W46038   7.091   9.779   0.120  0.0585 -0.2613 -0.0443
30145W        W46039  15.840  13.721   2.098 -0.0272  0.0281 -0.0645
30146W        W46040   5.903   0.210   0.796  0.0754 -0.0320  0.0234
30147W        W46041   3.771   6.379  13.538  0.3332 -0.2332 -0.1346
30148W        W46042  13.444  11.277   4.299  0.1036  0.0833 -0.0717
30149W        W46043  16.794   2.517  13.695 -0.2150 -0.1146 -0.0447
30150W        W46044  15.792   8.509  12.836  0.1472 -0.2749 -0.2934
30151W        W46045  11.299  13.507  12.085 -0.0097 -0.0305 -0.0814
30152W        W46046   1.889   9.655   0.722  0.0108 -0.0576  0.3110
30153W        W46047  13.780   4.440   0.633 -0.1504 -0.2460 -0.2547
30154W        W46048   1.231   2.227  12.375  0.0897 -0.1963  0.0110
30155W        W46049  14.224  16.695  13.716 -0.1224 -0.0045 -0.0873
30156W        W46050   3.143   0.157  13.705  0.0651 -0.0944 -0.0766
30157W        W46051  15.401   1.399  13.717  0.2508  0.0795 -0.0165
30158W        W46052   5.878   9.965  14.443 -0.0487 -0.0052 -0.0817
30159W        W46053   3.763   6.822   0.356 -0.0733 -0.0728 -0.2827
30160W        W46054  10.811   2.095   4.424  0.0941  0.0193 -0.0132
30161W        W46055  15.221   2.921  14.678  0.1747 -0.0295 -0.1691
30162W        W46056   3.825   0.745   3.004 -0.1596 -0.0175  0.0470
30163W        W46057  13.461  13.710   3.987  0.1459  0.0161  0.2146
30164W        W46058   2.564  16.116  15.367  0.1572  0.1114 -0.0795
30165W        W46059   0.023   6.123   3.491 -0.1959 -0.1257  0.0242
30166W        W46060  10.159   2.284  16.957 -0.0898 -0.3295  0.1209
30167W        W46061   1.394   2.722   3.754  0.1482  0.2101  0.0217
30168W        W46062   1.052   1.997  16.368 -0.3825  0.3380 -0.2785
30169W        W46063  14.226  12.013   1.957 -0.0906  0.4003 -0.1682
30170W        W46064  14.944   4.360  13.125 -0.1210  0.0357  0.2436
30171W        W46065  13.205  15.342   1.511  0.1672  0.1074 -0.2279
30172W        W46066  15.673  16.155  17.070 -0.0561  0.1570  0.0783
30173W        W46067  12.745   2.533   0.934 -0.2601 -0.0395 -0.2220
30174W        W46068  14.337   3.156   1.310 -0.0378 -0.1531  0.2678
30175W        W46069   6.912   1.584   2.253  0.1373  0.1730 -0.0286
30176W        W46070  15.739   5.746  12.470  0.2483  0.0722 -0.1118
30177W        W46071   8.885   5.580  11.847 -0.0759  0.0912 -0.2748
30178W        W46072  12.183   6.603   2.062 -0.2226 -0.2586  0.0123
30179W        W46073   5.459  16.252   6.199 -0.0738 -0.2475  0.1737
30180W        W46074   4.707  16.753   1.803  0.0217 -0.0735  0.0994
30181W        W46075   3.974  14.106  15.938 -0.1574 -0.0569  0.1372
30182W        W46076  13.584   6.012   2.785  0.0608  0.1860 -0.0959
30183W        W46077   4.087  15.148  16.621  0.1835  0.2747  0.0155
30184W        W46078  14.619   1.766  16.530 -0.1342 -0.1337 -0.2059
30185W        W46079  11.067  16.611   1.729  0.0684 -0.1632 -0.1287
30186W        W46080   0.263   2.134  15.017 -0.0192  0.2930  0.0192
30187W        W46081  11.032   0.418   1.331  0.1690 -0.0263 -0.0333
30188W        W46082  10.109   8.209  14.410 -0.1354 -0.1453  0.0346
30189W        W46083   3.365   2.828  16.424 -0.1256  0.1437  0.0619
30190W        W46084  13.572   2.930   6.454  0.0055 -0.1739 -0.1945
30191W        W46085   6.997   2.534   2.563  0.0732 -0.1067 -0.2857
30192W        W46086   4.335   2.837   0.770  0.2862  0.1503 -0.1665
30193W        W46087  14.063  15.772  15.219  0.1194  0.1886  0.1784
30194W        W46088   4.656   7.860   3.253 -0.1856 -0.1256 -0.3581
30195W        W46089   2.774  17.064   2.296 -0.0234  0.0259  0.2558
30196W        W46090  11.237  11.366   3.014  0.1926  0.1512  0.0951
30197W        W46091   1.153   0.665   3.775 -0.0474  0.0071 -0.0180
30198W        W46092   7.876   8.971  13.755  0.1345  0.1780 -0.3410
30199W        W46093   9.417   1.260  13.696  0.0781 -0.0522 -0.1733
30200W        W46094   7.162   7.926  12.083 -0.1522  0.0799 -0.0911
30201W        W46095   0.646  16.276   4.236  0.1766 -0.1541  0.0675
30202W        W46096   5.345  14.516  13.190  0.3562  0.1439 -0.3090
30203W        W46097  16.500  12.120   0.411 -0.0489  0.2125  0.1178
30204W        W46098   7.572   0.089  15.618  0.3694  0.2658  0.4564
30205W        W46099  17.628  14.160  15.404  0.0748  0.3463 -0.0853
30206W        W46100   2.567   8.071   4.570  0.3127  0.0350 -0.3072
30207W        W46101  15.335  16.020   5.203 -0.0945 -0.1035 -0.0598
30208W        W46102   2.894  11.079  16.091 -0.0452  0.1368  0.3782
30209W        W46103   7.898   0.940   0.635 -0.1044 -0.0027 -0.2736
30210W        W46104   1.417  10.077   3.301  0.0650 -0.1682  0.1383
30211W        W46105   2.255   5.412  12.618  0.0896  0.1817 -0.0707
30212W        W46106  12.778  16.583   1.144  0.2365  0.0434 -0.1850
30213W        W46107   3.650   0.915  12.166 -0.0954  0.1032 -0.3081
30214W        W46108  16.469   1.645  16.929  0.1309 -0.0954 -0.4534
30215W        W46109   6.367  10.963   4.284 -0.2024  0.0429  0.0582
30216W        W46110   1.655  16.485   3.894  0.1926  0.1364 -0.0777
30217W        W46111   9.270   1.475   3.710  0.1227 -0.1562  0.3405
30218W        W46112   8.721   2.040   0.236 -0.0603  0.3875 -0.0526
30219W        W46113   4.665  11.521  15.712 -0.1084 -0.0133 -0.0998
30220W        W46114   0.874   4.978   4.307  0.2682  0.1675  0.2209
30221W        W46115   9.998  13.463  15.060  0.2336  0.0655 -0.0181
30222W        W46116   4.303   1.963   0.939  0.0255  0.3800 -0.2019
30223W        W46117   0.302   6.014  14.705 -0.0606  0.2834 -0.1550
30224W        W46118  13.091  11.990  11.727 -0.1374 -0.0854 -0.2304
30225W        W46119  15.165   2.314  13.804  0.0665  0.1639  0.0438
30226W        W46120  11.272  16.077   5.440 -0.1051  0.0485 -0.1352
30227W        W46121  14.828   7.147   5.789  0.0872  0.2527 -0.1043
30228W        W46122  10.661   6.495  12.718  0.4009  0.1119  0.0867
30229W        W46123   0.253   0.716   4.993  0.1303 -0.2077 -0.1116
30230W        W46124   2.148   2.158   4.851 -0.1129  0.0287  0.1880
30231W        W46125  15.263   2.888   4.020  0.2007  0.1990 -0.1622
30232W        W46126   9.822   6.454   2.002 -0.0048 -0.0779  0.1863
30233W        W46127  15.895   4.142   4.894  0.1205 -0.1423 -0.0968
30234W        W46128   0.889  13.155   4.028 -0.0132  0.3621 -0.2510
30235W        W46129  10.219  12.077  13.909  0.0381  0.1622 -0.0734
30236W        W46130   9.527   7.066  11.845 -0.1251  0.0832  0.3028
30237W        W46131   5.812   5.304  15.637  0.1600 -0.0578 -0.0410
30238W        W46132   7.015   2.062   4.518 -0.0192  0.1030 -0.1091
30239W        W46133  11.367   2.139  15.271 -0.1846 -0.2160 -0.4696
30240W        W46134  11.984   6.951   2.936  0.1847  0.0996  0.0157
30241W        W46135   1.691   2.602   5.576  0.1425 -0.2076 -0.1341
30242W        W46136  13.806   9.060   2.719  0.0636  0.0021 -0.0679
30243W        W46137  14.979   5.680   1.952  0.0708 -0.0802 -0.1449
30244W        W46138   0.084   3.014   6.518  0.1211 -0.0349 -0.0305
30245W        W46139  13.886  13.311  13.152  0.1787 -0.2434  0.0846
30246W        W46140  15.967   3.565  14.149  0.0004  0.1464 -0.0557
30247W        W46141   6.127  13.023   0.357  0.0151 -0.0316  0.1708
30248W        W46142   3.776  13.236   4.400  0.0139  0.1577  0.2047
30249W        W46143   0.629   3.814  14.181  0.0521 -0.1631 -0.0327
30250W        W46144   0.915   2.761  13.292 -0.1499  0.0679  0.2350
30251W        W46145  16.760   2.396   1.667  0.0779 -0.2088 -0.1865
30252W        W46146   2.091   1.961   3.940 -0.0465  0.0527 -0.1526
30253W        W46147  11.215   4.929  16.936  0.1847 -0.1321  0.0191
30254W        W46148  13.833   0.412   1.102 -0.1280 -0.0262 -0.2998
30255W        W46149   3.226   9.695  13.286  0.3109  0.1982  0.3721
30256W        W46150   5.857  16.079   0.768 -0.2384  0.0732  0.1608
30257W        W46151  15.934   2.265   5.288 -0.3944 -0.0722 -0.3241
30258W        W46152  13.444  10.000   0.433  0.1068 -0.2175  0.3149
30259W        W46153  14.281   7.845   5.027 -0.2153  0.0276  0.0792
30260W        W46154   4.920  15.434   4.935  0.0408  0.0403  0.0042
30261W        W46155  12.175   9.654  15.433  0.3284  0.2768 -0.0702
30262W        W46156   0.154   1.335   0.060 -0.1812  0.0913  0.0810
30263W        W46157   4.909   9.548  14.225  0.0982 -0.0177  0.1798
30264W        W46158   1.097   3.903  16.553 -0.1842 -0.1825  0.3682
30265W        W46159   4.292  16.499  14.618 -0.5085  0.1096  0.1971
30266W        W46160  13.336  13.042   5.534  0.0595 -0.1155 -0.1419
30267W        W46161  17.597   0.275   5.738  0.3477  0.1730  0.3732
30268W        W46162   2.538   2.271   3.104  0.3550 -0.3731 -0.0821
30269W        W46163  14.036   6.835  12.131  0.1923 -0.2003 -0.3549
30270W        W46164   8.136   8.075  13.723 -0.0047 -0.1529 -0.1227
30271W        W46165   5.262   7.148  15.879 -0.2821  0.0434 -0.2787
30272W        W46166   9.333   0.842   1.926  0.1440  0.1949 -0.2472
30273W        W46167   6.989   6.753   0.524  0.1756  0.0663  0.0493
30274W        W46168   7.566   6.756  15.682 -0.1040  0.0126  0.4092
30275W        W46169   0.202   8.553   6.066 -0.0462  0.0244  0.0824
30276W        W46170  12.692   0.506  13.988 -0.1505 -0.0498 -0.0783
30277W        W46171  11.335   0.601  13.481 -0.1681 -0.0777  0.2693
30278W        W46172  17.118   9.912   2.307  0.2311 -0.0842  0.3129
30279W        W46173  15.407  12.916  13.974  0.0613  0.0764 -0.3019
30280W        W46174   6.791   4.395  13.125  0.1349 -0.1081  0.1615
30281W        W46175   3.050  17.448   0.355  0.4936 -0.2097 -0.1431
30282W        W46176  16.322  12.672  15.520  0.0194  0.4566  0.1605
30283W        W46177   9.135  14.693   1.152  0.1991  0.0863 -0.0400
30284W        W46178   8.030   1.374  14.883 -0.1747 -0.0584  0.2072
30285W        W46179  12.091   8.356  12.173  0.2240 -0.1214  0.2256
30286W        W46180   6.643   1.827   5.954 -0.0245  0.2660  0.1209
30287W        W46181  12.988  10.612   2.190 -0.0656 -0.0739 -0.0859
30288W        W46182  17.326  13.128  13.842 -0.1893 -0.1196  0.1919
30289W        W46183   1.617   3.105  15.005 -0.3570 -0.1575 -0.4775
30290W        W46184  16.859  12.952  12.074 -0.0883 -0.1102 -0.1240
30291W        W46185   1.154   2.800  14.706  0.1459  0.0106 -0.0140
30292W        W46186  15.843  14.793  17.038  0.2405 -0.0616 -0.5287
30293W        W46187  14.686   5.629  14.097  0.2871  0.0873 -0.1865
30294W        W46188  14.526   7.690  12.341  0.0538  0.0717  0.0541
30295W        W46189   3.154   7.621   4.720  0.0840  0.1033 -0.1157
30296W        W46190   8.877   6.218  13.079 -0.1417  0.0546 -0.1264
30297W        W46191  16.304   3.366   5.127  0.0563  0.2699  0.1445
30298W        W46192  13.884   5.657   2.575 -0.0547  0.0630 -0.1783
30299W        W46193  10.942   7.114  14.407 -0.3907 -0.2593  0.0573
30300W        W46194   1.871   3.633  13.014 -0.2264  0.2482  0.1614
30301W        W46195   5.725   6.454   3.547  0.2440 -0.3776 -0.0672
30302W        W46196  17.582  10.413  13.277 -0.0659  0.0760  0.2289
30303W        W46197   8.347  10.931  11.589 -0.0333  0.2814  0.1145
30304W        W46198   9.486   9.115  15.317 -0.1462  0.0733 -0.0326
30305W        W46199   9.597  12.314  16.821 -0.3619  0.1743  0.0187
30306W        W46200  10.591   4.000   5.325 -0.1031  0.1781 -0.1880
30307W        W46201   0.978   7.452   5.005  0.2682  0.0422 -0.1595
30308W        W46202  17.599   8.575  15.068 -0.1819  0.1939  0.1446
30309W        W46203   3.676   8.400  14.795  0.0345 -0.3149  0.0208
30310W        W46204  12.491   6.328   5.016 -0.0582  0.1658  0.0402
30311W        W46205  11.037   3.111  16.904 -0.2472 -0.3759 -0.1806
30312W        W46206  16.792   3.883  12.237 -0.0030  0.1340 -0.1354
30313W        W46207  10.101  10.746  13.801  0.2114  0.1844 -0.4965
30314W        W46208   4.474   1.870   2.212  0.0681  0.3761 -0.0528
30315W        W46209   5.112   0.383   6.942  0.0811 -0.2918  0.1998
30316W        W46210  15.380  13.452   5.424  0.1885  0.2131  0.0554
30317W        W46211   4.574   9.774   3.360 -0.1203 -0.0024  0.2246
30318W        W46212   8.704   5.735   4.408  0.1899  0.0625 -0.0387
30319W        W46213  11.242   8.677  15.033 -0.1407  0.2241  0.0463
30320W        W46214   3.380   2.370   2.403  0.0275  0.0979 -0.2142
30321W        W46215   2.117   5.871  12.945  0.2277 -0.4535 -0.0550
30322W        W46216   6.452  10.417  16.904  0.0627  0.0759 -0.0648
30323W        W46217  11.451   0.116   1.241 -0.1766 -0.0543  0.0527
30324W        W46218  11.249   8.596  17.224  0.1561 -0.0409 -0.1829
30325W        W46219   3.729   4.142   4.833  0.2793  0.0374 -0.0585
30326W        W46220   9.221  15.369  15.469  0.1164  0.0696  0.1056
30327W        W46221   3.130  10.782   0.078  0.1028 -0.1023  0.0559
30328W        W46222   3.213   4.564   5.619  0.3030 -0.1802 -0.0084
30329W        W46223  14.469  16.994  11.826 -0.2943 -0.1719 -0.0567
30330W        W46224  13.974   1.531  13.360 -0.0099 -0.2113 -0.1062
30331W        W46225   7.406   8.353  11.725  0.0114 -0.0961  0.1480
30332W        W46226   0.379   6.190  14.252  0.2396  0.0386 -0.0977
30333W        W46227   6.036   5.354   4.024  0.0163 -0.0372 -0.2551
30334W        W46228  10.029   3.615   3.716  0.1993 -0.0266 -0.1504
30335W        W46229   7.151   6.075  12.393  0.0598 -0.1511  0.2613
30336W        W46230   1.309   4.186  12.543 -0.3470 -0.2636  0.0992
30337W        W46231  13.623  17.114   3.058 -0.1371 -0.0350 -0.1935
30338W        W46232   6.953   4.741   5.940  0.1203 -0.1666 -0.4258
30339W        W46233  14.945   5.574  16.127 -0.0716  0.0395 -0.0546
30340W        W46234  17.495   5.875   2.202 -0.0063 -0.1706  0.1738
30341W        W46235  10.104   5.169   3.252  0.0968  0.1378  0.0173
30342W        W46236   4.153   5.168  17.031 -0.2769  0.0301  0.0776
30343W        W46237  12.174   2.063   4.071 -0.0639  0.0228  0.1202
30344W        W46238   2.732   9.106  14.872 -0.1256  0.0891 -0.0541
30345W        W46239  12.587  16.680  13.806  0.0834 -0.0943 -0.1366
30346W        W46240   0.644  11.319  13.954  0.2048  0.4328  0.0307
30347W        W46241   6.739  13.464   2.634  0.0525 -0.0260  0.1623
30348W        W46242  16.282   0.465  11.728 -0.0946  0.0510  0.2294
30349W        W46243   9.102  15.106   2.811 -0.2919 -0.0904  0.1578
30350W        W46244   1.518   8.893   5.768  0.0768 -0.0646 -0.1984
30351W        W46245   5.793   5.399   4.732  0.0673 -0.1556 -0.0777
30352W        W46246   6.779  12.527   5.222  0.2277  0.0036  0.0868
30353W        W46247   2.404  12.231  14.064 -0.1395  0.0964 -0.1953
30354W        W46248   9.927   1.802   0.682  0.0555  0.1587 -0.0435
30355W        W46249   3.546  13.753  15.972  0.1168 -0.0718  0.1884
30356W        W46250   1.592   1.805  14.286  0.2023 -0.3757  0.0799
30357W        W46251   7.205   9.873  16.422 -0.3363 -0.2045  0.1313
30358W        W46252   0.822  13.046   2.718 -0.1831 -0.2900 -0.0281
30359W        W46253  17.289  13.322   5.275 -0.2270 -0.0693 -0.2823
30360W        W46254   7.459  11.009  15.660 -0.1693 -0.1696 -0.1264
30361W        W46255  13.092   1.358  14.345 -0.0174  0.1982 -0.0157
30362W        W46256   5.018   1.174   1.050 -0.1828 -0.0309  0.1814
30363W        W46257   4.695   0.612   6.124  0.1630  0.0501 -0.0958
30364W        W46258   6.192  15.680  15.430 -0.5278  0.1886 -0.3946
30365W        W46259  11.963  14.323  13.464  0.2210  0.0621  0.1463
30366W        W46260  10.930   9.059   4.388  0.3584  0.0075 -0.4824
30367W        W46261   4.261   5.760  16.219 -0.1595 -0.0690  0.2126
30368W        W46262   2.630   5.699  14.913  0.0551 -0.1676  0.0628
30369W        W46263   6.997   2.259   0.554  0.3804  0.1378  0.0933
30370W        W46264  11.616  13.638  15.696  0.3656  0.0786 -0.0710
30371W        W46265  12.444  13.909  14.402  0.0518 -0.1723 -0.1682
30372W        W46266   8.157  14.764   5.086 -0.0502 -0.2901  0.1444
30373W        W46267  11.856  14.211   1.893 -0.1065 -0.3361  0.0936
30374W        W46268   9.430  12.537   0.444 -0.0492 -0.0737 -0.0335
30375W        W46269  16.780  16.871  16.923 -0.0806  0.1713  0.1257
30376W        W46270   5.042  15.262  17.046 -0.0094  0.1847  0.1678
30377W        W46271  12.105   1.580   1.738  0.2386  0.0940 -0.1663
30378W        W46272  17.584  10.812   3.780  0.0975  0.0298  0.0529
30379W        W46273  12.407   8.795  13.093  0.0707 -0.0183 -0.2197
30380W        W46274   5.886  11.792  15.502 -0.1112 -0.0974  0.1481
30381W        W46275   6.958   2.249  14.978 -0.1517  0.0008  0.1879
30382W        W46276  11.164  15.041  13.787 -0.1126  0.1779 -0.1740
30383W        W46277   6.582   8.036   2.732 -0.0805  0.0221  0.1377
30384W        W46278   6.695  12.906   5.812 -0.0659  0.1175 -0.1541
30385W        W46279  10.984   1.262  15.221  0.0413 -0.3126  0.1281
30386W        W46280  13.297  12.915   5.068  0.2064 -0.3684 -0.0172
30387W        W46281   8.349   7.021  11.061  0.0713 -0.1112 -0.0559
30388W        W46282   5.159   7.644  16.999  0.0110  0.0656  0.0022
30389W        W46283   3.683  16.482   5.599  0.1357 -0.0492  0.0924
30390W        W46284   3.959  14.862   6.611 -0.0296 -0.0064 -0.2400
30391W        W46285  13.270  16.323   1.241  0.1474  0.0866 -0.3702
30392W        W46286  14.252  14.259  15.058  0.0576  0.1531 -0.2241
30393W        W46287   3.227  11.241   1.194 -0.0624  0.0351 -0.2814
30394W        W46288   5.875  15.818  11.038  0.3579  0.2257  0.3281
30395W        W46289   0.299  17.124   2.567  0.4748 -0.0630  0.1900
30396W        W46290   8.227  14.216  14.480  0.0896  0.1418 -0.1969
30397W        W46291   6.294  14.783   2.334  0.1727 -0.0451 -0.0661
30398W        W46292   5.006   9.868   0.654 -0.0079  0.1338  0.0532
30399W        W46293   2.684  16.314  13.477  0.0164  0.2686  0.2519
30400W        W46294  12.671   4.136  13.944 -0.2523  0.1265 -0.0319
30401W        W46295   5.444   1.138  12.092  0.1351  0.1107 -0.1936
30402W        W46296   8.197   0.203   2.369  0.1396 -0.1295  0.1316
30403W        W46297  11.291  11.997  16.848 -0.2568 -0.1564  0.1139
30404W        W46298   7.964  11.678  13.454  0.0775  0.0917  0.1252
30405W        W46299   5.170  11.547   2.871 -0.0311 -0.0222 -0.0905
30406W        W46300  14.057  14.948  12.276  0.2497 -0.3896  0.1881
30407W        W46301   5.768   5.228  13.577  0.2587  0.0383 -0.2076
30408W        W46302  14.857   5.136  14.349  0.0136  0.0963 -0.1635
30409W        W46303  16.489   6.164   3.438 -0.4124 -0.1220 -0.2466
30410W        W46304  13.181   4.569  16.750  0.1555  0.1136  0.1287
30411W        W46305   3.629  10.238   3.651  0.0753 -0.0743 -0.2031
30412W        W46306  12.578  10.375   2.235  0.2150  0.0860 -0.2054
30413W        W46307   2.508  15.918   3.042 -0.1516 -0.1451 -0.2197
30414W        W46308  10.948  14.225  15.664 -0.2260 -0.1783  0.1098
30415W        W46309  12.720   9.711  11.765 -0.1040  0.0379  0.0268
30416W        W46310  13.411  13.642  14.587  0.0174  0.0152 -0.1070
30417W        W46311  10.753   0.287  16.497  0.3454 -0.0732 -0.2244
30418W        W46312   7.333   0.134   4.531 -0.1061 -0.2834  0.0285
30419W        W46313  15.492   4.567   1.926  0.2733 -0.1598  0.1303
30420W        W46314  11.124  16.957   2.730 -0.1276 -0.0136 -0.1727
30421W        W46315   1.368  13.384   3.891  0.0830  0.0649 -0.0404
30422W        W46316   4.855   4.505   4.415 -0.0210  0.1304  0.0917
30423W        W46317   1.775   4.346   4.707  0.0882 -0.2446  0.1219
30424W        W46318   6.000  16.634   4.908 -0.0334  0.2980 -0.0507
30425W        W46319  15.907   5.907  16.818 -0.1219  0.0677 -0.0222
30426W        W46320  15.478  14.845   5.818 -0.0739 -0.1367 -0.2148
30427W        W46321  13.507   7.022   4.449 -0.3397  0.1460 -0.1430
30428W        W46322  16.503  12.110   5.335  0.0331  0.1061 -0.0576
30429W        W46323   9.728  12.443  15.272 -0.4543 -0.0034 -0.0201
30430W        W46324   1.916   9.794   2.900  0.1475  0.2998 -0.1592
30431W        W46325   6.633  16.766   5.862  0.1479 -0.0361  0.6252
30432W        W46326   8.830  10.334  14.094 -0.1082 -0.2102 -0.2514
30433W        W46327   8.079   3.686  13.558  0.1789  0.1023  0.2288
30434W        W46328   9.043   8.661  11.943 -0.0171  0.1697  0.1722
30435W        W46329  14.206   5.301  15.252  0.1799 -0.0184 -0.0073
30436W        W46330  10.130   1.730  16.916 -0.2440  0.0002 -0.1128
30437W        W46331  12.142   3.869  11.894 -0.0088  0.1781 -0.0441
30438W        W46332  13.047   5.236  13.319 -0.1803 -0.0938  0.0938
30439W        W46333  16.024  15.134  12.177  0.1187 -0.0166  0.1663
30440W        W46334   0.271  14.677   6.463  0.1829  0.0864 -0.0693
30441W        W46335   5.731   0.706   2.507  0.3635 -0.0778  0.2099
30442W        W46336  17.262   9.169  15.304 -0.1503 -0.0037  0.1247
30443W        W46337   8.190   3.686   1.681 -0.1014 -0.1750  0.0465
30444W        W46338   5.093  14.693   1.969  0.1132  0.0664  0.0786
30445W        W46339   7.590  12.179   4.924  0.2680  0.0125 -0.0378
30446W        W46340   3.608  10.711  12.520  0.0067 -0.3307 -0.3018
30447W        W46341   4.320  12.195  13.059  0.0305  0.2888 -0.4836
30448W        W46342  14.722  12.299   1.881 -0.0861  0.1760 -0.0661
30449W        W46343   8.888   4.825   4.608 -0.2302  0.4484 -0.1386
30450W        W46344   5.279   2.480   4.169  0.0703 -0.1331 -0.1617
30451W        W46345   0.789  11.119   5.303  0.0312  0.0601 -0.0415
30452W        W46346  10.215   0.924  12.737  0.1507 -0.1950  0.0107
30453W        W46347  11.604  11.037   5.746  0.0272 -0.0845  0.2111
30454W        W46348   7.551   6.184  13.708 -0.2948 -0.2455 -0.1127
30455W        W46349  11.628   6.644   4.146 -0.2176  0.0173  0.2127
30456W        W46350  16.025  17.256   0.463  0.1730 -0.1865 -0.1176
30457W        W46351  10.444   1.720   0.888 -0.2388  0.0052 -0.1189
30458W        W46352   3.015   0.125   2.289  0.1978 -0.0219  0.0523
30459W        W46353   9.976   8.635  13.451 -0.1077  0.1615  0.1916
30460W        W46354   2.751  11.130   4.170  0.0686 -0.0763 -0.2046
30461W        W46355   6.667  10.485   1.300  0.2454 -0.1249 -0.1026
30462W        W46356   6.778  15.057   2.317  0.2346 -0.1136  0.1431
30463W        W46357   9.433   6.132  16.965  0.3182  0.1153  0.0409
30464W        W46358  10.329  17.103   6.086 -0.0379  0.2642  0.0577
30465W        W46359   5.093   9.229   4.951 -0.0278  0.3728 -0.4571
30466W        W46360  15.844   5.291  13.453  0.0468 -0.3121  0.1356
30467W        W46361  12.581  12.196   0.691 -0.2939  0.0086 -0.2117
30468W        W46362   0.949   5.892   2.395  0.1282  0.0281  0.2019
30469W        W46363  14.090  10.332  14.991  0.2509 -0.1357 -0.0494
30470W        W46364   6.634   6.172   1.961 -0.1932 -0.1388  0.0979
30471W        W46365  10.447   7.432   1.275  0.0870 -0.0913 -0.2213
30472W        W46366   7.954  12.440  12.410  0.0446  0.3035 -0.2469
30473W        W46367   5.367  10.412  12.009 -0.0954  0.1498  0.2284
30474W        W46368  17.410  12.182   0.575  0.2219 -0.0686 -0.1404
30475W        W46369   0.765   9.601   5.761 -0.0434  0.1560 -0.1845
30476W        W46370   7.526   9.125  14.082  0.1177  0.0266 -0.1932
30477W        W46371   6.479  14.196   3.538 -0.2463  0.3569  0.2209
30478W        W46372  13.688  10.452  11.828 -0.1076  0.1035  0.0976
30479W        W46373  10.929   2.843   0.081  0.1602 -0.2124  0.1020
30480W        W46374  13.103   4.294  11.586  0.2932 -0.2164 -0.0831
30481W        W46375   8.343  17.473  11.232 -0.1684  0.1249  0.0845
30482W        W46376  14.759   6.589   1.874  0.0507  0.1798 -0.1178
30483W        W46377   0.458   6.057  16.206 -0.2074  0.0900 -0.0403
30484W        W46378  17.106  17.091   0.054 -0.0984  0.1699 -0.1616
30485W        W46379   0.902   7.356   1.080  0.0957 -0.0900 -0.0135
30486W        W46380  12.586   0.373   1.851 -0.1093  0.0602 -0.0265
30487W        W46381  12.939  14.858  12.480 -0.1074 -0.0687 -0.1420
30488W        W46382   5.758   0.855   3.823  0.1998 -0.1667 -0.1563
30489W        W46383   8.442   6.196  17.246  0.1673 -0.0932  0.1242
30490W        W46384  16.399  16.749   0.156  0.1421  0.1389  0.0232
30491W        W46385   1.829  14.603  13.434 -0.2158  0.3050 -0.1483
30492W        W46386  16.936   5.343  15.290 -0.0953  0.0482  0.1405
30493W        W46387   8.874   3.467  11.085 -0.3187  0.0715 -0.1288
30494W        W46388  16.344   2.894   3.002  0.2821  0.1253  0.2068
30495W        W46389   2.007   3.867   3.243  0.1201  0.0559  0.1792
30496W        W46390   1.013   6.180   0.265  0.1784 -0.0046 -0.2474
30497W        W46391  12.394   7.328   2.608  0.0460 -0.0902 -0.4979
30498W        W46392   4.181  16.656   4.570 -0.0990 -0.0700  0.0762
30499W        W46393  16.087   0.380   3.835  0.0420 -0.0483  0.3770
30500W        W46394  15.303   7.713  15.325 -0.0529  0.0413  0.1314
30501W        W46395   9.983   5.257   1.366 -0.1241 -0.3498  0.1465
30502W        W46396   4.479   7.754   0.430  0.2933  0.0871  0.2722
30503W        W46397   1.764   4.422  14.144 -0.1048 -0.4440  0.3034
30504W        W46398   4.168   0.557   1.129 -0.0162 -0.1238 -0.0528
30505W        W46399   5.570   7.798  17.141 -0.2017  0.0180  0.3196
30506W        W46400  11.710   0.911   5.696  0.1139 -0.2190 -0.3099
30507W        W46401   0.409  13.299  15.773 -0.1145 -0.4950 -0.0306
30508W        W46402   7.022   2.467   1.005 -0.1481  0.0474  0.0406
30509W        W46403   0.840   8.933   0.189 -0.0662  0.0517 -0.2639
30510W        W46404   9.379   1.780  13.887  0.1757  0.1024 -0.0159
30511W        W46405  14.750  14.349  15.944 -0.4293  0.0034 -0.0657
30512W        W46406  11.304  11.627  12.336 -0.3040  0.3086 -0.1956
30513W        W46407   4.592  13.877   5.065  0.0882  0.1013  0.3860
30514W        W46408  13.414   7.004   2.705 -0.0527 -0.2128 -0.1673
30515W        W46409  16.417  16.081  15.761 -0.1025  0.0450 -0.1871
30516W        W46410  11.370  13.357   5.629  0.2008  0.2119 -0.1107
30517W        W46411   9.767   3.106   1.239 -0.1602 -0.1477  0.0050
30518W        W46412   8.148  14.696  14.473  0.2049 -0.3207  0.0299
30519W        W46413  10.348   3.577  16.967  0.2143 -0.0787 -0.2410
30520W        W46414   5.736   7.755  14.364 -0.2952 -0.2383  0.1913
30521W        W46415   8.580   4.253  14.903 -0.0503 -0.0754  0.0565
30522W        W46416  14.131  17.497  16.414 -0.1477  0.1426 -0.2813
30523W        W46417  11.690   7.060   0.904  0.0715 -0.1512  0.0801
30524W        W46418  13.060   5.909  13.187 -0.0910  0.4060  0.0887
30525W        W46419  16.767   0.801  14.839 -0.2233 -0.0629  0.0644
30526W        W46420  11.154   1.720   5.398  0.1199  0.0902 -0.0707
30527W        W46421   2.195  10.077   0.005 -0.0996  0.2931  0.2152
30528W        W46422   6.799  12.652  11.884 -0.4097 -0.1144 -0.2126
30529W        W46423   0.238  10.984   2.818  0.0537 -0.0012 -0.0060
30530W        W46424   8.561   4.731  15.448 -0.1395  0.2148  0.0620
30531W        W46425   5.610   4.933   0.822  0.0803 -0.0332 -0.0664
30532W        W46426   3.631   8.402  15.337 -0.0300  0.1708 -0.1610
30533W        W46427  10.011   1.589   1.187  0.2512 -0.1357 -0.2011
30534W        W46428   8.009   7.780   4.259 -0.1082 -0.4204  0.1345
30535W        W46429   1.006  14.198   5.991 -0.2198 -0.0721 -0.0081
30536W        W46430   1.668  12.512   0.622 -0.0510 -0.0205  0.0160
30537W        W46431   3.682  10.829  11.998  0.2478 -0.0185  0.1672
30538W        W46432  16.982   5.766   2.178  0.0446  0.0119 -0.0177
30539W        W46433  10.224  17.255  12.669  0.0738 -0.0534  0.0702
30540W        W46434   0.059   6.505  16.088 -0.0786 -0.1317  0.0608
30541W        W46435   5.863   7.577  13.790 -0.5369  0.3085 -0.0361
30542W        W46436   6.272   5.556   0.442  0.0577  0.1837 -0.0687
30543W        W46437  11.997   3.342   4.033 -0.1629  0.2227  0.2346
30544W        W46438   5.345  12.419   1.390  0.1708 -0.2564 -0.1681
30545W        W46439  13.012  10.643  12.652  0.2372 -0.0064  0.1754
30546W        W46440  14.069  16.605  15.189 -0.2373  0.1362  0.1009
30547W        W46441   6.177  13.925  16.170 -0.0556  0.0626  0.1427
30548W        W46442   3.880  12.013  13.257  0.0834 -0.0508 -0.0236
30549W        W46443  10.930  12.180  16.473 -0.3117  0.0337 -0.1773
30550W        W46444  12.136  15.056  15.023 -0.0266 -0.1281 -0.2655
30551W        W46445  11.721  14.458   5.307 -0.2253  0.4209 -0.2381
30552W        W46446  11.150  16.516  13.858 -0.1650  0.2132 -0.1015
30553W        W46447   4.866   1.083   2.049  0.0889 -0.0148  0.0593
30554W        W46448  10.847   8.097  11.389  0.1418  0.0323  0.0057
30555W        W46449  14.539   9.177  14.808  0.3656  0.1171 -0.0358
30556W        W46450  15.893   2.855  17.101  0.0134 -0.0753  0.1389
30557W        W46451  15.802   8.495   5.247 -0.1195 -0.2271  0.0614
30558W        W46452   6.046   7.901  12.348 -0.1579 -0.0185  0.2666
30559W        W46453  15.128   6.967   1.993  0.1999 -0.2869  0.1509
30560W        W46454   5.604   0.558  13.449  0.0571 -0.2442 -0.1015
30561W        W46455   9.376  17.030  14.226  0.0045 -0.4088 -0.0069
30562W        W46456   7.919  10.085  14.541  0.1882  0.0050 -0.2841
30563W        W46457  12.955   8.060  12.467 -0.0343 -0.0798 -0.1352
30564W        W46458  13.789   1.599   3.231 -0.1790  0.1542  0.2049
30565W        W46459   4.593  14.210  15.134 -0.0836  0.3114  0.3350
30566W        W46460  17.271   4.519  12.133 -0.2620 -0.0029 -0.0368
30567W        W46461  12.796   2.359   5.668 -0.0017  0.0699 -0.0513
30568W        W46462  13.693  16.736  16.496 -0.1045  0.0869 -0.4558
30569W        W46463  15.458  17.051  17.264 -0.4836  0.1282  0.2302
30570W        W46464  11.497   6.251  11.600  0.1167 -0.1001 -0.0866
30571W        W46465   6.589   9.778   0.539  0.4134  0.3644  0.0475
30572W        W46466   9.703   9.285  11.577  0.0332  0.1746 -0.1121
30573W        W46467  10.593   3.849  12.396 -0.2261  0.0433 -0.1263
30574W        W46468   1.561  10.717   0.757  0.1335  0.1906 -0.1126
30575W        W46469   4.031  13.683   5.118 -0.2186 -0.2122 -0.2174
30576W        W46470   0.369   9.341   3.913  0.0152 -0.1175 -0.0702
30577W        W46471  12.493   3.806   4.823 -0.2110 -0.0523 -0.4646
30578W        W46472  11.886  10.502  15.524  0.1416 -0.0692 -0.4248
30579W        W46473   7.280   6.713   0.148  0.0148  0.2431  0.1081
30580W        W46474   2.690   8.641   2.087  0.1714 -0.0100  0.0587
30581W        W46475   0.663  10.188   2.306 -0.1215  0.0832  0.0499
30582W        W46476  11.903   5.453  15.910  0.0677  0.1016 -0.0883
30583W        W46477  16.138   7.765  12.078 -0.1309 -0.1518 -0.1826
30584W        W46478   0.805   6.003   4.055  0.2425  0.0422 -0.0763
30585W        W46479   1.802   7.570   0.361 -0.1373  0.0738 -0.0406
30586W        W46480  15.034  12.544   4.874  0.0828 -0.0022  0.4942
30587W        W46481  10.005   5.533  11.986 -0.0981 -0.1193  0.0642
30588W        W46482   5.086  15.108   3.961 -0.0423  0.1646 -0.0997
30589W        W46483   0.586   9.884   1.357  0.0044  0.2059  0.2541
30590W        W46484  17.028  15.861  14.034  0.2757  0.2776  0.1154
30591W        W46485  11.269   0.261  14.073  0.0656  0.2048 -0.2172
30592W        W46486   3.270   8.897   6.517  0.2068  0.1111  0.2635
30593W        W46487  10.923   7.516  13.108  0.1093  0.0740  0.0926
30594W        W46488   4.533  15.729  12.253 -0.1847 -0.0274 -0.1395
30595W        W46489   4.148  16.691   3.316 -0.0485  0.1929  0.1901
30596W        W46490  16.689   2.647  12.741  0.0221  0.0216  0.3561
30597W        W46491   5.232   5.955  16.459  0.2421 -0.2094 -0.1044
30598W        W46492  16.035   0.178  16.024 -0.3538 -0.2308  0.0876
30599W        W46493  13.969   6.285   2.685 -0.1351  0.3270 -0.0723
30600W        W46494   5.569  14.817   1.462 -0.0906 -0.0080 -0.1387
30601W        W46495   2.996  13.967   3.369  0.0317 -0.0085  0.1362
30602W        W46496  17.328   6.506  13.405 -0.0045  0.1304 -0.1369
30603W        W46497   4.165   8.700   1.166  0.0738 -0.0985 -0.2222
30604W        W46498   8.149  12.865   5.425  0.1543  0.1761 -0.4556
30605W        W46499   3.097   2.598  17.108  0.0579 -0.0202 -0.1385
30606W        W46500  15.331   3.227  14.234  0.1332 -0.1643  0.2784
30607W        W46501  10.434   2.626   5.964  0.2225 -0.0704  0.0862
30608W        W46502   7.255  12.986   3.871  0.0239 -0.2051 -0.0782
30609W        W46503   6.163  10.922  15.708 -0.0362  0.1931  0.0233
30610W        W46504  14.975   4.995  13.311  0.1931  0.1096 -0.0439
30611W        W46505  16.213   2.704   4.397  0.0087 -0.2739 -0.3687
30612W        W46506   9.231   6.736  15.936  0.2322 -0.2298 -0.1311
30613W        W46507   2.283   7.736   3.250 -0.1052 -0.1494 -0.2104
30614W        W46508   1.570   9.269  16.412 -0.0988  0.0022  0.3651
30615W        W46509  12.180  11.952  16.544  0.0130 -0.0697  0.0560
30616W        W46510   5.837  17.073   4.084  0.1096  0.0440 -0.1634
30617W        W46511   3.019  10.801   6.673 -0.2224  0.2601 -0.4598
30618W        W46512  17.494   8.752   3.330  0.0015 -0.0517 -0.2243
30619W        W46513   9.975  12.548   0.593  0.1617 -0.1376 -0.0012
30620W        W46514   0.969   3.175   1.595 -0.2209  0.1482 -0.0144
30621W        W46515   7.525   7.396   6.262  0.0783 -0.0214 -0.1740
30622W        W46516   1.816  14.842  17.174 -0.0091 -0.0812 -0.1719
30623W        W46517   0.624   5.485   3.098  0.1666  0.1876  0.1305
30624W        W46518  11.706   5.283  12.930  0.0343  0.1157  0.0814
30625W        W46519   5.626  12.616  11.927  0.2328  0.4614 -0.0788
30626W        W46520   2.890   2.075  14.922 -0.0807  0.3224 -0.1720
30627W        W46521   7.628  12.757   0.219 -0.0635 -0.3256  0.0399
30628W        W46522   3.233   3.538  13.243  0.0647  0.1139 -0.0613
30629W        W46523   2.821   1.790   5.803  0.0547  0.0032 -0.0939
30630W        W46524  11.296   2.665  12.221 -0.3855  0.0596 -0.3726
30631W        W46525   5.774  15.278  12.463 -0.2915 -0.3200  0.0327
30632W        W46526   0.719  14.623  17.065 -0.2108 -0.0300  0.0390
30633W        W46527   1.334   0.259  16.819 -0.2573  0.2642  0.2234
30634W        W46528  14.022  16.466   1.033  0.1800  0.0249 -0.3011
30635W        W46529   4.922   9.278  16.722 -0.2421  0.0064  0.1760
30636W        W46530   4.155   8.709   0.106  0.0576  0.0424 -0.0293
30637W        W46531   4.129  16.793  14.954 -0.0762 -0.3382  0.1328
30638W        W46532  16.929   5.381   3.215  0.1895 -0.0349  0.2187
30639W        W46533   2.629   4.122  13.024 -0.1372 -0.2368 -0.2187
30640W        W46534   1.096   9.899   2.679  0.0662  0.0264 -0.4595
30641W        W46535   8.341  15.737  13.630 -0.0151 -0.2956  0.0627
30642W        W46536   5.663   8.584  16.891  0.2343 -0.0888 -0.1366
30643W        W46537   9.720   9.573   4.690 -0.3393 -0.0582  0.1907
30644W        W46538  12.260   4.616   2.522 -0.0497 -0.0011  0.0278
30645W        W46539  12.422   4.096  12.238  0.1362 -0.0854 -0.1101
30646W        W46540   4.328   2.365  17.042  0.1298  0.2438 -0.2780
30647W        W46541   2.456   4.717   0.751  0.1200  0.3902  0.0643
30648W        W46542   9.820  17.270   6.426  0.0199 -0.2274 -0.3461
30649W        W46543   0.763   1.912   4.402 -0.0275  0.0776 -0.1026
30650W        W46544   4.974   8.835   0.299 -0.2741 -0.1908 -0.1143
30651W        W46545   2.797   2.310  11.037 -0.0484 -0.0378  0.0164
30652W        W46546   4.372   8.668  16.737 -0.1184 -0.0634  0.1566
30653W        W46547   2.293   8.196   5.999 -0.0706 -0.0055 -0.0907
30654W        W46548  12.407  10.735  16.797 -0.3017  0.1983 -0.2713
30655W        W46549  12.008   4.033  13.262  0.4333  0.3687  0.3337
30656W        W46550   1.647  15.786  14.669  0.3508  0.0953  0.2388
30657W        W46551  14.427   9.233   3.437  0.1062 -0.0809 -0.0537
30658W        W46552  10.633  15.089   2.962 -0.1120  0.0018 -0.0934
30659W        W46553   7.495   9.216   2.510  0.1422 -0.1068 -0.3742
30660W        W46554   9.184  11.839   2.483 -0.0236  0.2436  0.1719
30661W        W46555   4.838   7.586  11.933 -0.4108  0.2363 -0.0609
30662W        W46556  11.450   4.264  15.266  0.1574 -0.0730 -0.4900
30663W        W46557   5.036  17.558   4.969  0.0610  0.0706  0.0803
30664W        W46558  10.164   6.743   2.547  0.2122 -0.1408  0.0469
30665W        W46559   7.690   7.324  11.645  0.1297 -0.1224  0.3405
30666W        W46560   5.335  16.973   1.943 -0.1512  0.2104  0.0012
30667W        W46561   7.164   7.254   1.431 -0.0193  0.1883 -0.2312
30668W        W46562   5.818   7.833   4.548 -0.2049 -0.1334 -0.0793
30669W        W46563  17.362  11.727   4.867  0.0543 -0.3648 -0.0414
30670W        W46564  12.230   2.590   4.536  0.3610 -0.4314 -0.0289
30671W        W46565   8.337   2.092  15.683 -0.0086 -0.0110 -0.4736
30672W        W46566   4.524   4.883   4.762  0.0349 -0.0290  0.3373
30673W        W46567   7.389   5.770   0.035 -0.0493  0.2873 -0.2655
30674W        W46568   9.969   7.014  15.980 -0.0290  0.0361  0.0410
30675W        W46569  12.369   3.837  15.128 -0.1939 -0.1169 -0.2475
30676W        W46570  10.150  11.037  13.431  0.0749  0.1249  0.5163
30677W        W46571  16.102   5.177   1.722  0.0928  0.2875 -0.1999
30678W        W46572  11.639  12.212  15.346 -0.2469 -0.3203  0.2403
30679W        W46573  14.020   5.397  13.851  0.1608  0.1733 -0.1077
30680W        W46574   8.417  11.145  17.000  0.0062  0.0934  0.0869
30681W        W46575  16.662   8.031   0.213  0.2277  0.0037  0.1431
30682W        W46576  10.350   0.281  17.153 -0.0922 -0.2950  0.3815
30683W        W46577  16.593  15.542  13.604  0.1065 -0.2893 -0.1044
30684W        W46578   7.682   9.356   0.753  0.6197  0.0629 -0.3494
30685W        W46579   5.001  12.520  14.015  0.1152  0.0278 -0.1402
30686W        W46580   3.657  12.525   1.128  0.0002 -0.0599 -0.0810
30687W        W46581  15.277  16.987  15.906  0.2486  0.3599 -0.1536
30688W        W46582  17.110  11.486  13.521 -0.0947  0.5304 -0.0675
30689W        W46583   6.453  10.690  14.879  0.0712 -0.1874  0.1129
30690W        W46584   9.646   7.709  16.477  0.3452  0.0322  0.1592
30691W        W46585   3.417  12.565   4.838  0.1198 -0.0804  0.0060
30692W        W46586  15.332   7.322   3.932 -0.1996  0.1607  0.0032
30693W        W46587  14.029   3.986  15.833 -0.1601  0.0158  0.0835
30694W        W46588   9.187  15.153   1.826  0.2782 -0.1052 -0.1381
30695W        W46589   7.867  15.236  14.512 -0.0534  0.0463 -0.0766
30696W        W46590  14.923   8.383   3.495 -0.5184  0.1115 -0.0975
30697W        W46591  11.309   4.955  12.994  0.1277 -0.0278  0.0942
30698W        W46592   6.432   8.599  14.192  0.2958 -0.5077  0.5521
30699W        W46593  10.044  13.776  12.400 -0.1887  0.1057  0.0482
30700W        W46594  11.926   0.854  15.048  0.0114 -0.0588 -0.1431
30701W        W46595   2.078  16.719  11.759  0.1691 -0.0595  0.1689
30702W        W46596   6.483  11.409   4.041 -0.0703  0.0936  0.1436
30703W        W46597   9.078   8.838   3.034  0.1291 -0.0652 -0.0154
30704W        W46598  15.025  16.152  12.853 -0.1790 -0.1250  0.0738
30705W        W46599   9.064   2.233  13.713 -0.1268  0.0085  0.0444
30706W        W46600   8.076   0.841   2.488  0.0202 -0.0016  0.0915
30707W        W46601  11.936  16.561   1.463  0.0476 -0.0201 -0.1092
30708W        W46602  12.818   9.952   4.446 -0.0078  0.1596 -0.1045
30709W        W46603   6.762   1.921   0.242  0.1233 -0.2362  0.0260
30710W        W46604   4.698   5.067   1.504  0.0571 -0.0958 -0.0311
30711W        W46605  17.280  16.901   4.220  0.1507  0.1834  0.0450
30712W        W46606  13.616   8.897   3.164 -0.2064  0.1808 -0.0437
30713W        W46607   3.537   8.997  12.665  0.3443  0.0420  0.2348
30714W        W46608  11.348   6.123  14.982  0.3156 -0.0697 -0.2181
30715W        W46609  11.940  13.946  14.252  0.3230 -0.0897 -0.1169
30716W        W46610  10.255  12.412   0.232  0.0779 -0.1113 -0.0394
30717W        W46611  13.853   8.204   5.776  0.0261  0.0418 -0.0002
30718W        W46612   2.519   2.564   0.574 -0.2301 -0.2379 -0.3003
30719W        W46613   4.076  14.505  12.995  0.2571 -0.0650  0.0966
30720W        W46614   1.968   7.567  16.959  0.1042  0.0856 -0.1294
30721W        W46615  14.861   9.126  14.422 -0.1254 -0.0833 -0.0871
30722W        W46616   3.293   7.909   5.173  0.0634  0.2500 -0.0380
30723W        W46617   2.174  11.792   3.335 -0.2397  0.0643 -0.2658
30724W        W46618   7.319   0.235  16.446 -0.0126  0.2232  0.0546
30725W        W46619  11.593   6.874  12.889  0.0173  0.0368 -0.0661
30726W        W46620   1.703   4.709   0.103 -0.0217  0.1053 -0.0289
30727W        W46621   8.623  15.423  13.315  0.1863 -0.0784  0.0205
30728W        W46622  16.146  16.339   5.420 -0.3611 -0.0844 -0.3323
30729W        W46623   2.856   5.275   4.164  0.0696 -0.0935 -0.0862
30730W        W46624   6.295  15.308   0.348  0.0723 -0.1257 -0.3539
30731W        W46625   0.023  15.549   3.057 -0.0589 -0.2470  0.0043
30732W        W46626   0.284  12.340  13.046 -0.2649 -0.2361  0.0993
30733W        W46627   2.206  13.001   2.687  0.1496  0.1593 -0.1248
30734W        W46628   4.033   7.147  14.181 -0.1124  0.2088 -0.0920
30735W        W46629  14.405  15.510   5.744 -0.3116  0.3675  0.1852
30736W        W46630   9.700   1.018   5.221  0.1964  0.1456  0.0771
30737W        W46631   8.227   4.242  14.551  0.4505  0.0948  0.0115
30738W        W46632  13.138  11.015  16.546  0.0635  0.1535 -0.2325
30739W        W46633   1.989  15.799  13.273  0.2360 -0.0311 -0.3196
30740W        W46634   7.091  14.302   4.339 -0.0617 -0.3614 -0.1938
30741W        W46635  17.059   5.254   2.180 -0.2101 -0.0698  0.2325
30742W        W46636  15.850  11.835  12.633 -0.0969 -0.1242  0.1840
30743W        W46637  16.147  12.469  11.880 -0.0046 -0.1769  0.0983
30744W        W46638   5.548  11.981   1.726  0.0241  0.0394  0.0656
30745W        W46639  12.990   9.242  11.582  0.0679 -0.1729 -0.0103
30746W        W46640   8.408  10.011   3.963  0.2614  0.2005  0.2733
30747W        W46641  13.003   9.093   0.838  0.0120  0.1533  0.1223
30748W        W46642   6.632   5.305   3.695  0.0217 -0.4869  0.2691
30749W        W46643  15.277  10.732   4.145 -0.0325 -0.0809  0.1531
30750W        W46644   3.895  13.816   0.640 -0.0186 -0.0503 -0.0781
30751W        W46645  16.950   3.319  16.858  0.3740  0.1478 -0.3821
30752W        W46646   9.905  15.453  11.704  0.1798 -0.0706 -0.2565
30753W        W46647   1.566  14.759   0.894  0.0181  0.1478 -0.0655
30754W        W46648   6.520  14.662   5.830 -0.0875  0.3735 -0.1119
30755W        W46649   3.324  10.704   6.270 -0.1460  0.0556  0.1472
30756W        W46650   9.189  12.808   2.747 -0.0258 -0.1603 -0.0133
30757W        W46651  11.561  13.959  16.839  0.0257 -0.0394 -0.2958
30758W        W46652   7.596   0.161  15.068  0.0961 -0.0875 -0.1564
30759W        W46653   3.110  15.323   5.918  0.0233  0.0678  0.0948
30760W        W46654  13.370  14.674  14.486 -0.1990  0.0327 -0.0201
30761W        W46655  17.482   9.223   2.553 -0.0161  0.1457  0.1400
30762W        W46656  14.649  13.988  11.609 -0.1532  0.4359  0.0569
30763W        W46657   2.912  10.762  13.093 -0.0040  0.1142  0.0416
30764W        W46658   3.375   1.257  15.054 -0.1230 -0.1044 -0.1220
30765W        W46659  14.364  12.210   2.857 -0.0480  0.0086 -0.0710
30766W        W46660  17.223   1.694   3.449 -0.1079 -0.0518  0.1218
30767W        W46661  16.922   3.197   2.395 -0.1371  0.1320  0.0617
30768W        W46662  13.509  17.311  11.639  0.2065  0.1993  0.2047
30769W        W46663  13.610  16.776  11.764  0.3606 -0.0201  0.1159
30770W        W46664  14.282   1.386  14.037  0.3531  0.2574 -0.2842
30771W        W46665  15.838   5.320  16.089 -0.2284  0.2318 -0.1378
30772W        W46666  16.786   7.321  13.373  0.2154 -0.2873  0.0237
30773W        W46667   4.087   6.173   6.052  0.1885 -0.3489  0.0390
30774W        W46668   4.681  12.485  13.170 -0.0904 -0.1453  0.0863
30775W        W46669   1.596  16.351  15.373 -0.0794  0.1573  0.2183
30776W        W46670  12.742   4.304  11.889 -0.2120 -0.0757  0.1479
30777W        W46671  15.190  13.366  11.249  0.0796 -0.0313  0.1820
30778W        W46672  17.561   1.997  12.067  0.1841 -0.1038  0.0221
30779W        W46673   7.800   4.239   3.460  0.0806  0.1611  0.1256
30780W        W46674   6.844  17.168   3.039 -0.5120 -0.0250  0.0183
30781W        W46675   8.903   4.140   6.073  0.0584 -0.1183 -0.0225
30782W        W46676   4.358  17.572  14.347 -0.1968  0.0944 -0.4490
30783W        W46677  17.626  15.628   3.610 -0.1074  0.1263 -0.0416
30784W        W46678   4.861  12.508   1.346  0.2698  0.2208 -0.0497
30785W        W46679  13.865  12.502  11.897  0.0390 -0.0862 -0.0173
30786W        W46680  16.435  10.252   1.381 -0.0116  0.2385 -0.0058
30787W        W46681   6.224  13.101   1.956 -0.2119  0.2084  0.1484
30788W        W46682  16.276   6.001   5.635  0.2858 -0.1917  0.1346
30789W        W46683  11.961   8.465   2.078 -0.5943  0.1583 -0.0350
30790W        W46684   2.265   9.949   5.673  0.0995 -0.0168 -0.0668
30791W        W46685  17.385   2.474  14.958 -0.0938 -0.0071 -0.1736
30792W        W46686  15.318   8.615  16.963 -0.1210 -0.0366 -0.0941
30793W        W46687  12.093   0.987   2.533 -0.1440  0.1116 -0.4158
30794W        W46688   2.521  15.512  16.710  0.1937  0.2674  0.0204
30795W        W46689  16.929  11.833  15.893 -0.2764 -0.3520 -0.0582
30796W        W46690  17.418  16.185   3.836  0.1368  0.0505 -0.0068
30797W        W46691  17.521  12.439   1.285 -0.1760  0.1318  0.1278
30798W        W46692   4.592   6.269  13.213 -0.0054 -0.1760 -0.3275
30799W        W46693   1.000  12.269   3.063  0.1341  0.0143 -0.0241
30800W        W46694  13.635   7.743  12.073  0.2365  0.2444  0.2673
30801W        W46695   8.560  14.974   3.624 -0.0698  0.0043 -0.1210
30802W        W46696  12.633   3.412   4.478  0.1754  0.0481 -0.0955
30803W        W46697  14.497  15.377  14.954  0.1555  0.1958  0.0371
30804W        W46698  10.551   1.807   1.333  0.1312 -0.1474 -0.1526
30805W        W46699  17.031   1.861   2.481 -0.2277 -0.0870  0.1135
30806W        W46700   4.395   7.996  13.034  0.1132 -0.1482 -0.1881
30807W        W46701  10.937  11.327   4.044  0.0357  0.1430  0.2717
30808W        W46702  16.598   6.441  16.516  0.1423  0.1383  0.0344
30809W        W46703  10.365  15.937  12.322 -0.0889 -0.0634  0.0887
30810W        W46704   9.543   9.714  16.954  0.0831 -0.2463 -0.3036
30811W        W46705   2.144  13.470   3.040 -0.0415  0.0837  0.1649
30812W        W46706  14.973   5.297  13.837  0.1505  0.0443 -0.0347
30813W        W46707   0.501   6.927  13.738  0.4667  0.3225  0.0565
30814W        W46708   2.718  11.952   5.221 -0.0391 -0.1078 -0.1410
30815W        W46709   9.588   0.230   0.407  0.0457  0.0116 -0.0113
30816W        W46710   1.214  12.902  12.361 -0.1335 -0.1513 -0.0003
30817W        W46711  11.845   3.747  14.374  0.2035  0.1506  0.0667
30818W        W46712  12.050  16.564   0.958 -0.0209 -0.2970 -0.2081
30819W        W46713   6.030   7.674   0.709 -0.0154  0.1197 -0.1867
30820W        W46714   1.158   2.735   4.520 -0.0622 -0.1261 -0.1903
30821W        W46715   9.217   3.831   3.358  0.0247  0.0986  0.0957
30822W        W46716  16.134   3.829  13.336  0.2292  0.1758 -0.0422
30823W        W46717   1.658   6.216  14.815 -0.0175 -0.1916 -0.1500
30824W        W46718   4.088  15.967   3.868 -0.0254  0.0200  0.2827
30825W        W46719   9.652  11.918   2.314  0.3765 -0.1859  0.0911
30826W        W46720   4.290  16.495   1.982 -0.0155  0.0519  0.4811
30827W        W46721   3.231   3.789   1.460  0.4440 -0.1166 -0.0228
30828W        W46722  10.579   0.173   1.340  0.0806  0.2207  0.0126
30829W        W46723   2.657   9.902  12.593 -0.1492 -0.2184 -0.1821
30830W        W46724   3.326  15.281   3.446 -0.2710 -0.0289 -0.1301
30831W        W46725  12.750   3.317   5.033 -0.1770 -0.1144 -0.0841
30832W        W46726  12.450   6.918  12.273  0.1005  0.3021  0.0644
30833W        W46727   5.560   2.565   0.467  0.2230  0.1024 -0.0638
30834W        W46728  15.212  15.349  12.405  0.1901 -0.0249 -0.1456
30835W        W46729   8.770   1.719   3.423 -0.1821 -0.1509  0.0120
30836W        W46730   6.282   4.830   2.043  0.1673 -0.3539  0.3389
30837W        W46731   5.161  11.456  15.564  0.3247 -0.1389 -0.0401
30838W        W46732  11.048   4.049  16.579 -0.2243  0.0001  0.1439
30839W        W46733  11.028   1.565  16.879  0.2280 -0.3147  0.0449
30840W        W46734  15.707  15.965   0.486 -0.0221 -0.0268  0.2607
30841W        W46735   4.405  10.810   3.861  0.0822 -0.3251  0.2005
30842W        W46736   3.414   7.805  16.914  0.1957 -0.4781  0.1330
30843W        W46737   6.454  11.745  15.780  0.1403  0.0123  0.3460
30844W        W46738   8.669  16.679  15.233  0.2090 -0.1129  0.2329
30845W        W46739   5.969   4.022   0.881  0.0530 -0.2837  0.1463
30846W        W46740  11.936   6.380   0.191 -0.0792  0.0769 -0.0007
30847W        W46741  11.292   6.944  14.737 -0.0117 -0.1298 -0.0469
30848W        W46742  16.454  12.559   0.736  0.0208 -0.1824 -0.0516
30849W        W46743   4.813   2.090  15.461 -0.4424  0.3816  0.1563
30850W        W46744   3.626   6.795  15.378  0.1618 -0.0648  0.0191
30851W        W46745  10.431  11.023  16.494 -0.1190 -0.2216 -0.0569
30852W        W46746   6.773  11.175  14.107 -0.0504 -0.0447 -0.0457
30853W        W46747   8.248   1.731  15.265 -0.1367  0.1103  0.0882
30854W        W46748   1.314   9.339   0.014  0.1651 -0.1612 -0.0317
30855W        W46749  13.742  16.980   0.963  0.1442  0.0602 -0.3834
30856W        W46750   7.475  16.551  16.190 -0.1192  0.1656 -0.2309
30857W        W46751   7.183   4.882   3.657  0.1026  0.0119 -0.3146
30858W        W46752   7.724   3.969  14.797 -0.2765 -0.0442 -0.1875
30859W        W46753   2.471   2.251   5.893 -0.0845 -0.0441 -0.0178
30860W        W46754   3.800   1.003   5.821 -0.1937  0.2703 -0.0829
30861W        W46755  16.955   0.456   3.449 -0.0905 -0.0546 -0.2151
30862W        W46756   4.646   6.080  16.209  0.0963  0.2085  0.2416
30863W        W46757  11.184   3.723  14.506  0.2298  0.1152 -0.0306
30864W        W46758  11.270  17.191  11.076  0.1453 -0.0384  0.2451
30865W        W46759   1.710   9.071   3.924  0.1623  0.2547 -0.3027
30866W        W46760   1.470   6.891  13.660  0.0987  0.0636  0.2705
30867W        W46761   9.812  13.644  14.435 -0.1527 -0.2246 -0.0154
30868W        W46762   3.758  12.423   3.212  0.0662  0.2117 -0.1063
30869W        W46763  11.976   8.465   6.269 -0.3932 -0.0407 -0.0251
30870W        W46764  14.123   2.565  12.342  0.0719  0.0993  0.1202
30871W        W46765  10.015   1.938   2.457  0.1900  0.1979 -0.2522
30872W        W46766   7.419  14.549   0.689 -0.0177  0.1821 -0.4898
30873W        W46767  12.004  16.237  16.364  0.1953  0.0179  0.0553
30874W        W46768  15.339  16.816   1.479  0.1903 -0.1038  0.1700
30875W        W46769  15.576   6.052   4.020  0.2049 -0.2430  0.1737
30876W        W46770  12.821  17.127  13.433 -0.0003 -0.0240  0.0441
30877W        W46771   9.022   1.324  16.437 -0.0182 -0.0352  0.2090
30878W        W46772   1.366   7.040   3.686 -0.1307  0.0220 -0.1397
30879W        W46773  14.203  11.106   1.226  0.1297  0.2617 -0.0052
30880W        W46774   1.748   5.371  14.330  0.2641  0.0846  0.1260
30881W        W46775   9.955   6.985  13.716 -0.1908  0.2597  0.1971
30882W        W46776   6.901   7.101   2.977  0.2869  0.0430  0.0086
30883W        W46777  14.577  11.866   4.011 -0.3877  0.0954 -0.0552
30884W        W46778   6.880   6.337  15.133  0.0164 -0.0012  0.0758
30885W        W46779   7.241   7.816   4.751  0.2253  0.2568  0.2193
30886W        W46780   2.993   0.240  15.609 -0.0274  0.2816  0.2141
30887W        W46781   2.954   3.450  16.360 -0.4567  0.1969  0.2978
30888W        W46782   9.980   9.737   3.042  0.1674  0.1153  0.1585
30889W        W46783  17.086   3.934  14.613  0.1546 -0.0111 -0.1426
30890W        W46784   4.679  15.879  16.350  0.1316  0.0910  0.0284
30891W        W46785  15.456   9.919   0.929  0.0322 -0.1347 -0.1496
30892W        W46786   2.848   9.278   6.344  0.2774  0.3015  0.3627
30893W        W46787   1.736  16.976   3.618  0.3253 -0.2378 -0.0252
30894W        W46788  10.699   4.607   2.717  0.0497  0.0564  0.0872
30895W        W46789   8.860  10.276   2.280 -0.1342  0.1263  0.0864
30896W        W46790   9.163  13.740   2.931 -0.3177 -0.2745  0.1631
30897W        W46791  15.584  15.398  16.270  0.2545 -0.1768 -0.0451
30898W        W46792  12.317   0.094   4.371 -0.2435 -0.0277 -0.2261
30899W        W46793   2.290   1.559   3.762  0.1321  0.0437  0.1456
30900W        W46794   7.061  13.757   6.295  0.1665  0.0207  0.0529
30901W        W46795   3.895  15.439   0.114  0.0783  0.2159 -0.2383
30902W        W46796  17.244   6.218   2.503  0.2134 -0.1433 -0.3629
30903W        W46797   2.008  13.630  17.019  0.0668 -0.2095  0.0919
30904W        W46798   1.615   4.007  16.446  0.1382 -0.3426 -0.0566
30905W        W46799   8.109  16.144  12.552 -0.1648 -0.1731 -0.2924
30906W        W46800  14.125  14.993   1.116 -0.1147  0.1364  0.1423
30907W        W46801  14.593  13.739  13.083  0.0518  0.0583 -0.1037
30908W        W46802   9.925  11.915  16.488 -0.2616  0.3333  0.0751
30909W        W46803  13.553  13.303   2.577 -0.2091  0.1223  0.1436
30910W        W46804   4.934   9.637  16.213 -0.2296 -0.1504  0.2030
30911W        W46805   7.493   1.020   2.231  0.1916  0.1149  0.2294
30912W        W46806  12.773  13.863  17.265  0.0297  0.1400 -0.0967
30913W        W46807   8.295  14.042   2.813  0.2817 -0.3896 -0.2475
30914W        W46808  13.487  14.164  15.345 -0.2160 -0.0868  0.0010
30915W        W46809   8.437  13.947   4.662 -0.1723  0.0145  0.2586
30916W        W46810  14.925   4.680  14.563 -0.1247 -0.3445 -0.2084
30917W        W46811   7.202   7.981   2.255  0.0121  0.1333 -0.4095
30918W        W46812  10.760  16.037   4.433  0.0127 -0.2033  0.1712
30919W        W46813   9.195   5.332   1.690  0.0243 -0.0207  0.2165
30920W        W46814   6.745  14.596   3.368  0.1099  0.2049 -0.3100
30921W        W46815   4.851  11.294   3.216 -0.3635 -0.2498 -0.0476
30922W        W46816   1.804  12.220  15.408  0.0052  0.1730  0.0852
30923W        W46817   0.386   9.413   1.163 -0.2910  0.0241  0.0646
30924W        W46818   0.006   4.279   4.221  0.4480  0.5200 -0.0722
30925W        W46819  16.143  14.720   5.247  0.0638  0.0566 -0.1723
30926W        W46820   5.245   8.237  14.724 -0.1787  0.1330 -0.4293
30927W        W46821  15.561   3.688  14.351  0.3064 -0.0215  0.1630
30928W        W46822   8.965   8.166   3.340  0.2321  0.0406 -0.2038
30929W        W46823   4.368   4.384  16.801 -0.0521 -0.0991 -0.4034
30930W        W46824   6.048  16.218  12.421 -0.2788  0.0223  0.1558
30931W        W46825  11.305   3.770   6.310 -0.1330 -0.0643  0.1189
30932W        W46826   1.392  17.478  13.543  0.2773  0.2154  0.1401
30933W        W46827   3.412   8.462  13.006  0.3144  0.2346  0.2392
30934W        W46828   9.706   7.228   0.878 -0.0108  0.1029  0.1331
30935W        W46829   5.535   2.761   1.930  0.1050 -0.1144  0.2269
30936W        W46830   9.980  15.048  15.953 -0.3863  0.3496 -0.1355
30937W        W46831  14.902  13.056  11.570  0.0098  0.1227 -0.0755
30938W        W46832  13.937   5.748  17.201  0.0674  0.0121  0.0251
30939W        W46833  15.882  12.288  12.799 -0.2291 -0.1169 -0.1597
30940W        W46834  13.372   7.977   4.560 -0.2186 -0.1435 -0.0602
30941W        W46835  11.236  10.019   5.354  0.0403  0.1408  0.0632
30942W        W46836  14.695   2.081  15.387 -0.1311  0.1578 -0.0387
30943W        W46837  12.239   2.137  15.641  0.0676 -0.0891  0.3841
30944W        W46838   9.107  12.554  13.850  0.2732  0.4001 -0.1634
30945W        W46839   2.901   5.251   5.033 -0.1916  0.1476  0.2215
30946W        W46840   8.390   9.321  15.937 -0.2301 -0.1256  0.1000
30947W        W46841   3.195  10.851  15.674  0.2278  0.0522  0.1571
30948W        W46842  16.879  11.878  13.269  0.2579  0.2314 -0.2741
30949W        W46843  12.963  17.614  15.622 -0.1536  0.3046 -0.1046
30950W        W46844   2.924   9.301  17.033 -0.2070 -0.1400  0.1438
30951W        W46845   5.960   8.402  15.174  0.1456 -0.2235  0.0656
30952W        W46846  10.931   2.754   2.570  0.0029 -0.0849  0.0431
30953W        W46847   9.407  17.187   2.516  0.1350 -0.2277 -0.0590
30954W        W46848   0.430   1.649   2.620 -0.2595 -0.0221  0.2543
30955W        W46849  12.123   5.419   4.178  0.4824  0.0954  0.0440
30956W        W46850   2.574   0.741   1.344  0.1048  0.2825 -0.0501
30957W        W46851   1.984  12.623   3.743  0.0099  0.1714  0.2504
30958W        W46852  11.038   8.011   1.803 -0.0564  0.0867  0.0381
30959W        W46853   5.885  16.910  14.022 -0.2090  0.0598  0.2543
30960W        W46854  15.569   5.352   5.558 -0.2367  0.0047  0.1044
30961W        W46855   5.335   3.793   2.023  0.1087  0.1423 -0.1525
30962W        W46856   0.816  12.686  16.107 -0.1433  0.1653  0.1062
30963W        W46857   3.786   6.417  16.747  0.0053 -0.1848  0.3178
30964W        W46858   6.997   3.432   4.114  0.0312  0.1337 -0.1333
30965W        W46859   7.059  15.408   3.357 -0.0664  0.0432 -0.2061
30966W        W46860   1.526  14.483  16.965 -0.1667 -0.2679  0.1874
30967W        W46861   5.642   6.071  16.206  0.3062 -0.1398 -0.0694
30968W        W46862   9.474   1.298   2.894 -0.0423  0.0114  0.1796
30969W        W46863  15.781   4.385  14.665  0.2382 -0.0158  0.1344
30970W        W46864   2.598  14.405  12.050  0.0980  0.2735 -0.1491
30971W        W46865   4.108   3.572   2.529  0.1863  0.0849  0.0118
30972W        W46866  12.270   3.028   4.308 -0.1612  0.0498 -0.0200
30973W        W46867   9.036   4.867   5.139 -0.2203 -0.0211 -0.1203
30974W        W46868   7.730  16.529  13.899 -0.5117 -0.2370 -0.2190
30975W        W46869  11.740   3.608  12.146 -0.0970 -0.2872  0.1824
30976W        W46870  10.887  16.554   4.607 -0.0609 -0.0108 -0.0755
30977W        W46871   2.379   6.642   2.015  0.1953 -0.3198 -0.2328
30978W        W46872   2.380   0.597  17.239  0.0718  0.1857  0.0347
30979W        W46873  15.911  14.195   5.154  0.1441  0.1287 -0.2572
30980W        W46874   4.850   7.934   6.438 -0.0565 -0.2228  0.2544
30981W        W46875   1.256   7.697   4.640 -0.3109 -0.1311  0.0474
30982W        W46876  15.711  15.869   4.111 -0.0033  0.0044 -0.0048
30983W        W46877   9.044   4.501   1.923 -0.1535  0.2480 -0.1217
30984W        W46878  11.730   8.229   2.618  0.0178 -0.0537 -0.0617
30985W        W46879  17.578  12.617  12.720  0.1303 -0.0298  0.1511
30986W        W46880  17.195  10.695   0.324  0.0035  0.0867  0.2358
30987W        W46881   7.624   1.364   1.231  0.1350  0.2135  0.1546
30988W        W46882   4.965  10.058  15.940  0.1023  0.1789 -0.0343
30989W        W46883  12.621  15.554   2.258  0.1165 -0.0899 -0.0157
30990W        W46884   7.447  16.095  11.777 -0.1466 -0.3390 -0.0387
30991W        W46885   2.534   2.835   2.414 -0.0161 -0.0655 -0.0246
30992W        W46886  13.068   4.521  15.146 -0.0273 -0.0489  0.0121
30993W        W46887  17.376   6.053   4.937  0.1727 -0.2012  0.0886
30994W        W46888  14.135   7.697   2.697  0.0401  0.0009 -0.2186
30995W        W46889   7.190   3.132   0.455 -0.1015  0.0029 -0.2637
30996W        W46890  14.940   9.539  15.655 -0.3532  0.1043  0.0622
30997W        W46891   3.434   4.099   5.594  0.1651 -0.3243  0.1179
30998W        W46892  17.016   7.002  11.325 -0.0342 -0.0204  0.4797
30999W        W46893   1.657   3.109  14.426 -0.2411  0.0612  0.0660
31000W        W46894  13.315  14.640   3.435 -0.1441 -0.3606 -0.0169
31001W        W46895   5.032  16.237   5.851 -0.1727  0.2416 -0.3124
31002W        W46896   4.932   8.990   0.756 -0.1798  0.0852  0.1104
31003W        W46897   7.412  16.886  12.776 -0.0300 -0.1610  0.1106
31004W        W46898  12.357   2.427  13.260 -0.2973  0.2609  0.0022
31005W        W46899   0.124  14.951   6.018 -0.0310  0.1716 -0.3472
31006W        W46900  12.430  12.762  12.015 -0.2482 -0.1147  0.0960
31007W        W46901  12.696  10.608   4.654  0.2620 -0.0072 -0.0830
31008W        W46902  16.318   2.554  13.341  0.0520 -0.2500  0.0880
31009W        W46903   7.173   3.197   1.834 -0.0125 -0.0161 -0.1035
31010W        W46904  10.297   3.165  10.836 -0.0514  0.1449 -0.1232
31011W        W46905  15.053  13.769   5.197  0.3334 -0.2196  0.1967
31012W        W46906   1.980   6.099   0.536  0.0103 -0.0832  0.0807
31013W        W46907  13.785  15.639   6.064 -0.1539 -0.1845  0.0284
31014W        W46908  13.674  14.965  16.832 -0.0318  0.1833 -0.1600
31015W        W46909   4.280   8.782   5.244 -0.2264  0.3095  0.3164
31016W        W46910   8.107  13.523   0.225  0.2402  0.0219 -0.2442
31017W        W46911  12.260   8.231  13.041 -0.3443 -0.0342  0.0387
31018W        W46912  16.661   9.480  12.009  0.1978  0.2472 -0.0147
31019W        W46913   0.270   1.158   3.128 -0.2121 -0.0691  0.0401
31020W        W46914   0.070  15.893   0.679  0.1779 -0.0797  0.1235
31021W        W46915   0.008  11.327   4.125  0.0530 -0.0073 -0.2855
31022W        W46916   0.830  10.329   6.024 -0.0551 -0.0569  0.0895
31023W        W46917  15.648  13.348  14.913  0.0300 -0.2640 -0.3052
31024W        W46918  14.974  17.480  13.320 -0.0251 -0.2298 -0.1801
31025W        W46919   7.955   8.950   2.116  0.0934 -0.3613  0.1720
31026W        W46920   5.686  13.295  15.077 -0.2038  0.0921 -0.2111
31027W        W46921  16.652   7.529   4.586  0.2183  0.1849 -0.1799
31028W        W46922  14.790   7.616   1.940  0.1992 -0.3597  0.0448
31029W        W46923   0.768   4.727   5.436  0.0568 -0.0287  0.1642
31030W        W46924   1.400   1.316   3.990  0.3171  0.1848  0.0860
31031W        W46925   4.783   9.615   4.270 -0.1149 -0.1913  0.1061
31032W        W46926   0.936  17.350   0.910  0.2084 -0.0802 -0.0515
31033W        W46927  12.146  12.808  14.811 -0.0041  0.1768  0.1261
31034W        W46928  10.440   8.859   2.975  0.0471  0.2060  0.2069
31035W        W46929  13.652  13.484  12.291 -0.0159 -0.1084 -0.1386
31036W        W46930   3.206   9.693   2.998 -0.0558  0.1467  0.2268
31037W        W46931   0.541   4.489  13.001 -0.0719 -0.4651  0.1641
31038W        W46932  12.793   7.944   1.803 -0.0725 -0.0242  0.0266
31039W        W46933   0.866  13.101   0.306 -0.0827 -0.1343 -0.0867
31040W        W46934   8.340  15.719   4.019 -0.3109 -0.1076 -0.1956
31041W        W46935  13.890   1.269  12.064 -0.3428  0.0952  0.1295
31042W        W46936  13.385  14.467  12.464  0.3030 -0.1231 -0.1173
31043W        W46937   6.639  14.151   3.081  0.1415 -0.1373 -0.2215
31044W        W46938   8.741   3.439  15.139 -0.0434  0.0341  0.0909
31045W        W46939   7.767   3.573  12.244 -0.1367  0.1644  0.0161
31046W        W46940   7.492  16.815  17.154  0.1416  0.0055  0.1334
31047W        W46941   3.481   8.037  14.211 -0.2751 -0.1448 -0.0055
31048W        W46942  15.401   0.506  15.017  0.0752 -0.0085 -0.1466
31049W        W46943  12.563  15.013  15.889  0.1517  0.0207 -0.1516
31050W        W46944   8.366   5.192  17.157 -0.1223  0.1823  0.1267
31051W        W46945  17.221   4.463   0.457  0.0971  0.2056 -0.0820
31052W        W46946  17.439   9.703   2.636 -0.2079 -0.1538  0.3333
31053W        W46947  17.117  15.937   4.360 -0.1191 -0.1840  0.0749
31054W        W46948  16.816  17.424  13.260  0.2726  0.3341  0.3810
31055W        W46949  11.185  12.045  13.626  0.1281 -0.3275  0.2807
31056W        W46950   4.115   4.639  13.599  0.1490  0.1104 -0.2434
31057W        W46951  17.536   2.362   5.617  0.2113  0.0910 -0.0275
31058W        W46952  13.932   7.963  11.546 -0.0779 -0.0441  0.3927
31059W        W46953   5.712   0.149  13.727  0.1463  0.1317 -0.2442
31060W        W46954  14.007  11.958   4.153  0.0531 -0.0065 -0.0391
31061W        W46955   4.751   5.553  13.521  0.0544 -0.0817  0.0339
31062W        W46956   2.512   9.343  14.355 -0.1162  0.0146 -0.0693
31063W        W46957   1.405  11.762   5.687  0.4151 -0.2269 -0.2292
31064W        W46958   9.979   0.406   2.548 -0.0385  0.1839  0.0503
31065W        W46959  14.836   7.221  15.854  0.1991 -0.0265 -0.0873
31066W        W46960  11.407   7.985   1.406 -0.0965  0.1587 -0.0446
31067W        W46961   7.177  14.662   2.099 -0.3235  0.6694 -0.0236
31068W        W46962   6.634  14.786  15.039  0.4140  0.2156  0.1741
31069W        W46963   2.857  10.192   3.181  0.3908 -0.0507  0.1572
31070W        W46964   6.330   2.559   3.503  0.0493 -0.1076 -0.2967
31071W        W46965  15.303   2.871  12.590  0.0544 -0.1702  0.0307
31072W        W46966   3.595  16.063  16.167  0.2258  0.0417 -0.0925
31073W        W46967   2.320  17.057  13.787  0.2609 -0.2663 -0.2190
31074W        W46968  16.834  13.164   5.768 -0.2091 -0.4959 -0.0722
31075W        W46969   7.573  11.524   4.962 -0.0626  0.0540 -0.1359
31076W        W46970  14.244   7.740  11.880 -0.1290 -0.0486  0.1143
31077W        W46971   5.174  12.085  16.855  0.2027 -0.0501  0.0009
31078W        W46972  12.171   1.171   0.276 -0.2185  0.2427 -0.1691
31079W        W46973   2.202   3.201  14.288 -0.1954  0.0129 -0.3300
31080W        W46974   2.687  10.217  13.894  0.4376  0.1917  0.0231
31081W        W46975  15.070  14.212  13.611  0.1066 -0.1652  0.1334
31082W        W46976   4.104  14.352  12.480 -0.0718 -0.2263  0.0229
31083W        W46977  11.662  15.271   5.979 -0.2715  0.1866 -0.0729
31084W        W46978   6.503   7.461  15.934 -0.1025 -0.0811 -0.1272
31085W        W46979  14.618   5.847   6.529  0.1411 -0.3277  0.4327
31086W        W46980   1.432   3.635  16.829  0.3458  0.3054  0.0666
31087W        W46981  15.605   9.388   4.797  0.0500  0.0260  0.0131
31088W        W46982  10.783   9.855   5.538 -0.1289 -0.0137  0.3770
31089W        W46983  11.846  14.929  16.304  0.0210 -0.1586 -0.0933
31090W        W46984   4.620   8.658   1.731  0.0241  0.1364  0.0455
31091W        W46985   5.708  15.937  13.682 -0.1658 -0.2799 -0.0564
31092W        W46986   6.682  13.546  15.290  0.2787  0.1818 -0.0712
31093W        W46987   9.714   6.768   3.725  0.1823  0.1162 -0.2133
31094W        W46988   2.932  15.546  12.316  0.1052  0.1287  0.0071
31095W        W46989  15.673   8.970  15.908  0.0120 -0.0846  0.0453
31096W        W46990  15.289   4.392  14.387  0.1632  0.1388 -0.0191
31097W        W46991   0.163  10.431   4.671  0.1038  0.0806  0.0782
31098W        W46992   2.353  13.199   5.820 -0.1485 -0.1282  0.0182
31099W        W46993  10.185  10.067   2.047 -0.2545  0.1053 -0.1084
31100W        W46994   9.843  14.161  12.138  0.1472 -0.2512  0.2194
31101W        W46995  15.408  16.704   6.090  0.1732  0.1628  0.0145
31102W        W46996  12.704   2.695   4.289  0.2730 -0.0854 -0.2003
31103W        W46997  15.928   2.050   1.278 -0.0801 -0.2721  0.1264
31104W        W46998   5.704  14.927  14.923 -0.2264 -0.3549 -0.1704
31105W        W46999   3.803  17.609  15.144  0.1405 -0.3619 -0.0330
31106W        W47000  13.932  13.971   3.781 -0.0139 -0.3701 -0.1766
31107W        W47001   7.689  16.728  13.272 -0.2242 -0.0595  0.0448
31108W        W47002   0.637   7.121  15.317 -0.3455  0.0415 -0.1665
31109W        W47003   3.422  16.410   4.211  0.0194  0.2122 -0.1264
31110W        W47004   0.228  15.372  15.815 -0.0132 -0.1119 -0.3956
31111W        W47005   0.202  11.118   5.689 -0.1142  0.2544 -0.1506
31112W        W47006  16.795   9.893   1.396  0.0603  0.1061 -0.0421
31113W        W47007   0.113   2.794   5.539 -0.1612  0.0831 -0.0537
31114W        W47008   7.276  14.260  15.535 -0.2448 -0.2116 -0.0979
31115W        W47009   2.311   1.428  12.260 -0.0347 -0.1887 -0.0272
31116W        W47010  12.435  11.602   3.275  0.1522  0.0781  0.0484
31117W        W47011   2.192   7.257  12.508  0.0018 -0.1326  0.2813
31118W        W47012  16.612  11.837  14.692 -0.1090  0.0074  0.0148
31119W        W47013   9.110  10.558  12.137  0.2821  0.1101 -0.2485
31120W        W47014   5.360  12.814   0.103  0.2598 -0.0439  0.0598
31121W        W47015   4.571   3.673   6.279  0.0711 -0.1076  0.0074
31122W        W47016  14.192   3.329  11.806 -0.0036  0.4339 -0.0092
31123W        W47017  17.258   2.361  12.259  0.1530  0.0742  0.0457
31124W        W47018   1.795   2.299  16.855  0.0201 -0.0553  0.0238
31125W        W47019  11.871   9.374  13.599  0.2368 -0.1939  0.0705
31126W        W47020   2.385  13.752  13.341 -0.2367  0.0344 -0.1521
31127W        W47021  15.407   5.375  16.464 -0.1236 -0.1741  0.0580
31128W        W47022   3.209  16.067  14.011  0.0838 -0.2126 -0.1001
31129W        W47023  13.616   7.882   5.011  0.0088  0.2455  0.2651
31130W        W47024   9.470  16.081  13.947  0.0613  0.2118  0.1261
31131W        W47025  10.738   3.715   4.929 -0.0531  0.3723  0.2870
31132W        W47026   9.155  11.680   0.116 -0.2151  0.1823 -0.0793
31133W        W47027  15.189  15.685   6.103 -0.0777 -0.1148  0.3986
31134W        W47028  17.044   0.224  16.832 -0.0757  0.0614 -0.2380
31135W        W47029  10.383   0.553   5.006  0.1333  0.2667  0.1234
31136W        W47030  12.443  12.692  15.192 -0.0223  0.0252 -0.1006
31137W        W47031   5.775  14.665   4.385 -0.1284  0.1221 -0.1193
31138W        W47032  10.409  13.728  13.676 -0.1750 -0.1594  0.0256
31139W        W47033  12.502   2.884  16.022  0.1034  0.1105  0.0072
31140W        W47034  16.328  15.593   5.393 -0.2039  0.2394  0.1726
31141W        W47035   9.187  11.226  13.129 -0.2629 -0.1841  0.1553
31142W        W47036   8.363  11.248   5.845  0.0959 -0.1431 -0.0146
31143W        W47037   4.588  16.119  14.816  0.1170 -0.0580 -0.0923
31144W        W47038  12.132  13.028   2.622 -0.0414  0.1680  0.1840
31145W        W47039  13.242  15.105  14.158 -0.0421 -0.0165 -0.0681
31146W        W47040   1.691   2.941   1.731 -0.1907 -0.0462  0.2331
31147W        W47041  16.135  13.998  15.004 -0.0514  0.1322  0.3192
31148W        W47042   2.057  17.305  16.522  0.3439  0.0445 -0.2488
31149W        W47043   1.542  11.081  11.952  0.0961  0.0263 -0.0787
31150W        W47044   0.309  16.203   1.186 -0.1134 -0.3049 -0.1201
31151W        W47045   5.137   9.175  17.250 -0.0386  0.2863 -0.0748
31152W        W47046  10.239   4.033  12.907  0.2091  0.0117 -0.1492
31153W        W47047   4.493   4.655   5.752 -0.1731 -0.0318  0.6444
31154W        W47048  14.510   3.346   0.905 -0.3026 -0.1599  0.2481
31155W        W47049  16.822   7.371  16.373 -0.0854 -0.2860 -0.0056
31156W        W47050  15.459   3.079   3.180  0.1668 -0.0894 -0.3243
31157W        W47051   2.259   5.627   4.749 -0.4304 -0.0319 -0.1160
31158W        W47052   0.131  13.348  15.371  0.0052 -0.0933  0.1398
31159W        W47053   8.671  13.217   2.411 -0.1349 -0.1365 -0.1774
31160W        W47054  10.064   5.225   2.656  0.1696  0.1195 -0.0056
31161W        W47055  13.820  15.150   4.417 -0.2524 -0.1740 -0.1106
31162W        W47056   1.557   9.557  14.352  0.0883 -0.1425 -0.0057
31163W        W47057   8.158   6.652  10.707  0.1908  0.0028  0.1100
31164W        W47058   1.990  13.273  14.127  0.1224 -0.0442 -0.0478
31165W        W47059  11.850   7.357  13.471  0.0189 -0.1343  0.0148
31166W        W47060  13.186  17.564  12.880 -0.2722  0.1696  0.0005
31167W        W47061   9.060  14.828  16.772  0.2264 -0.1811  0.1362
31168W        W47062  10.555  17.120  11.632  0.0783 -0.0507  0.0933
31169W        W47063   5.213   7.509  16.494 -0.0835 -0.1385  0.0577
31170W        W47064  11.734  12.487  14.877 -0.1900 -0.1210 -0.0243
31171W        W47065   9.837  13.227  16.727 -0.0487  0.0637  0.0429
31172W        W47066  15.580   5.399   3.309  0.1889 -0.2400  0.1901
31173W        W47067  15.283  14.512  15.702  0.0521 -0.1768 -0.3030
31174W        W47068   2.772  11.053   1.314  0.1847 -0.1559 -0.0760
31175W        W47069   0.833   4.299  17.230  0.3061  0.1565  0.1673
31176W        W47070   0.224   9.776  15.908  0.1647 -0.0196 -0.0273
31177W        W47071   5.461  14.458   1.085  0.1293  0.2426  0.2544
31178W        W47072   6.268  15.907  17.001 -0.0852  0.1457 -0.2558
31179W        W47073  16.398  16.646   3.915 -0.0477 -0.3601 -0.1236
31180W        W47074   3.752   1.108  17.265  0.0990 -0.0076 -0.3203
31181W        W47075   8.263  13.403   5.465  0.0083 -0.1884  0.0054
31182W        W47076   9.223   1.848  15.698  0.0273  0.1208  0.1402
31183W        W47077   1.797  12.874  15.960  0.1734  0.2354  0.3626
31184W        W47078   5.211   5.323   1.953 -0.1276  0.1446  0.1880
31185W        W47079   8.167  10.918   4.975 -0.0198 -0.1005 -0.1124
31186W        W47080  15.580  14.605  16.626 -0.2903  0.0408  0.2993
31187W        W47081  12.174  17.040   3.178 -0.0616  0.0118  0.1800
31188W        W47082   0.048   1.224   4.755 -0.2148 -0.2065  0.0929
31189W        W47083   2.131   7.700  15.492  0.3715  0.0759 -0.0389
31190W        W47084  14.203   6.695   2.925 -0.2507  0.3121  0.1759
31191W        W47085   6.657  13.834  13.454  0.2268 -0.1705  0.4225
31192W        W47086   5.584  10.717  12.749  0.1235  0.0285  0.0408
31193W        W47087   9.825  16.516   1.941 -0.1579  0.2458 -0.2588
31194W        W47088  17.353  16.942  13.069  0.0210 -0.1659  0.1181
31195W        W47089   1.276   1.309  15.956  0.1345  0.0145  0.0150
31196W        W47090  12.182   8.169   0.242 -0.3536  0.0254  0.1560
31197W        W47091  11.283   4.499  14.091  0.2586 -0.0285 -0.2286
31198W        W47092  15.355   8.538  13.703 -0.0600 -0.2575 -0.2608
31199W        W47093  17.192  13.382  16.366 -0.1221  0.1153 -0.2003
31200W        W47094  16.196   3.778   4.751  0.0055  0.1779 -0.2373
31201W        W47095   6.689   7.068  13.943 -0.0433  0.0864 -0.3105
31202W        W47096  11.977  11.401   3.507 -0.0228  0.1014 -0.0920
31203W        W47097  10.186   4.440  16.252  0.1987 -0.1118  0.0943
31204W        W47098   6.355   6.846   1.224 -0.2330 -0.1487 -0.0249
31205W        W47099   4.538  11.118  14.390  0.2364  0.0971  0.0671
31206W        W47100  10.149  17.415   4.650  0.2774 -0.0451 -0.1655
31207W        W47101  16.198  17.241   6.496  0.1549 -0.0318  0.3250
31208W        W47102  12.093   9.867  16.680 -0.0963  0.0385  0.3444
31209W        W47103   0.869  16.954  16.837  0.2031 -0.1731 -0.0848
31210W        W47104   1.401   7.052   5.020 -0.1095 -0.2872 -0.0258
31211W        W47105   8.450   4.335   3.456 -0.4059  0.1429  0.0729
31212W        W47106  14.727   2.562   2.681  0.2485 -0.2263 -0.0099
31213W        W47107  16.041  10.585   3.414  0.0085 -0.2048 -0.2619
31214W        W47108  15.011   4.245   3.959 -0.2689  0.0153  0.1353
31215W        W47109  14.262  16.372  16.476 -0.3232  0.1181  0.1080
31216W        W47110  10.466   5.060   1.997  0.1381  0.1328 -0.0793
31217W        W47111   7.844   6.888  12.399  0.3433 -0.0500  0.1688
31218W        W47112  15.435  12.025  14.877 -0.0284  0.1830 -0.1589
31219W        W47113   0.023   9.251  12.214 -0.0368  0.2366  0.0411
31220W        W47114   1.779  14.842  12.604 -0.0265  0.1421 -0.2264
31221W        W47115  16.554  12.027  17.093 -0.1818 -0.1157 -0.0673
31222W        W47116   2.257  15.409   5.499 -0.0102 -0.1495  0.1041
31223W        W47117   1.346  11.974   6.191  0.0862 -0.1934 -0.3693
31224W        W47118   5.462   4.929   1.301 -0.2183  0.0591  0.3079
31225W        W47119   7.029  12.608   1.499 -0.3183 -0.4391 -0.1817
31226W        W47120  13.162  12.078   2.198 -0.1236  0.0961  0.0028
31227W        W47121   8.328   7.628  13.550 -0.3544 -0.0361  0.2121
31228W        W47122   3.506  15.879   0.779 -0.3479 -0.0227 -0.3979
31229W        W47123  11.255   0.418   5.140 -0.1434  0.0396 -0.1804
31230W        W47124   2.613  14.841   4.947  0.1743  0.1286 -0.0435
31231W        W47125  10.656  11.203  15.550 -0.1713 -0.0465  0.2853
31232W        W47126   4.259   6.273  16.448  0.2110 -0.1495 -0.5359
31233W        W47127   2.940  16.632   4.145 -0.1216 -0.2789  0.1881
31234W        W47128  15.702  14.824   1.194  0.1311 -0.2954  0.0342
31235W        W47129   3.022   0.909  14.971  0.0246  0.0890  0.1095
31236W        W47130  14.921   1.347   1.988  0.1815  0.2107  0.1624
31237W        W47131   1.899  12.325  14.777 -0.4466  0.2211 -0.2030
31238W        W47132  13.949  17.199  11.939  0.0151  0.0714  0.0434
31239W        W47133   3.149  13.711   5.355 -0.0841 -0.0351 -0.1685
31240W        W47134  13.035   5.355   4.534  0.0787 -0.2428  0.2555
31241W        W47135  17.596  17.537   3.601 -0.0235  0.0537 -0.2030
31242W        W47136   1.552   9.456   1.580 -0.0158  0.2240  0.0752
31243W        W47137   0.928  15.463  15.161  0.1064  0.1732  0.3042
31244W        W47138  11.210   3.591  13.036  0.2929  0.1430 -0.1061
31245W        W47139  10.217  17.503   3.932  0.0344 -0.4030  0.0947
31246W        W47140   5.366   7.435  14.560  0.1027  0.0059  0.0275
31247W        W47141   8.913  10.076   3.876  0.0275  0.0176 -0.2699
31248W        W47142   1.092  16.055  12.205 -0.2342 -0.2013  0.1921
31249W        W47143   0.832   0.547  15.912  0.0875 -0.2850 -0.1739
31250W        W47144  14.415  17.136   0.564 -0.0603  0.1356 -0.1720
31251W        W47145   5.299   5.468  16.284  0.0820 -0.0726  0.0205
31252W        W47146  11.912  15.148   4.645 -0.3674 -0.1356 -0.1168
31253W        W47147  16.367   8.457  12.031 -0.2252 -0.0849  0.2127
31254W        W47148   2.114   6.512   4.942 -0.1498 -0.1613  0.0672
31255W        W47149   6.191  13.752   3.629 -0.1005 -0.2185  0.1448
31256W        W47150   4.352  15.562  17.198  0.0745  0.0498  0.0778
31257W        W47151  10.998  11.148  13.941 -0.0458 -0.0317  0.1851
31258W        W47152   5.432   8.724   5.402 -0.0797  0.0492 -0.1217
31259W        W47153  11.119  17.454   0.809  0.0916  0.0566 -0.1014
31260W        W47154   5.989   3.676  13.924  0.1884 -0.1345  0.1114
31261W        W47155   1.249  14.300   2.387  0.3678  0.0342 -0.1532
31262W        W47156  16.434   3.290  15.552  0.2238 -0.1210  0.0071
31263W        W47157   8.255  16.196   1.055 -0.0442  0.1182 -0.1366
31264W        W47158  15.878  15.820  16.325  0.3817 -0.0167 -0.0094
31265W        W47159   1.576  17.151   5.131 -0.0367  0.1303  0.0544
31266W        W47160   4.393  12.791  15.964  0.1309  0.1857 -0.0516
31267W        W47161   3.794   6.623  14.025  0.3607 -0.0695  0.0792
31268W        W47162  16.018  11.530  12.261  0.3687 -0.2096 -0.0259
31269W        W47163  10.034  17.174   0.351  0.0760  0.0199 -0.1880
31270W        W47164   4.983   8.400  14.323  0.3683 -0.1916  0.0797
31271W        W47165   2.023   8.176  15.604 -0.2098 -0.1942 -0.2138
31272W        W47166   4.070   2.276   1.267 -0.1786  0.0836  0.1425
31273W        W47167  15.406   4.107  12.992  0.1528  0.0408 -0.0186
31274W        W47168  12.292  14.051  12.203  0.0704  0.1207  0.3300
31275W        W47169  12.305  11.285  16.099 -0.1231 -0.1376 -0.0190
31276W        W47170   0.047   8.732   1.789 -0.2441  0.0857 -0.1569
31277W        W47171   7.769  17.122   2.828  0.0616  0.4055  0.0068
31278W        W47172   2.430   6.089   4.694 -0.1186 -0.1653 -0.1220
31279W        W47173  10.764   3.833   1.163 -0.0814  0.1673  0.0167
31280W        W47174  16.347  10.241  13.234  0.4404 -0.0909 -0.0247
31281W        W47175   5.812  14.323  13.415  0.1007  0.2190  0.1388
31282W        W47176  13.816   1.922   4.473 -0.3212 -0.3360  0.0361
31283W        W47177  10.311  15.374   0.749 -0.0661 -0.1779 -0.0272
31284W        W47178  13.745   4.116  12.118 -0.0396 -0.1805 -0.0227
31285W        W47179  17.014   8.330   4.463  0.2440 -0.3250  0.0463
31286W        W47180   5.551   2.663   6.014  0.0856  0.1577 -0.1568
31287W        W47181   6.101   9.843   4.138  0.3586 -0.1516 -0.0054
31288W        W47182   2.613  16.434   3.719  0.4799  0.6706 -0.0191
31289W        W47183  10.924   6.919  12.149  0.0152 -0.1323  0.1552
31290W        W47184   1.482   7.752   2.815  0.4984  0.0469 -0.1911
31291W        W47185   4.237   8.288   0.405 -0.2953  0.1457 -0.0767
31292W        W47186   3.835   2.284   3.390  0.0749  0.0865 -0.0905
31293W        W47187   4.630   7.123   2.742 -0.0060 -0.0976  0.0389
31294W        W47188  15.292  13.048   3.992  0.3008 -0.0809  0.2900
31295W        W47189  11.883   5.116  14.083  0.2467  0.3273 -0.2476
31296W        W47190   1.553  12.168  16.462  0.1491 -0.3689 -0.0647
31297W        W47191   1.373   0.739  12.803 -0.3245 -0.2851  0.1742
31298W        W47192   3.060   4.047  13.396  0.1141 -0.2041 -0.0912
31299W        W47193  16.498   7.947   1.499 -0.0464  0.2436 -0.2258
31300W        W47194   4.150   2.128   0.140  0.0687  0.0349 -0.3817
31301W        W47195   3.946  15.422   3.527  0.2266  0.0941  0.0419
31302W        W47196  14.687   8.054  16.137 -0.0228 -0.2613 -0.1109
31303W        W47197   2.618   1.792   5.211  0.1139  0.2659 -0.2202
31304W        W47198   3.761   8.335   4.727 -0.2321 -0.0290 -0.0916
31305W        W47199   7.259   1.313   4.899  0.1827 -0.4218  0.2477
31306W        W47200   8.821  14.955  16.144 -0.0746 -0.1524  0.1804
31307W        W47201   4.483  12.760  16.459  0.2586 -0.3174 -0.1607
31308W        W47202  14.285   7.200   2.980 -0.0904 -0.2780 -0.2261
31309W        W47203   1.522  14.301   3.391 -0.2842 -0.0707  0.2265
31310W        W47204   7.843  16.071   2.935 -0.2089 -0.0233 -0.0565
31311W        W47205   8.572   1.740  17.132  0.3100  0.4163 -0.2487
31312W        W47206  15.269  16.528   5.634  0.1608 -0.0975 -0.0608
31313W        W47207  15.994   6.740   5.054 -0.1514 -0.1506 -0.1100
31314W        W47208   2.963   2.949  12.409  0.1486  0.1618  0.0030
31315W        W47209   5.115   4.726   4.801  0.2538 -0.1103 -0.0707
31316W        W47210  17.006   3.716  16.574 -0.0167  0.3421  0.1762
31317W        W47211   1.363  15.315   3.065  0.2726  0.1783 -0.1142
31318W        W47212   5.389  16.325  16.803  0.0156  0.2386  0.0670
31319W        W47213   0.609   8.770  11.297 -0.1031  0.0591  0.1690
31320W        W47214  15.012   3.227   5.425 -0.2617  0.4392 -0.1015
31321W        W47215   8.560   1.197   0.048 -0.0954 -0.0846  0.2548
31322W        W47216  15.662   5.904   3.510  0.2801 -0.1854 -0.0334
31323W        W47217  16.772   0.364   5.096  0.0901  0.4020  0.0025
31324W        W47218   0.674   3.781   4.651 -0.3936  0.2242 -0.3660
31325W        W47219   6.177   6.430  12.577  0.3222  0.1175 -0.2210
31326W        W47220   7.840  10.623  16.250  0.1311 -0.1785 -0.2347
31327W        W47221   4.365   8.650   5.711 -0.0389  0.0101  0.1576
31328W        W47222  10.627  10.195   3.593 -0.0957 -0.0475 -0.0953
31329W        W47223  17.139   8.089   1.723  0.0148 -0.0292  0.1748
31330W        W47224   5.550   3.948   0.607  0.0441 -0.1201  0.4449
31331W        W47225  10.527   7.522   0.663 -0.1138 -0.0767  0.1167
31332W        W47226   7.829   7.697   0.392 -0.3420 -0.2073  0.2100
31333W        W47227  15.744   3.007   2.315 -0.0479 -0.1784  0.0058
31334W        W47228  14.367  15.773  15.697  0.2775  0.0160  0.2225
31335W        W47229  12.076   1.889  13.986 -0.0215 -0.1420  0.1348
31336W        W47230   7.862   5.234  14.415 -0.0739 -0.2416 -0.3740
31337W        W47231   9.874   2.283   4.850 -0.1673  0.0141  0.1551
31338W        W47232  11.132  16.562  11.899  0.0853  0.1400  0.2223
31339W        W47233  11.401   4.438   0.446  0.0205 -0.3925  0.1441
31340W        W47234  12.726  10.169  15.756 -0.0793 -0.0505  0.2862
31341W        W47235  10.795   6.371   1.160  0.5388  0.1044 -0.1442
31342W        W47236  12.896  16.510   3.014  0.1913 -0.0501  0.1973
31343W        W47237  12.999   7.397  11.363 -0.3153 -0.1541 -0.1078
31344W        W47238   5.855  15.117  15.379 -0.1412 -0.0192 -0.2829
31345W        W47239  13.406   1.531  13.744  0.1306 -0.0452 -0.2165
31346W        W47240  13.875   3.727   4.342  0.2117 -0.0467 -0.4185
31347W        W47241   5.854   4.388   0.502  0.0083  0.0807  0.2448
31348W        W47242  12.839   0.715   4.257  0.0351  0.1718  0.0447
31349W        W47243  16.390  11.119   0.848  0.2610  0.0707 -0.3851
31350W        W47244   5.585  16.254   4.702 -0.1594 -0.1138 -0.0056
31351W        W47245   4.682   4.280   5.462  0.1382  0.2286  0.2387
31352W        W47246  10.213   9.248   0.940  0.3161 -0.2950 -0.2417
31353W        W47247  15.587  11.841   5.908 -0.2527  0.4863 -0.0206
31354W        W47248   7.514   3.542   4.187 -0.0354  0.0861 -0.0991
31355W        W47249   8.055  14.567   6.077 -0.0293  0.1634 -0.1992
31356W        W47250   5.182  11.728   4.529 -0.0458  0.0430 -0.1670
31357W        W47251   3.022  12.109  14.787  0.0738 -0.0037  0.2259
31358W        W47252   9.736  13.971  13.619 -0.0867  0.0665  0.0498
31359W        W47253   4.481  11.992   1.471 -0.1281  0.4403 -0.1053
31360W        W47254  11.529   8.476  11.444  0.1325 -0.3261  0.1147
31361W        W47255  11.411  16.405   2.771  0.1321 -0.0570  0.0734
31362W        W47256   6.625   0.613  17.198 -0.0365  0.1475 -0.1010
31363W        W47257   3.106   1.454   2.729  0.1276  0.0319 -0.1281
31364W        W47258   9.299  16.396   0.907  0.1319  0.1192 -0.0399
31365W        W47259  13.851  12.108  15.597  0.1080  0.2830 -0.0229
31366W        W47260   0.520  17.050   0.911 -0.2773 -0.0178  0.2709
31367W        W47261  11.067   7.956  10.902 -0.1381  0.0596  0.1198
31368W        W47262  12.356  13.662  11.912  0.2284 -0.1599 -0.1086
31369W        W47263  12.984   2.749  14.175 -0.0825 -0.0467 -0.1893
31370W        W47264  14.962  15.001   0.609  0.1356 -0.0636  0.0422
31371W        W47265  11.291  15.687   1.311  0.1282 -0.3530  0.2837
31372W        W47266   8.473  14.159   3.796 -0.2255 -0.2564 -0.1380
31373W        W47267   9.104   9.503  16.927  0.2302 -0.2040  0.1399
31374W        W47268  14.446   9.372  15.527 -0.2330 -0.2017 -0.1114
31375W        W47269   2.014  12.279  12.434  0.0323 -0.0013 -0.1171
31376W        W47270   6.650   3.142   0.220 -0.1030 -0.0004  0.0366
31377W        W47271   3.981  11.390   5.524 -0.1085 -0.1262 -0.0251
31378W        W47272   1.658   2.693   0.439 -0.0341 -0.0556 -0.0083
31379W        W47273  16.956   2.143  11.900 -0.2319  0.0514 -0.2141
31380W        W47274  11.715   8.184  16.087 -0.1696 -0.4349 -0.0886
31381W        W47275   3.992   1.117   3.311 -0.2908 -0.0288  0.0676
31382W        W47276  13.974   0.312  13.894  0.1296 -0.2848  0.0483
31383W        W47277  10.908  12.053   3.471  0.0875 -0.3873 -0.0527
31384W        W47278  10.564   4.384  15.912  0.3478  0.1017  0.0458
31385W        W47279   4.565   9.759   0.930 -0.3228 -0.0311 -0.0039
31386W        W47280  12.956  12.582  14.826 -0.4649  0.3318 -0.1279
31387W        W47281  12.522   0.522  11.979  0.1663  0.0013  0.1434
31388W        W47282   3.645  14.977  13.734 -0.1117 -0.0030  0.0236
31389W        W47283  16.182   6.713   3.280  0.1265 -0.0016 -0.1716
31390W        W47284  12.632  16.986   2.559 -0.4361 -0.0365  0.0075
31391W        W47285   1.067   0.922  14.074 -0.3996  0.1238 -0.1439
31392W        W47286   1.502   4.905  14.235  0.0586  0.3608 -0.1257
31393W        W47287   1.906   1.140   4.211  0.4358 -0.1668 -0.2545
31394W        W47288   8.685  15.424  12.371  0.1461  0.0811 -0.0378
31395W        W47289  11.985   6.171   0.727  0.4442 -0.0178  0.1590
31396W        W47290  13.823  14.373   5.479  0.0155  0.2286 -0.1561
31397W        W47291  17.168   2.421   0.729  0.0383 -0.0059 -0.1704
31398W        W47292  11.603   4.454   4.457  0.0676  0.0630  0.2159
31399W        W47293   6.568  13.373   1.073 -0.0440  0.2521 -0.1752
31400W        W47294   6.081  16.555  16.212  0.0129  0.2737 -0.1894
31401W        W47295   6.424  14.663   3.703 -0.0778 -0.1782 -0.2729
31402W        W47296  14.001   9.572   2.090  0.1185  0.1017  0.0541
31403W        W47297   2.325  17.438  16.942 -0.1588  0.0651  0.0879
31404W        W47298  12.805  17.574   4.512 -0.0561  0.2401 -0.3256
31405W        W47299  10.272   7.779   4.715  0.1968 -0.2015  0.1903
31406W        W47300   4.300   0.850   2.338  0.1181 -0.1865  0.3101
31407W        W47301   8.434   5.957  13.266  0.0754  0.0771  0.1947
31408W        W47302   9.202  12.194  16.053  0.4758  0.0858  0.0354
31409W        W47303  16.367   5.821  15.777  0.2464 -0.2288  0.0318
31410W        W47304   9.984   7.740  15.529 -0.0272 -0.1828  0.1151
31411W        W47305   3.870   1.642   0.236  0.0568  0.0673 -0.1433
31412W        W47306   4.139  16.607  15.624  0.3022 -0.0562  0.0246
31413W        W47307   9.784  16.728  14.306 -0.3273 -0.2821  0.1103
31414W        W47308   3.847   3.476   2.910  0.3215 -0.2116  0.1464
31415W        W47309   6.617  15.564   5.097  0.2219  0.1464  0.1011
31416W        W47310   8.748  10.882   1.019 -0.0742 -0.1620 -0.0054
31417W        W47311  16.719  16.584   5.053 -0.1921 -0.3183 -0.0491
31418W        W47312   9.050  11.902   3.844  0.0676  0.0752 -0.2548
31419W        W47313  17.328  15.878  14.547  0.0806  0.2439 -0.0232
31420W        W47314   2.200   5.366  16.051  0.1721  0.1848 -0.1151
31421W        W47315   1.844  10.948  16.841 -0.3777  0.2016 -0.8047
31422W        W47316   7.642   8.782   3.961 -0.1580  0.2209 -0.2101
31423W        W47317   6.531  11.384   0.017 -0.1128  0.3579 -0.0848
31424W        W47318   8.921  16.224  16.786  0.0240 -0.1346 -0.0655
31425W        W47319   7.374   3.848  15.117  0.1084  0.1056 -0.0974
31426W        W47320  11.581  11.454  14.100 -0.0826 -0.0943  0.1486
31427W        W47321   9.493  16.468   3.482 -0.2284  0.1238  0.1360
31428W        W47322  13.684   0.274  15.157 -0.1941  0.0600  0.0614
31429W        W47323  12.539   7.812  14.048  0.1883  0.2650  0.0496
31430W        W47324   9.858   0.850  11.634 -0.1721 -0.2153 -0.1350
31431W        W47325  13.395   1.722  15.712  0.4150  0.0750 -0.3160
31432W        W47326   9.373  17.331   1.712  0.2508 -0.3322  0.0685
31433W        W47327  10.678   4.725   1.639 -0.0871  0.1039  0.0133
31434W        W47328  14.034   5.312   2.909 -0.0484  0.2525  0.0482
31435W        W47329  15.358   3.061   2.625  0.2812 -0.0639 -0.1805
31436W        W47330   7.889   8.650   2.993 -0.1925  0.2621  0.0513
31437W        W47331  14.816   9.628  12.408  0.2693 -0.1499  0.1117
31438W        W47332   2.608   6.041   5.588  0.0205  0.0023 -0.1754
31439W        W47333  15.458  11.404   4.947 -0.0792  0.1033 -0.1225
31440W        W47334   4.863   6.537   5.498  0.0996 -0.2081 -0.3507
31441W        W47335   8.134  13.245  17.124 -0.0898 -0.0398  0.2060
31442W        W47336  12.863  13.320  17.060  0.3468 -0.2733 -0.0804
31443W        W47337  13.820  12.929   4.950 -0.2204  0.2831  0.0713
31444W        W47338   2.414  16.942  14.782  0.0347 -0.0869  0.0886
31445W        W47339   3.817  10.573   4.587  0.1173 -0.3013 -0.0457
31446W        W47340   1.836  17.603   5.185  0.0155  0.1588  0.1985
31447W        W47341   8.420  11.514   0.029  0.0802  0.1056 -0.3370
31448W        W47342  14.452   9.558   0.196 -0.2129  0.3616  0.0012
31449W        W47343   2.113   1.033  16.424 -0.2975  0.1181  0.1816
31450W        W47344  14.862  11.985   1.328 -0.1643 -0.0078  0.4733
31451W        W47345   4.820  14.348   2.801 -0.0088  0.1520  0.0388
31452W        W47346   1.462  17.395   2.753  0.3281 -0.0119  0.0973
31453W        W47347   3.113   6.956   4.223 -0.0270  0.2400 -0.0709
31454W        W47348  11.208   1.644  12.580 -0.1711 -0.0468  0.1820
31455W        W47349  16.466  13.430   5.038 -0.0414 -0.3312  0.1722
31456W        W47350  17.634   9.057   4.081  0.3754  0.0841 -0.2639
31457W        W47351  14.812   2.579  14.561  0.2272  0.1487  0.0075
31458W        W47352  13.190   1.554   1.729 -0.1302  0.0254 -0.0999
31459W        W47353   5.810  12.036  15.988 -0.0940  0.1868  0.3391
31460W        W47354   6.677   0.961   4.237  0.2325 -0.0414  0.2485
31461W        W47355  14.835   2.111   0.496 -0.2749  0.2654  0.0395
31462W        W47356   4.242   9.553   3.629 -0.0263 -0.0826 -0.1979
31463W        W47357  13.155   7.273  14.425  0.0297 -0.1622  0.1159
31464W        W47358   4.695   9.287   4.647  0.0324 -0.1659  0.0967
31465W        W47359   3.132  11.531  16.448  0.0304 -0.0947 -0.2736
31466W        W47360  15.200   6.231   3.623 -0.2166 -0.0385 -0.1485
31467W        W47361   4.786  10.316  16.970 -0.0044 -0.2138 -0.0306
31468W        W47362   3.016  10.228   4.188  0.1799  0.0705  0.1684
31469W        W47363  12.381  16.292   2.510 -0.0300 -0.0893  0.0218
31470W        W47364  10.323  11.579  12.773 -0.2276  0.1486  0.0238
31471W        W47365  13.224   8.334  12.139 -0.0142  0.1142  0.0418
31472W        W47366   4.707   2.893   5.947 -0.1146 -0.0282  0.1063
31473W        W47367  17.568  13.049   2.440  0.0630  0.2302 -0.1518
31474W        W47368   9.376   5.654   3.031 -0.3524  0.2473  0.0268
31475W        W47369   9.201  17.152   0.225  0.0473 -0.0973  0.0052
31476W        W47370   3.646  14.954  16.333 -0.0924 -0.0179  0.0847
31477W        W47371   3.491   9.170  13.523  0.1245 -0.2496  0.1980
31478W        W47372   6.369  11.119  13.393 -0.0698  0.1901 -0.2104
31479W        W47373  11.241  13.861   6.080 -0.0660  0.0337  0.0542
31480W        W47374  15.060   3.717   3.799  0.1560 -0.1989 -0.1026
31481W        W47375  10.862  12.401  14.458 -0.2060  0.0191 -0.1219
31482W        W47376   1.507  16.419   5.758 -0.2027 -0.0510 -0.2577
31483W        W47377   6.364   3.673   4.889  0.2365 -0.2288 -0.0234
31484W        W47378   1.281  12.019   5.189 -0.0479 -0.2389  0.0570
31485W        W47379  13.086   7.236   0.988 -0.0783 -0.2413  0.0366
31486W        W47380   2.510   0.358   2.646 -0.0706 -0.0604 -0.0030
31487W        W47381   8.081   8.293   4.575  0.1052 -0.3339  0.0179
31488W        W47382  16.761  10.836   1.043 -0.2093 -0.1270  0.1033
31489W        W47383   0.665  13.315  17.175  0.0202  0.0055  0.1937
31490W        W47384   2.956   6.961   5.863 -0.1491 -0.0793  0.0511
31491W        W47385  10.845   8.899   5.962  0.1108 -0.3843  0.1013
31492W        W47386   1.851   7.203   0.843  0.1181  0.1360  0.0315
31493W        W47387   2.811   6.966  12.977  0.0272  0.5191 -0.1181
31494W        W47388   8.849   4.167  13.317  0.1241 -0.0278  0.0311
31495W        W47389  15.668  10.947  16.999  0.0995  0.0174  0.0632
31496W        W47390  10.051   9.187   3.052  0.0057 -0.0690 -0.0465
31497W        W47391   7.068  11.396   1.678 -0.2882 -0.2312  0.0225
31498W        W47392   6.847   6.098  14.429 -0.0250 -0.0987  0.2102
31499W        W47393   9.911   4.762  16.545 -0.0848 -0.0320 -0.0340
31500W        W47394   0.472   8.918  14.174 -0.0306  0.2656  0.1394
31501W        W47395  14.139   8.353  11.259  0.1644 -0.0077  0.1696
31502W        W47396   3.877  11.514  13.090 -0.0844 -0.2092  0.0136
31503W        W47397  10.142  10.201  10.270 -0.1688  0.3130  0.0905
31504W        W47398   8.416   1.998  13.739  0.0349 -0.0774 -0.1010
31505W        W47399  10.193  15.148  12.028 -0.0327 -0.0186  0.3289
31506W        W47400  12.129   5.512   5.398  0.0079 -0.1800  0.1372
31507W        W47401  16.442   2.582   2.119 -0.3015  0.3969  0.1281
31508W        W47402   5.891   6.953   4.278  0.0272  0.0168 -0.1158
31509W        W47403  12.735   5.149  15.860 -0.3581 -0.0672 -0.0038
31510W        W47404  15.292   0.016   4.828 -0.1327  0.1050  0.1366
31511W        W47405  14.342  16.868   0.966 -0.0335 -0.0830 -0.0082
31512W        W47406   1.993   7.218  15.511 -0.1248  0.1321 -0.0331
31513W        W47407   2.602   3.827  16.480  0.1000  0.1590  0.0014
31514W        W47408  12.045   0.338   6.538  0.2252  0.3893 -0.1317
31515W        W47409   6.874   8.656  15.047  0.3998  0.1024  0.0538
31516W        W47410  13.838  17.068  13.533  0.0994  0.4604  0.1591
31517W        W47411  10.374  14.858  13.168  0.3577  0.1727 -0.1395
31518W        W47412  12.504  15.028  13.853 -0.3193 -0.0511  0.0484
31519W        W47413  11.578   7.304  15.465 -0.1013 -0.0197 -0.0761
31520W        W47414  11.478   9.706   0.893  0.4003 -0.4957  0.0419
31521W        W47415   2.830   7.374   3.305  0.0491 -0.2867  0.0189
31522W        W47416   5.113  12.018   3.137  0.0242  0.0643  0.2452
31523W        W47417  17.193  12.219  15.697 -0.0847 -0.1274  0.1216
31524W        W47418   1.187  14.683   0.613  0.1121  0.0477  0.0706
31525W        W47419   1.136  16.822  16.439  0.2534  0.0102 -0.1550
31526W        W47420  10.335   8.440  11.284  0.2165  0.0476 -0.1030
31527W        W47421  11.687   9.902  13.661  0.1562  0.1462 -0.2631
31528W        W47422   7.774   8.757   4.637 -0.2845  0.4123  0.2061
31529W        W47423   5.333  14.838   3.601 -0.3004 -0.0031 -0.2295
31530W        W47424   9.694  15.040  14.959  0.1930 -0.1730  0.1669
31531W        W47425  15.596   1.955   5.439 -0.4675  0.0131 -0.0644
31532W        W47426   6.498  11.968  12.304 -0.1821 -0.0408 -0.1740
31533W        W47427  14.425   6.337   0.572  0.2497  0.1647 -0.0529
31534W        W47428  14.195   7.051   1.657  0.2355  0.2712  0.1408
31535W        W47429   8.157   1.799   2.258  0.0420 -0.0611 -0.1809
31536W        W47430   1.239  15.106  15.548 -0.2405  0.1210  0.2248
31537W        W47431   4.668   2.432   3.820  0.1812 -0.1556  0.1561
31538W        W47432   5.127  16.534   1.641 -0.1039  0.1413 -0.0402
31539W        W47433  13.397  11.342  12.334 -0.0960  0.0896  0.0825
31540W        W47434   9.951  12.182  14.896 -0.2514  0.0664 -0.1996
31541W        W47435   2.598   6.805   0.415 -0.2047  0.2107 -0.0916
31542W        W47436   8.405   8.353   4.154  0.3245 -0.2873 -0.0346
31543W        W47437  11.009   1.185   1.552  0.1777  0.0583 -0.0647
31544W        W47438  17.594   1.064   0.792 -0.3389  0.0406  0.1416
31545W        W47439   5.822   3.873   5.980 -0.1028 -0.2692  0.0554
31546W        W47440  16.352  10.426   0.831  0.0023 -0.0662 -0.0999
31547W        W47441   9.720  13.220  16.242 -0.1492 -0.0529  0.2854
31548W        W47442   2.862   4.485  15.347  0.2063  0.2001 -0.0492
31549W        W47443   0.195  11.635   2.305  0.0622  0.0782 -0.1156
31550W        W47444   9.961   7.850  16.842 -0.0806  0.0310 -0.0708
31551W        W47445   2.279   5.185  13.790 -0.3366 -0.1510 -0.1993
31552W        W47446  11.199  13.940   2.432 -0.1166 -0.3733 -0.2302
31553W        W47447  12.733   4.265   5.404 -0.1771  0.1791  0.0327
31554W        W47448  13.353  14.829   4.697  0.2744  0.0828 -0.1194
31555W        W47449   6.756  15.079  12.152  0.1758 -0.0153 -0.0086
31556W        W47450  12.527   7.968  12.657  0.3821  0.2956  0.0171
31557W        W47451  14.607  11.651   3.523 -0.2866 -0.3366  0.4089
31558W        W47452  17.047   1.659  11.871 -0.0020 -0.4818  0.1740
31559W        W47453  15.192   1.676   2.234  0.0252  0.0669  0.1648
31560W        W47454  14.099  10.295   1.567  0.1985 -0.0680  0.0383
31561W        W47455  13.896  10.902   0.799  0.0949 -0.1421 -0.0110
31562W        W47456   6.932   4.513   1.354  0.1715 -0.2638 -0.3233
31563W        W47457  16.527   8.616   0.286 -0.0137 -0.0041 -0.1578
31564W        W47458   6.244  15.153  14.218 -0.1975 -0.0067 -0.0354
31565W        W47459   3.382  10.239  16.525 -0.3177 -0.0605  0.0867
31566W        W47460  12.725  12.372   1.581  0.0924  0.0451 -0.2596
31567W        W47461   8.348  10.269   5.816  0.0530 -0.1504 -0.1203
31568W        W47462  15.104  11.739  16.073 -0.0299  0.1921  0.0754
31569W        W47463   6.240  12.664   1.082  0.3122  0.2535 -0.0175
31570W        W47464  12.872   4.588  15.987  0.3810  0.1202  0.1168
31571W        W47465  17.491   4.125   5.268  0.2649 -0.1082 -0.0052
31572W        W47466  15.691   1.707  13.949 -0.2040  0.1076  0.2625
31573W        W47467  10.058   2.427   2.277  0.3278 -0.1906  0.2571
31574W        W47468   4.706   9.499  13.765 -0.1081  0.2274 -0.1538
31575W        W47469  15.157  16.561  13.472 -0.0506 -0.1830  0.1532
31576W        W47470  15.090   1.711   4.434 -0.2242 -0.1085  0.1982
31577W        W47471  10.879   6.311  15.023  0.1984  0.0796  0.0356
31578W        W47472   6.655  12.070  16.532 -0.1571  0.0975  0.1745
31579W        W47473   1.967  13.457   2.481 -0.0935 -0.4023 -0.0051
31580W        W47474  10.271   2.254   5.190  0.2797  0.3683 -0.0540
31581W        W47475  11.546   9.179   1.504  0.1297 -0.1189  0.1960
31582W        W47476   1.806   3.563   4.059 -0.2758 -0.1243  0.1781
31583W        W47477   2.016   0.877   2.616  0.1532  0.0457 -0.0209
31584W        W47478  10.572  12.821   4.813 -0.2024 -0.3015 -0.0475
31585W        W47479  16.288   4.823   5.909  0.1902 -0.2088 -0.3387
31586W        W47480  17.172   9.199   0.956 -0.0077  0.0014 -0.1319
31587W        W47481   1.542   7.669  12.450  0.5291  0.0002 -0.3366
31588W        W47482   2.918   8.886   0.507 -0.1356  0.0160  0.2227
31589W        W47483  13.590   7.010   1.023  0.0748 -0.1455  0.0355
31590W        W47484  13.822  16.196  13.624 -0.0098  0.0959  0.1170
31591W        W47485   2.398   8.002   1.353 -0.3438 -0.0716  0.2315
31592W        W47486   3.714  10.906   4.993 -0.1630 -0.2335 -0.0333
31593W        W47487  10.652  14.020  16.029  0.3261 -0.0200 -0.3795
31594W        W47488  14.548   3.409  15.190  0.1390  0.0224 -0.0943
31595W        W47489  13.621  11.496   1.232  0.4881  0.1349  0.2799
31596W        W47490  11.872  11.963   1.634 -0.1638  0.1923  0.1316
31597W        W47491  13.301  12.428   2.674  0.1141  0.2127 -0.1306
31598W        W47492  11.967   3.546  15.336  0.2359 -0.1433 -0.0162
31599W        W47493  12.908   5.039  14.444 -0.0648  0.0356 -0.0059
31600W        W47494  17.082  11.408   2.786  0.0383  0.2788 -0.1034
31601W        W47495   7.727  15.199   1.820 -0.0369 -0.0711 -0.0493
31602W        W47496   2.067  13.963  16.177 -0.1701  0.0008  0.1155
31603W        W47497   5.571  13.967  16.997 -0.0817  0.1337  0.1191
31604W        W47498  16.679   1.231   0.408 -0.0813  0.1817  0.1936
31605W        W47499  15.652  12.916   3.581  0.0128 -0.1334  0.1419
31606W        W47500  13.964   9.910   4.883  0.1382  0.1675 -0.0719
31607W        W47501  11.601   6.823   2.630  0.1852 -0.0199 -0.0388
31608W        W47502   2.812   3.599  16.945  0.2043 -0.2876 -0.2761
31609W        W47503  16.312   0.301   5.852  0.1410 -0.0986  0.0861
31610W        W47504   7.863   8.137  12.656  0.0816 -0.2599 -0.0598
31611W        W47505  14.959  13.450  15.644  0.0136  0.0164 -0.3081
31612W        W47506  17.449  12.677  17.141  0.1250  0.2969 -0.0001
31613W        W47507  10.412   4.111  14.278  0.3295 -0.2410 -0.1188
31614W        W47508   8.988  14.699  13.909  0.0651  0.3075  0.2307
31615W        W47509  10.236  16.076  15.478  0.3346 -0.0975  0.1575
31616W        W47510   7.915  12.582  15.077 -0.0459  0.1654  0.0160
31617W        W47511  15.771  11.053  14.955 -0.1981  0.2235  0.0243
31618W        W47512   7.318   5.046   5.476  0.0241  0.1145  0.0604
31619W        W47513  14.267  11.200   6.002 -0.0767 -0.2050 -0.1824
31620W        W47514  17.181   5.603  12.938  0.1003 -0.0745 -0.1217
31621W        W47515  14.218   1.620  14.431 -0.3823 -0.1898  0.3047
31622W        W47516   4.551  16.014  17.163  0.2174  0.3230  0.0816
31623W        W47517   1.123   6.999  14.062  0.0557 -0.2511 -0.1076
31624W        W47518   1.462  11.802  15.394  0.2334 -0.1224 -0.3218
31625W        W47519   1.818   2.162   0.460  0.0439  0.2413 -0.1940
31626W        W47520  11.657   7.661   3.214  0.1919 -0.1719  0.1716
31627W        W47521  14.853  10.030  15.207  0.2941 -0.0469 -0.1299
31628W        W47522   1.388   2.272  14.059  0.0038 -0.0533 -0.0956
31629W        W47523   4.013  12.666   5.353  0.1950 -0.0749  0.1182
31630W        W47524   9.197   3.957  12.727  0.1726 -0.1853  0.0912
31631W        W47525  15.883   9.815  16.725 -0.1281  0.1783  0.0018
31632W        W47526   3.768  12.230  14.476  0.2676 -0.1433 -0.0438
31633W        W47527   0.172   4.431  12.647 -0.2217  0.0336 -0.0115
31634W        W47528   2.160  15.604   3.341 -0.1713  0.0224  0.0704
31635W        W47529   3.915   6.365   0.187  0.0940  0.3238 -0.2192
31636W        W47530  13.997  14.970  16.315  0.2078  0.1616 -0.0839
31637W        W47531  15.563   7.740  14.179  0.0258 -0.1353  0.0485
31638W        W47532   4.962  11.468  13.135  0.1313 -0.2388 -0.0563
31639W        W47533   9.191   1.232  15.034 -0.2145 -0.1104 -0.0768
31640W        W47534  16.882   8.800  15.682  0.1108  0.1108  0.0874
31641W        W47535   9.244   9.127   2.494  0.0902 -0.1771 -0.2069
31642W        W47536  15.280   6.531   1.665  0.0160 -0.2736 -0.0363
31643W        W47537  10.857  14.417   0.724 -0.5300 -0.3219  0.2400
31644W        W47538   4.330  13.718   4.257 -0.3876 -0.1176  0.2898
31645W        W47539  13.744  12.652   0.051 -0.0079 -0.2507  0.2136
31646W        W47540   0.704   8.609  16.368  0.1112  0.0835 -0.0766
31647W        W47541   5.218   2.482  12.365  0.0526 -0.1137  0.1816
31648W        W47542  14.458  16.577   4.688  0.1350 -0.2386  0.0224
31649W        W47543  15.571   7.268  13.828 -0.1004  0.1410  0.0647
31650W        W47544  12.722  10.326  12.085  0.0383 -0.2437 -0.0970
31651W        W47545   3.914  15.626  12.211 -0.1660  0.2413  0.2815
31652W        W47546  13.572  15.541   1.251  0.1062  0.0334 -0.3393
31653W        W47547   4.255  16.370   1.075  0.0259  0.0000 -0.2115
31654W        W47548   9.837   0.109   4.292 -0.0017  0.1846 -0.0478
31655W        W47549   2.380   4.126   4.629 -0.2814  0.2223 -0.2952
31656W        W47550  10.629  12.352  12.427  0.0386  0.0026 -0.2212
31657W        W47551  11.022   6.741   1.603  0.0247  0.0781 -0.1403
31658W        W47552  15.113  14.141  14.575 -0.0550 -0.1347 -0.1652
31659W        W47553   2.721   2.212   2.555 -0.1648  0.0824 -0.0127
31660W        W47554  14.963   4.698   4.270  0.0304  0.1401  0.0077
31661W        W47555  13.295   4.477  16.243 -0.0764  0.0771  0.0468
31662W        W47556  17.598   3.795   2.876  0.0749  0.0813 -0.0624
31663W        W47557  17.342   7.374   3.139 -0.3326 -0.1337 -0.1713
31664W        W47558  13.715   5.349   3.935 -0.2074 -0.1278  0.1223
31665W        W47559  11.902  13.395  11.241  0.2119  0.2047 -0.0826
31666W        W47560   5.079   7.383  15.036  0.0960  0.0089 -0.1667
31667W        W47561  11.485  12.232   2.215  0.1450 -0.0229 -0.2669
31668W        W47562   5.127  14.674  15.210 -0.1859 -0.0684 -0.1626
31669W        W47563  10.114  10.835  16.127 -0.0930  0.0677 -0.0755
31670W        W47564  12.293   1.757   3.414  0.2606 -0.1206 -0.2256
31671W        W47565   2.442   7.000  13.319 -0.0814 -0.3048 -0.0887
31672W        W47566  16.094   4.371  14.307 -0.1359  0.0737  0.2171
31673W        W47567  17.145   3.109   2.884 -0.2004 -0.0234 -0.3490
31674W        W47568  13.394   7.440   2.319 -0.1641  0.0718  0.1647
31675W        W47569  10.997  17.218   1.889 -0.0085  0.1850 -0.3095
31676W        W47570   6.277  10.147   3.630  0.0970 -0.2048  0.0245
31677W        W47571   4.899   3.886  15.121 -0.3419 -0.1701 -0.2201
31678W        W47572   7.790  13.042  14.975  0.1559 -0.0524 -0.1829
31679W        W47573   1.588  16.262   0.482 -0.1371  0.0817  0.1706
31680W        W47574   0.836  10.761  13.099 -0.0826  0.5421 -0.2337
31681W        W47575  13.603   1.664  11.896  0.2015  0.0492  0.2820
31682W        W47576  16.354  14.368  15.681  0.1063  0.2256  0.3313
31683W        W47577  14.877  15.839  15.941 -0.1750  0.1964 -0.2401
31684W        W47578   9.330   0.939   1.197  0.2062  0.0188 -0.2546
31685W        W47579  13.148  17.398  16.225 -0.0519  0.2870 -0.0559
31686W        W47580   6.822   4.981   3.342  0.0492 -0.2632  0.1024
31687W        W47581   1.190   5.133  13.924  0.1146  0.1647 -0.2486
31688W        W47582   0.905  15.032   3.482  0.0873  0.0279 -0.0981
31689W        W47583  15.580  11.849  16.248 -0.1173 -0.0377 -0.2711
31690W        W47584   7.661  14.918  12.039 -0.0164  0.0037  0.1791
31691W        W47585  15.337  16.568   2.827  0.1311 -0.0878  0.0549
31692W        W47586   7.669   2.688  16.702 -0.3122 -0.1429  0.0066
31693W        W47587   7.392   3.892   2.556  0.0666 -0.0399  0.1743
31694W        W47588  12.484  10.214  16.858 -0.0736 -0.2605 -0.3124
31695W        W47589   6.559   3.329  16.558 -0.1197  0.3264 -0.0058
31696W        W47590   5.688   2.474  16.504  0.1631  0.3084 -0.0407
31697W        W47591   4.573   7.525   4.438  0.1279 -0.0025  0.1982
31698W        W47592   5.853   3.074   1.156 -0.0565  0.3694 -0.1944
31699W        W47593   5.754  16.631   6.202 -0.2021 -0.0203  0.1925
31700W        W47594   0.830   6.891  15.844  0.0248 -0.0493 -0.1036
31701W        W47595   5.485  14.401   3.408 -0.1682  0.2130 -0.1717
31702W        W47596   0.627  10.610  16.128  0.0008  0.0640 -0.0663
31703W        W47597   3.670  16.969  15.774 -0.0201 -0.1367  0.1624
31704W        W47598   9.606   3.372  16.428 -0.1350  0.2344 -0.1486
31705W        W47599   7.254   2.149   0.101  0.1559  0.0299  0.0277
31706W        W47600  13.145  12.553   1.937  0.0730 -0.2033  0.1682
31707W        W47601  12.411  17.539  13.243  0.2317 -0.1419  0.4460
31708W        W47602   5.508   8.429  14.246  0.1485  0.0267 -0.0674
31709W        W47603  10.478  13.517   0.739  0.0064  0.1948  0.1136
31710W        W47604  14.467   5.607  13.675  0.1301 -0.0433 -0.0839
31711W        W47605  10.892  16.085   4.945  0.0768 -0.2113  0.0965
31712W        W47606   4.955  16.898   4.383 -0.1421  0.1002  0.2953
31713W        W47607  11.026  12.231   5.454 -0.0531  0.2949  0.2130
31714W        W47608  15.913  12.944  14.965 -0.2802 -0.1607  0.0563
31715W        W47609   0.580  10.560   4.916  0.0891 -0.2938  0.2373
31716W        W47610   2.411   2.808  12.229 -0.0490  0.3970  0.0070
31717W        W47611  14.095   7.150   4.547  0.3059 -0.1687  0.2039
31718W        W47612   3.923  14.305   2.845  0.0744  0.0961 -0.1748
31719W        W47613   2.432   6.358   6.317  0.2250  0.1390  0.2231
31720W        W47614   8.232  15.050  14.879  0.0706  0.4303  0.0326
31721W        W47615  16.969  15.556  12.078  0.3247 -0.0935  0.1846
31722W        W47616  15.839   1.217   1.693  0.0553 -0.2562  0.0725
31723W        W47617   3.008   1.606  13.027 -0.0228 -0.1092 -0.0776
31724W        W47618   9.200   3.089   0.679  0.2439 -0.2014  0.3476
31725W        W47619  15.444  17.282  16.278  0.1041  0.1568  0.1066
31726W        W47620  15.333  13.757   4.574 -0.1506  0.2339  0.0677
31727W        W47621  13.530  14.311   2.849 -0.2445  0.1342 -0.0231
31728W        W47622   2.691   7.213  12.544  0.0470 -0.5673 -0.0754
31729W        W47623   4.191   4.806  12.378 -0.1375 -0.2589  0.2058
31730W        W47624  10.183  12.548   2.404 -0.0224  0.0948 -0.1757
31731W        W47625  14.187  17.625   1.540 -0.3645 -0.1578 -0.0110
31732W        W47626  15.424  17.270   5.185 -0.1650  0.3980  0.1641
31733W        W47627   8.395   2.645   4.052 -0.0901 -0.0659 -0.0178
31734W        W47628  13.730  15.105  15.910 -0.1077  0.2928 -0.0019
31735W        W47629   9.586  11.330   0.634  0.1760 -0.0175  0.1737
31736W        W47630   5.886   5.493   0.802 -0.1350 -0.1741  0.1051
31737W        W47631  16.319  11.040   3.774  0.0643 -0.0615 -0.1061
31738W        W47632  10.937  10.874   1.088  0.4861  0.3532 -0.1897
31739W        W47633  15.322  14.134   2.365  0.1241 -0.2391 -0.2113
31740W        W47634  11.400   7.738  11.770 -0.0943 -0.0679 -0.1038
31741W        W47635   1.209  16.768   4.944  0.1500  0.2473  0.0900
31742W        W47636  11.235  13.400   0.203 -0.1124  0.0025 -0.1693
31743W        W47637   2.513  12.155  14.622 -0.1547 -0.0004  0.0801
31744W        W47638  11.899   8.947   2.148  0.0032 -0.1162 -0.1415
31745W        W47639   6.676  10.412   5.538  0.0234  0.0290  0.0348
31746W        W47640   7.996  17.308  14.951  0.2169  0.2540 -0.2505
31747W        W47641  11.531   0.191   0.713 -0.3807  0.1046  0.1206
31748W        W47642  11.581  11.424   2.659 -0.0874  0.1738 -0.0006
31749W        W47643  12.643  16.404  14.902 -0.1466  0.2417 -0.1660
31750W        W47644   3.722  16.802   4.264 -0.3070  0.2275  0.2954
31751W        W47645   6.333  14.567   1.349 -0.3043 -0.0033 -0.1542
31752W        W47646  13.651   3.749   4.823  0.3843  0.0045  0.2494
31753W        W47647   4.326  13.809   0.244 -0.2421  0.3017 -0.0904
31754W        W47648   6.190  10.147  17.239 -0.0992  0.2262 -0.3295
31755W        W47649  11.687   7.568  14.350 -0.0133 -0.3100 -0.0346
31756W        W47650  12.251  16.662   4.601  0.1048  0.2481  0.1857
31757W        W47651  13.929   5.555  14.864  0.1773 -0.0235  0.0005
31758W        W47652   7.057   8.007  14.498  0.0400 -0.1726 -0.1233
31759W        W47653  15.132  16.073   1.291 -0.0024  0.2962  0.1194
31760W        W47654   0.369   5.788   5.739 -0.0554 -0.1010  0.0128
31761W        W47655   2.272   1.255   2.293 -0.2093  0.1250 -0.3795
31762W        W47656  12.971   8.694  13.228  0.0725 -0.1939  0.3185
31763W        W47657  15.358  11.255   1.708 -0.0593 -0.1079 -0.0821
31764W        W47658   2.810  11.324  14.306  0.1193  0.0111  0.0709
31765W        W47659   1.403  13.158   0.379 -0.0931  0.1981 -0.3031
31766W        W47660  15.356  15.589   1.302 -0.1612 -0.2099  0.2593
31767W        W47661   2.813   9.317   4.419 -0.0341 -0.0869  0.2143
31768W        W47662   1.691  12.200   5.877  0.2633 -0.0093  0.0581
31769W        W47663   0.542   0.243   5.892 -0.1058 -0.1885  0.3156
31770W        W47664  15.829   7.424   3.844  0.0062 -0.1226 -0.1020
31771W        W47665  14.295   4.271  13.910 -0.4839 -0.2375  0.1589
31772W        W47666  13.837   0.386   2.111 -0.0077  0.0972  0.6270
31773W        W47667  14.432  12.173   1.525  0.1783 -0.1334 -0.2786
31774W        W47668   0.250   3.664  15.122  0.0360 -0.0530  0.0907
31775W        W47669  16.225   8.825   3.658 -0.0246 -0.0520 -0.0044
31776W        W47670   9.003   2.424  14.933  0.0066  0.2574 -0.0642
31777W        W47671  14.400   4.088  15.022  0.0095 -0.0296  0.1174
31778W        W47672  17.637   3.484   3.425  0.3128  0.1624 -0.0474
31779W        W47673  15.027   1.413   4.857 -0.2335  0.1168  0.0072
31780W        W47674   9.940  10.536  15.650 -0.0214  0.1338  0.0354
31781W        W47675   1.198  10.502  16.280 -0.2960  0.0840 -0.1127
31782W        W47676  13.616   4.489  15.217 -0.3792  0.1099  0.1128
31783W        W47677  14.436   1.590  13.595 -0.2091 -0.2019 -0.0847
31784W        W47678  15.642  17.367   1.619  0.1823  0.0329  0.2678
31785W        W47679  14.266   1.706   1.431 -0.0714 -0.1943 -0.0339
31786W        W47680  15.025  13.276  16.141 -0.1440 -0.2831 -0.4457
31787W        W47681   7.028   6.170  16.485  0.1896  0.1729  0.0351
31788W        W47682  17.285   8.596   4.764 -0.0582 -0.1789  0.2744
31789W        W47683   0.076   0.220  15.503  0.0303  0.0139  0.0724
31790W        W47684   3.727  15.013   0.546 -0.2478 -0.0699 -0.0083
31791W        W47685  12.841   2.672  11.764 -0.2424 -0.3885  0.2986
31792W        W47686  14.586   0.293  10.783  0.1147  0.3718  0.1438
31793W        W47687   7.627  12.626   5.785 -0.1146  0.0956  0.2755
31794W        W47688   7.783  14.029  12.050  0.1773 -0.1660 -0.2202
31795W        W47689  13.795  15.588  15.639 -0.2051 -0.0523  0.2177
31796W        W47690   7.634  14.384   1.354  0.1526 -0.1982  0.0221
31797W        W47691  10.821   6.761   2.065 -0.0786 -0.3501  0.1857
31798W        W47692  15.578   3.439  15.680 -0.0488 -0.4966  0.1691
31799W        W47693  13.919   0.963   5.042 -0.0472  0.0575  0.2711
31800W        W47694  12.264   1.422   6.049  0.5623 -0.1353 -0.4674
31801W        W47695  15.531   8.299   5.692 -0.1222 -0.2913 -0.3176
31802W        W47696   6.297   5.167   3.302  0.1167  0.0817  0.1270
31803W        W47697  15.993   2.431   2.998 -0.2040 -0.0035 -0.0458
31804W        W47698   3.985   3.125  14.140 -0.2226  0.1717  0.2348
31805W        W47699  15.498   2.538   3.207  0.1510 -0.0242  0.3031
31806W        W47700   6.471  16.786   1.706 -0.3527  0.1178  0.2003
31807W        W47701  15.891   7.550   2.845 -0.3814  0.1992  0.2695
31808W        W47702  17.622  13.648   3.874 -0.1127 -0.1308 -0.3317
31809W        W47703   0.931   7.326  14.476  0.0182  0.1909  0.1175
31810W        W47704  15.211  14.972   1.033 -0.0784 -0.2716  0.1038
31811W        W47705   7.011   1.083   2.325  0.0463  0.1354  0.2982
31812W        W47706  10.625   6.090  11.827 -0.1203 -0.0827 -0.0676
31813W        W47707  16.440   4.570  12.427  0.0281 -0.0801  0.0624
31814W        W47708  10.312   6.893  11.451 -0.0056  0.0528  0.1532
31815W        W47709   4.093   3.944   2.087  0.2247  0.0921  0.1264
31816W        W47710   1.271   3.602  13.745  0.1078 -0.0802 -0.0847
31817W        W47711  16.458   9.030  13.354  0.1919 -0.0329  0.0341
31818W        W47712  11.661   7.541  16.810  0.0062 -0.1709  0.1313
31819W        W47713   7.106   9.393  16.589 -0.2307 -0.3845  0.0008
31820W        W47714  11.804   3.551  16.182 -0.1858  0.1361 -0.3192
31821W        W47715   3.173  13.002  14.599  0.1222  0.2730 -0.1549
31822W        W47716   5.453  15.110  13.915  0.0772  0.1226 -0.0526
31823W        W47717   9.886  17.501  16.623 -0.1618 -0.1671  0.1206
31824W        W47718   7.494  11.003   1.682 -0.0819  0.0290  0.1273
31825W        W47719  12.913   8.232  11.796  0.3089 -0.2283  0.0289
31826W        W47720  11.351  12.761   2.228 -0.0386 -0.2719  0.0467
31827W        W47721   8.601   9.209   3.370  0.0398  0.1405  0.0376
31828W        W47722  12.006  14.730   2.736  0.0760 -0.2488 -0.3344
31829W        W47723  16.458   7.745  16.258  0.2616  0.0826 -0.0796
31830W        W47724  16.142   3.274  17.197 -0.1726 -0.0480  0.1207
31831W        W47725   7.867  10.988  17.087  0.1152  0.1742 -0.0628
31832W        W47726  16.978   4.911   5.455 -0.1982 -0.1299  0.2104
31833W        W47727   2.100  16.413   4.981  0.1511 -0.2690 -0.0497
31834W        W47728  12.660  11.200  16.860  0.0360  0.1533 -0.2708
31835W        W47729  16.297   6.578   3.803 -0.0570 -0.0464 -0.0550
31836W        W47730  12.650  16.042   2.821  0.1535  0.2107  0.0313
31837W        W47731   3.562  15.481  13.484 -0.0949 -0.0509 -0.0604
31838W        W47732  16.460   0.525   1.512 -0.0884  0.0420 -0.1918
31839W        W47733   7.264   1.356  12.450  0.2768  0.0753  0.3362
31840W        W47734   9.147   4.413   3.265  0.3485  0.3485  0.0509
31841W        W47735  12.262   9.595   3.882 -0.0482  0.1513 -0.1660
31842W        W47736   9.727   4.555  14.210 -0.0707 -0.2208  0.0412
31843W        W47737   9.548  16.245  14.396 -0.2811  0.0413  0.1166
31844W        W47738   0.866  11.572   2.936 -0.0832  0.2693  0.0932
31845W        W47739   6.454   9.428  16.757 -0.0247  0.1608 -0.2488
31846W        W47740   6.306   2.369  12.469  0.0221 -0.2836 -0.1857
31847W        W47741  10.676   1.595   4.806 -0.3822  0.1589 -0.4799
31848W        W47742   2.917  11.966  13.445 -0.1463  0.0482  0.1225
31849W        W47743   9.638  14.469   3.901  0.3175  0.0970  0.1474
31850W        W47744   6.591  17.214   4.020 -0.2504 -0.0209 -0.2454
31851W        W47745  16.892   0.871   0.107  0.0950 -0.1732 -0.0917
31852W        W47746   6.196   9.845   1.277  0.0552  0.5420 -0.2442
31853W        W47747   6.350   6.221  14.266 -0.1165  0.3577  0.0001
31854W        W47748  10.572  14.339  16.578  0.0077 -0.1525  0.2577
31855W        W47749   5.646   0.284   1.881 -0.1239  0.0274  0.1977
31856W        W47750   8.972   0.784   2.423  0.0745 -0.2293  0.0025
31857W        W47751  11.939  16.326   6.608 -0.3212 -0.2466 -0.0053
31858W        W47752  13.270  13.540   1.520 -0.0950 -0.2326  0.6144
31859W        W47753   0.932   3.681  14.512 -0.0882 -0.3371  0.0757
31860W        W47754  10.967   3.976   4.492 -0.2736 -0.0321 -0.2331
31861W        W47755   7.219  11.782   4.056  0.2099  0.2570 -0.2041
31862W        W47756  12.298  13.528  16.693  0.0875 -0.1426 -0.2110
31863W        W47757   9.156   1.444   4.555  0.3425 -0.0746  0.2284
31864W        W47758   4.894   5.445   5.344  0.1855 -0.0068  0.1385
31865W        W47759  15.971  14.967   3.283 -0.1531 -0.1270 -0.0143
31866W        W47760  15.762   6.111  12.916 -0.1242  0.0391  0.1240
31867W        W47761   7.044  10.830   5.459  0.3039 -0.1574  0.0795
31868W        W47762   0.195   7.857   6.375 -0.2670  0.0348 -0.1653
31869W        W47763   2.217  11.916   5.248  0.1349  0.0737 -0.0750
31870W        W47764   3.020  10.803   0.954 -0.1641  0.0780 -0.0525
31871W        W47765   9.692  17.608   5.994  0.0652 -0.0981  0.0754
31872W        W47766  14.418   6.622   1.574 -0.1279  0.0338 -0.0674
31873W        W47767  13.767   1.189  15.152  0.0720  0.3795 -0.1492
31874W        W47768   9.543   9.467   3.533  0.0756  0.0914 -0.0977
31875W        W47769  13.173   8.753  13.989  0.1519  0.1074  0.2629
31876W        W47770  15.971   1.299  11.756 -0.0901 -0.0722  0.1160
31877W        W47771   6.790   8.542  15.552 -0.0892 -0.3925  0.0053
31878W        W47772   9.393  13.276   2.666 -0.0646  0.2239  0.0111
31879W        W47773   4.240   0.872   0.075 -0.0761 -0.0019  0.0887
31880W        W47774   0.918   9.787   0.093 -0.2340  0.0927  0.3310
31881W        W47775   2.667  13.814  15.448 -0.0654  0.1924 -0.4823
31882W        W47776  11.278   5.534  13.003  0.1283  0.1338 -0.1559
31883W        W47777  11.039  10.301  14.699 -0.1105 -0.2563 -0.2907
31884W        W47778   0.341   7.994  12.039 -0.1081  0.1015 -0.2476
31885W        W47779   6.318  11.541  13.140 -0.0352  0.2270 -0.0770
31886W        W47780  12.059   2.670   2.006  0.0843 -0.1817 -0.2540
31887W        W47781   0.247   9.994   3.176  0.0108  0.1136  0.2480
31888W        W47782   4.400  14.519  15.942  0.0881 -0.0204  0.1965
31889W        W47783   9.450   6.231   4.505  0.0731 -0.1262 -0.1037
31890W        W47784  12.740  14.928   5.645 -0.1643 -0.3230  0.1198
31891W        W47785  17.456   3.109   1.550  0.1555 -0.0281 -0.1677
31892W        W47786   0.371   5.571  16.472  0.2192  0.1105 -0.3764
31893W        W47787  11.624  14.076   0.678  0.0337  0.0373  0.0325
31894W        W47788  13.151  16.308   6.049 -0.0781 -0.2248  0.0729
31895W        W47789   5.254  16.389  13.547 -0.0838  0.2716  0.1946
31896W        W47790   0.829  14.357  14.156 -0.0629  0.3020  0.1691
31897W        W47791   2.605   1.144  15.156 -0.2012  0.0115 -0.1112
31898W        W47792  16.938  13.354   4.894  0.0752 -0.0803 -0.0793
31899W        W47793   5.844  14.979  16.808  0.2806 -0.1981  0.2182
31900W        W47794   2.681   1.612  15.799  0.2176 -0.3355  0.1738
31901W        W47795  10.037   0.972   4.408 -0.2820 -0.1392  0.0049
31902W        W47796  11.350   1.966   4.474  0.0531  0.1759  0.0377
31903W        W47797  17.208   4.521   2.720 -0.2048 -0.1394 -0.2701
31904W        W47798   3.705  12.087   0.695  0.1756  0.0105 -0.1920
31905W        W47799   6.536  17.630  14.139 -0.0581 -0.0485 -0.1657
31906W        W47800  11.330  14.106  12.817  0.2421  0.1109 -0.3068
31907W        W47801   1.334   7.850   0.870  0.0276 -0.1012  0.1879
31908W        W47802  16.361   0.314   4.246 -0.0238 -0.0650 -0.1019
31909W        W47803   1.750   4.614   2.528  0.1119  0.0880 -0.2132
31910W        W47804   1.040  16.279   4.506 -0.0117 -0.0406 -0.0129
31911W        W47805   8.604  13.521  14.499  0.2832 -0.1708  0.1776
31912W        W47806   9.822   5.957   5.128 -0.3759  0.0523 -0.1009
31913W        W47807  10.223  16.796   3.845 -0.1042 -0.3272  0.0054
31914W        W47808   3.860   7.166   6.210 -0.1287 -0.0527 -0.0370
31915W        W47809   5.825   1.656   4.414 -0.1170  0.3569  0.2749
31916W        W47810   2.567  15.444  16.125 -0.0995 -0.1114  0.2447
31917W        W47811  11.158  17.616   2.218  0.0036  0.0337 -0.0551
31918W        W47812  11.399  15.084  14.755 -0.1602  0.2247 -0.2023
31919W        W47813  16.804   2.587  15.850  0.0363 -0.0113  0.4124
31920W        W47814   4.751   3.219  12.133  0.1010  0.0422  0.1849
31921W        W47815   6.477  16.518   0.479  0.0091 -0.2320 -0.0163
31922W        W47816   3.042   6.957  16.872 -0.1835 -0.4050  0.1069
31923W        W47817   8.646   7.093  17.157 -0.2363  0.2448  0.0163
31924W        W47818   6.431   3.977   4.496 -0.0470  0.1560  0.2044
31925W        W47819   5.422  10.732  14.236 -0.2756  0.2215  0.4632
31926W        W47820   8.647  14.335   1.693  0.1185 -0.2644 -0.3130
31927W        W47821   5.247  11.506   3.556 -0.0234 -0.0839 -0.2242
31928W        W47822   1.135   6.377  14.913 -0.1892  0.0237  0.2448
31929W        W47823   7.490   6.980   3.170 -0.2014 -0.1862 -0.4398
31930W        W47824   7.329   9.694   5.053  0.2087  0.1342 -0.0064
31931W        W47825  13.424   5.958   3.992  0.1819 -0.0741 -0.0541
31932W        W47826   1.759   2.388   3.821 -0.0097 -0.0656 -0.0249
31933W        W47827   0.878  14.613  12.676 -0.2922 -0.1372 -0.1553
31934W        W47828   6.950  14.806  13.550  0.0481  0.0066  0.0807
31935W        W47829   2.874   2.945  14.840 -0.1964 -0.0685  0.2326
31936W        W47830   4.121   3.552  14.609 -0.0589 -0.4390  0.2244
31937W        W47831  11.966   6.444  11.455 -0.2379 -0.1784  0.0585
31938W        W47832   8.435   1.110  16.865 -0.0567  0.1947 -0.0463
31939W        W47833   8.201   6.051  13.778  0.0965  0.2078 -0.0639
31940W        W47834   9.264  15.799  16.737 -0.1123 -0.0347 -0.1835
31941W        W47835  15.184  13.399   4.880 -0.1430  0.0305 -0.2494
31942W        W47836   8.236  15.796  16.234  0.0162 -0.1033 -0.0237
31943W        W47837  11.215   6.201  16.761 -0.1901 -0.1240  0.0738
31944W        W47838   6.947  13.642   2.232  0.0255 -0.0254 -0.0400
31945W        W47839  13.133  11.130  10.515 -0.0086 -0.1026 -0.0992
31946W        W47840   9.877   1.885  13.996  0.1289 -0.0772 -0.2898
31947W        W47841   0.650  11.887  12.271  0.1270 -0.1838  0.1947
31948W        W47842  16.912  13.540   3.123 -0.1920  0.4120 -0.0955
31949W        W47843   1.344  17.470   1.242 -0.2738  0.2534  0.3664
31950W        W47844  17.371   8.940  14.763 -0.5694 -0.0887  0.1441
31951W        W47845  11.013  10.731  14.161 -0.1069  0.3721 -0.0106
31952W        W47846   7.719   4.528   0.894 -0.0988  0.1380  0.3149
31953W        W47847  15.071  15.802   0.918 -0.1232 -0.1407  0.1597
31954W        W47848   3.847  11.857  15.297  0.0814 -0.1342  0.0022
31955W        W47849  15.771   3.468   5.623  0.0614  0.1628  0.0885
31956W        W47850   9.037   9.497  15.260 -0.2745 -0.0478 -0.1761
31957W        W47851   2.992  14.871   2.290  0.0356 -0.4123  0.1208
31958W        W47852  14.021   6.599  13.340 -0.2546  0.1957 -0.3090
31959W        W47853   7.990   9.729  13.054 -0.0401  0.1872  0.4219
31960W        W47854   4.813   6.029   3.408 -0.1139  0.5200 -0.0857
31961W        W47855   3.477  14.287  16.678 -0.1364  0.1159  0.0342
31962W        W47856   5.014   8.996   6.211 -0.4479  0.0520 -0.0718
31963W        W47857  10.587   8.277  15.698  0.1141  0.0633 -0.2825
31964W        W47858  15.479   0.315  15.590  0.3401  0.1445 -0.1307
31965W        W47859  13.544  13.984   5.269  0.0456 -0.1951 -0.4106
31966W        W47860  10.847   9.016  16.434 -0.2769 -0.0032 -0.2129
31967W        W47861   0.533   2.190   3.351 -0.0587 -0.1069 -0.0315
31968W        W47862   8.371   9.231   3.873 -0.0695 -0.1065  0.1141
31969W        W47863   9.432  10.023   4.794  0.3468 -0.0244  0.1893
31970W        W47864  17.448  15.503   5.172  0.0716 -0.1379  0.3013
31971W        W47865   0.743   2.865  15.024  0.1146  0.0608  0.1024
31972W        W47866  13.951   6.891  16.049 -0.0285  0.0089  0.1678
31973W        W47867   8.568   9.647   5.639 -0.2714 -0.0417  0.3205
31974W        W47868  14.002   9.145   1.196  0.1888  0.1153  0.0596
31975W        W47869   9.670   7.424   0.433  0.0094 -0.0762  0.0854
31976W        W47870   6.805   7.189  12.212 -0.0023 -0.0104 -0.2175
31977W        W47871   5.355   1.312   3.671 -0.0665  0.1125  0.0699
31978W        W47872   4.121  16.309  16.994  0.0404 -0.0524  0.2522
31979W        W47873   7.675   5.334   5.256 -0.1375  0.1044  0.4720
31980W        W47874   8.378   8.536  13.772  0.2374  0.1606 -0.1131
31981W        W47875   4.257  10.443   5.575 -0.0932 -0.0207 -0.0366
31982W        W47876  17.239   6.431   0.014  0.2371  0.1481  0.0516
31983W        W47877   3.132   6.120   6.402 -0.0849 -0.0585  0.2022
31984W        W47878   3.330  15.586  16.063  0.0179  0.1109  0.1445
31985W        W47879   9.307   6.845  11.338  0.1474  0.0902  0.1009
31986W        W47880   6.084   5.217  15.041 -0.2151  0.1419 -0.2595
31987W        W47881  16.440   7.665  15.373 -0.1115 -0.0396  0.0302
31988W        W47882   8.023   2.682   0.187 -0.1535  0.0780 -0.1428
31989W        W47883  17.111   8.599   1.785 -0.0550 -0.0374 -0.0702
31990W        W47884  16.588  16.889  12.581 -0.1207  0.2826  0.1341
31991W        W47885  16.806  13.078  12.579 -0.0132  0.1324  0.2403
31992W        W47886   6.160   2.723   4.962 -0.0716  0.0936  0.0281
31993W        W47887   2.937   3.495   1.782 -0.3231  0.0463  0.0129
31994W        W47888  15.813   6.083  14.570 -0.3659 -0.0019  0.1410
31995W        W47889   1.902  12.248  14.003  0.0024 -0.1453 -0.0138
31996W        W47890   3.029  15.472   4.769  0.1259 -0.2786  0.0971
31997W        W47891  14.444   5.547   4.445 -0.1097  0.1003 -0.0622
31998W        W47892  14.260  15.358  15.420  0.1052 -0.1913  0.4197
31999W        W47893   6.024  11.832  13.473 -0.2123 -0.0618 -0.0812
32000W        W47894  16.287  15.797   0.396  0.2128  0.1347  0.0456
32001W        W47895  15.886   9.424  13.038 -0.0111 -0.0802 -0.1086
32002W        W47896  14.351  15.381  13.478  0.0342  0.0263 -0.1779
32003W        W47897   6.893  13.318  14.856 -0.0930 -0.2772  0.0168
32004W        W47898  15.444   5.577  12.940 -0.2607 -0.0286 -0.0814
32005W        W47899  16.389  15.117  13.710 -0.1513  0.0245 -0.2584
32006W        W47900  11.582  12.880   4.478  0.2342  0.0798  0.2440
32007W        W47901   3.307   7.489  14.095  0.1511 -0.1500 -0.1285
32008W        W47902  11.771   1.807   4.317 -0.1093 -0.0831  0.3065
32009W        W47903   6.615   4.111   3.533  0.2029  0.2271 -0.0621
32010W        W47904  16.564   7.096   1.984 -0.1645  0.1757  0.1105
32011W        W47905   6.747   0.521   0.818 -0.1322 -0.0036  0.1485
32012W        W47906   5.806   2.360   6.435 -0.1120 -0.1387  0.1712
32013W        W47907   9.140   1.822  17.209  0.1340 -0.1021  0.1620
32014W        W47908  13.952   9.984   3.952 -0.0331  0.0897  0.1148
32015W        W47909   4.707  10.746   4.283 -0.3107  0.1827  0.2921
32016W        W47910   1.060   6.421   0.683  0.3012 -0.5513  0.2272
32017W        W47911  16.039   9.674  12.096  0.3041  0.1993 -0.0866
32018W        W47912  13.287  12.138   4.903  0.0178 -0.0547 -0.0308
32019W        W47913  10.088   0.219  16.077 -0.3479  0.1497 -0.1053
32020W        W47914  15.896   1.755   5.984  0.0639 -0.3728 -0.0627
32021W        W47915  12.598  10.025   3.114  0.0748 -0.1928  0.2431
32022W        W47916   2.052  12.703   0.949  0.1556 -0.0126 -0.4128
32023W        W47917   3.762  17.162  14.898 -0.1249 -0.3389  0.1368
32024W        W47918  16.861   2.051   6.046 -0.0431 -0.0273 -0.0899
32025W        W47919   0.548  14.279   0.579  0.1230  0.0451 -0.0764
32026W        W47920   8.238  17.168   5.041 -0.2074  0.1201 -0.0221
32027W        W47921   4.367  15.148  15.239  0.1178  0.2286 -0.0148
32028W        W47922  12.207   1.862  13.508  0.1580  0.0429 -0.2007
32029W        W47923  14.466  16.224  12.804  0.0128  0.1392 -0.3684
32030W        W47924   0.449   9.662   4.295  0.2067 -0.3296 -0.0654
32031W        W47925  11.934  10.828  17.142 -0.1480 -0.2681  0.1728
32032W        W47926   8.238   6.129  14.281 -0.2698  0.0474  0.0389
32033W        W47927   6.531  13.064  12.001 -0.2953  0.3206 -0.1683
32034W        W47928   2.522   1.970  17.282 -0.1133 -0.2088 -0.0742
32035W        W47929   5.419  11.193   0.567 -0.3011  0.0496  0.2658
32036W        W47930  11.444  16.681   3.909  0.2944  0.0198  0.1839
32037W        W47931  12.606   2.842  12.581 -0.0077  0.1323  0.0432
32038W        W47932  11.944   9.979   0.404 -0.2331 -0.3226 -0.3169
32039W        W47933  11.358  14.515  15.456  0.0539  0.4110 -0.0432
32040W        W47934  14.499   4.720   4.467 -0.0263  0.0562 -0.1627
32041W        W47935   6.419  15.315  15.128  0.0823 -0.2701  0.0489
32042W        W47936   9.918   8.813  12.717 -0.1863  0.2342 -0.2204
32043W        W47937  11.229   5.924   3.078 -0.1266  0.0354  0.0048
32044W        W47938   6.615  11.374  12.201  0.0733  0.0246 -0.1003
32045W        W47939   3.770   6.195  14.371 -0.1376 -0.1182  0.0340
32046W        W47940  14.342   5.974  11.155  0.0387 -0.0193 -0.0401
32047W        W47941   6.066   2.149   4.952 -0.1753 -0.0075 -0.1748
32048W        W47942   4.247   1.881   4.791  0.2721  0.2749  0.1199
32049W        W47943   9.801   3.577  15.716  0.0282 -0.3518  0.0986
32050W        W47944  11.658  10.198   1.114 -0.1232  0.0775 -0.0964
32051W        W47945  12.108   0.374  14.163 -0.2914  0.1510  0.3392
32052W        W47946  12.992   0.255   2.793  0.0561 -0.2333 -0.0794
32053W        W47947  13.893   8.717   0.801 -0.1550  0.2153 -0.0995
32054W        W47948   7.181   7.503   2.190  0.1256 -0.0223  0.0211
32055W        W47949  12.164   3.590   2.975  0.1993  0.3058 -0.2548
32056W        W47950  15.019   5.085  14.909 -0.1855 -0.0290  0.0096
32057W        W47951   6.771   9.110  17.025  0.0219  0.0670  0.2246
32058W        W47952   2.069  13.736  15.142 -0.0643  0.1463  0.1746
32059W        W47953   2.095   1.858  14.440  0.0862 -0.2163 -0.0414
32060W        W47954  16.757   6.326   5.566  0.1545  0.0926  0.0022
32061W        W47955   9.794   8.752  13.949 -0.3080 -0.1830 -0.2004
32062W        W47956   8.181  14.069  12.335  0.2419 -0.1919  0.0393
32063W        W47957  10.410   3.161   3.604  0.0899 -0.2643  0.1028
32064W        W47958   8.592  10.089  16.444  0.3893  0.0618 -0.0590
32065W        W47959   9.292   3.586  16.091  0.0759 -0.4067  0.1009
32066W        W47960  10.601   4.580   2.180 -0.2831 -0.1824  0.1560
32067W        W47961   6.213   7.409   2.895  0.1125 -0.2858 -0.2383
32068W        W47962  13.676   2.689  13.820  0.2099  0.1923  0.2384
32069W        W47963   5.765   4.916  14.706 -0.0319  0.3683 -0.0393
32070W        W47964  15.731   9.366   3.911  0.0327 -0.2177  0.0892
32071W        W47965   7.043  11.132   0.240 -0.3012  0.1358 -0.0422
32072W        W47966  15.956  10.057  11.799  0.0565  0.1050 -0.2560
32073W        W47967   3.446   0.832  16.839 -0.1277 -0.0193  0.1293
32074W        W47968  14.417   4.506   2.703 -0.3210  0.0974 -0.1671
32075W        W47969   2.524  16.992   2.814 -0.1377 -0.1340  0.2175
32076W        W47970  15.147   1.285  14.191  0.0423 -0.2006  0.1285
32077W        W47971   2.588   3.254  13.176  0.3651 -0.0420  0.1942
32078W        W47972  13.426   0.678   0.882  0.2774  0.0714  0.1455
32079W        W47973  10.158   3.826  11.537  0.0220 -0.0182 -0.1570
32080W        W47974  17.296  12.494   5.884  0.3716  0.1521 -0.0986
32081W        W47975  16.124   5.763   3.290 -0.0573  0.2967  0.0603
32082W        W47976  15.049   7.328  13.307  0.0557 -0.3018  0.0669
32083W        W47977  14.040   3.405  15.555 -0.3093 -0.0844 -0.0543
32084W        W47978  13.237   4.241  12.107  0.0089  0.1803  0.1425
32085W        W47979   8.933  11.526  11.794 -0.1814  0.3738 -0.0457
32086W        W47980  10.105  17.166   5.180 -0.1863 -0.1046 -0.1508
32087W        W47981   2.382   7.277   1.878 -0.1247  0.0991 -0.3492
32088W        W47982  15.633  10.444  16.262 -0.3014 -0.1910  0.4059
32089W        W47983  13.037   5.393  14.121 -0.5243 -0.2326  0.0889
32090W        W47984  15.667   6.448   4.814 -0.0975 -0.0631  0.1982
32091W        W47985  14.543   5.696   5.431  0.0426  0.0253  0.1117
32092W        W47986  16.716   2.920   4.551  0.0137 -0.0792 -0.0229
32093W        W47987   8.698  14.678   0.292  0.0963  0.0755 -0.3219
32094W        W47988   3.075  10.489  14.421  0.1526  0.2860  0.0801
32095W        W47989   0.464   4.617   0.950  0.1951 -0.0452  0.3044
32096W        W47990   0.129   1.784  13.724 -0.2283  0.1151 -0.2007
32097W        W47991  15.446   3.715   4.820  0.3427 -0.1186 -0.0682
32098W        W47992   3.131   1.650  14.758  0.0189  0.0165 -0.1349
32099W        W47993   4.297   6.108  12.657 -0.0821  0.1222  0.0715
32100W        W47994   4.131   4.944   5.940 -0.3532 -0.1953 -0.0933
32101W        W47995   6.754  17.545   1.376  0.2986 -0.0122 -0.0790
32102W        W47996   2.633   9.155  11.397 -0.0465 -0.0257  0.0455
32103W        W47997  16.242   0.315  12.156  0.0408  0.0680 -0.2447
32104W        W47998   9.637  15.574  13.808 -0.0308  0.1156  0.0266
32105W        W47999  16.822  12.966  15.258 -0.3037 -0.1560 -0.1085
32106W        W48000   6.882  15.749  12.924  0.1799 -0.1750 -0.0535
32107W        W48001  15.653  15.115   2.030 -0.0897  0.3226  0.0087
32108W        W48002   6.347  16.026  13.992 -0.2147 -0.1862 -0.1655
32109W        W48003   0.335  15.600  17.180 -0.2825 -0.2659  0.2461
32110W        W48004   9.627   4.543  15.660  0.4254 -0.0502  0.2258
32111W        W48005  13.548   6.057   2.162  0.2883  0.3791  0.0717
32112W        W48006  12.947   5.585  16.101 -0.0707  0.0005  0.0091
32113W        W48007  15.845   8.335   6.602  0.2966  0.0890  0.0038
32114W        W48008  11.782   0.651  16.385 -0.0930 -0.0120  0.1401
32115W        W48009   5.710   0.914   4.874  0.1822  0.1194 -0.0511
32116W        W48010   3.770   5.749   6.161  0.1428 -0.1876  0.1289
32117W        W48011   8.438   0.193   0.249  0.0014 -0.2559  0.0948
32118W        W48012  12.851  14.234  16.898 -0.0568 -0.3189 -0.0091
32119W        W48013  17.212   6.713  12.276 -0.0672 -0.2723  0.0307
32120W        W48014  13.450  11.395  16.815 -0.1020  0.0451  0.1092
32121W        W48015  12.067  12.762   0.473 -0.0535 -0.1445 -0.0282
32122W        W48016   7.143   8.299  13.656 -0.0417  0.0846  0.1550
32123W        W48017   9.931   1.357   4.965  0.0034  0.0281 -0.2728
32124W        W48018  16.266  16.245   3.446 -0.0505  0.1969  0.1439
32125W        W48019  16.734  11.790   5.651  0.2187  0.4363 -0.2171
32126W        W48020  10.026  17.512   2.373  0.1986 -0.2215  0.0197
32127W        W48021  12.165   5.592  14.116 -0.3520 -0.2266  0.1970
32128W        W48022  17.627   4.579   1.726 -0.1025  0.2442  0.2374
32129W        W48023   3.585   9.710  16.043 -0.2712  0.0458 -0.0295
32130W        W48024   1.831   7.727   6.292 -0.0849  0.1948 -0.2093
32131W        W48025   8.142   1.601  15.768 -0.2510  0.0916  0.0527
32132W        W48026  15.857  11.136   4.131 -0.0111 -0.1636  0.0016
32133W        W48027  14.332   2.115  16.348  0.1607 -0.1319 -0.0565
32134W        W48028  10.535  10.102  11.524 -0.1669 -0.0596  0.1040
32135W        W48029   0.707   9.476   1.566 -0.2652  0.0024 -0.0456
32136W        W48030   7.320  13.519  16.520 -0.1850 -0.1745  0.4408
32137W        W48031   0.428   6.841  16.188  0.3075  0.1376  0.2875
32138W        W48032  15.852  16.420   2.692  0.0520 -0.1433  0.0050
32139W        W48033   0.351  12.802  15.990  0.2813 -0.1079  0.0020
32140W        W48034  14.482   0.010   2.413 -0.1937  0.0755  0.0729
32141W        W48035   6.714   7.033  16.865 -0.1223  0.1683 -0.2577
32142W        W48036  13.977   3.662   2.507 -0.3347 -0.2160 -0.1983
32143W        W48037   9.645   8.239   0.519 -0.0025 -0.1235 -0.0874
32144W        W48038  15.273  12.967   1.094  0.0861  0.1218 -0.1149
32145W        W48039  16.793   8.034   1.096  0.0658  0.1989  0.1737
32146W        W48040  12.238  17.167   2.256  0.1149  0.2943 -0.0958
32147W        W48041   6.931  14.125   2.119 -0.1402 -0.0056 -0.1443
32148W        W48042   5.115   6.998   5.538 -0.3469 -0.0242  0.4666
32149W        W48043   3.520  12.828   5.286  0.1675  0.1792  0.1387
32150W        W48044   2.703   3.157  13.977 -0.0745  0.0159 -0.1126
32151W        W48045  13.976   2.284   0.881  0.0551 -0.1478 -0.0889
32152W        W48046   2.453   0.091   3.098 -0.0059 -0.1931  0.0281
32153W        W48047  11.682   0.665   5.151 -0.2059 -0.2838  0.1702
32154W        W48048  15.663   2.667  14.996 -0.0611 -0.0681 -0.0549
32155W        W48049   9.754  17.294   4.082  0.1047 -0.2064  0.0341
32156W        W48050  11.398   2.134   0.429 -0.2937  0.1227  0.2714
32157W        W48051   1.299   6.278   3.906  0.0472  0.3579 -0.2155
32158W        W48052  11.343  16.721   4.461  0.0481  0.2700 -0.1185
32159W        W48053  11.116   1.389  11.816  0.3513  0.0882  0.0414
32160W        W48054   5.107  16.375   5.238  0.2931 -0.0727  0.1221
32161W        W48055  12.090   9.657   0.777 -0.1224 -0.2442  0.0982
32162W        W48056  15.778  11.658   2.554 -0.0141  0.0727 -0.3131
32163W        W48057   9.285  13.746  13.839  0.0161 -0.2129 -0.0787
32164W        W48058   5.938  17.571   3.436  0.0819 -0.3439 -0.0572
32165W        W48059  17.509   2.484   4.747 -0.1958 -0.0622 -0.0575
32166W        W48060   7.923   5.731   1.393 -0.1243 -0.0437 -0.1259
32167W        W48061  17.138   7.874   3.681 -0.0098  0.1434 -0.0014
32168W        W48062  13.655  11.358  13.544 -0.1690  0.2139 -0.1446
32169W        W48063  12.425   4.983   1.682  0.1804  0.1527  0.1278
32170W        W48064   3.779  16.576  12.417  0.1150  0.0184 -0.0710
32171W        W48065   1.454   1.688  13.099  0.2152  0.1803  0.0703
32172W        W48066   3.393   3.421   0.933 -0.1519  0.1366 -0.1159
32173W        W48067   7.650  13.894  14.298  0.1052 -0.1395  0.2885
32174W        W48068  14.513   2.238  13.735  0.3834  0.1364 -0.1485
32175W        W48069  14.844   8.798  17.081 -0.0539  0.0854 -0.2674
32176W        W48070  11.522   3.782  15.467  0.1111  0.2556 -0.2016
32177W        W48071   2.620   1.463   1.992 -0.1499  0.0828 -0.2339
32178W        W48072   9.294  16.089   3.876  0.1670 -0.0361  0.1996
32179W        W48073  11.406   2.254   3.461  0.0431 -0.0424 -0.0428
32180W        W48074  16.042   9.102   5.861 -0.1067  0.2093  0.2415
32181W        W48075   1.636   7.818  16.573  0.0048  0.3708 -0.0979
32182W        W48076   8.015  16.406   2.227  0.0137 -0.0610  0.0369
32183W        W48077  10.910   1.327   5.827  0.0881  0.0790  0.0264
32184W        W48078   3.705  17.484   3.258  0.1287  0.2658 -0.4464
32185W        W48079  16.941  16.176  13.097  0.0429 -0.3141 -0.2091
32186W        W48080  11.835   5.852  16.280 -0.1499  0.0338  0.1021
32187W        W48081  10.702   9.348  15.782 -0.2570  0.0293  0.2906
32188W        W48082   1.987   2.003   3.045 -0.0893 -0.1280  0.1268
32189W        W48083  15.088   4.355  12.642  0.1988 -0.0020 -0.0235
32190W        W48084  16.812   4.482  12.836 -0.0826 -0.1754 -0.0599
32191W        W48085   8.214   9.056  11.394  0.0201 -0.2204  0.2048
32192W        W48086   5.103  12.044  15.448  0.1181 -0.1826 -0.1022
32193W        W48087   1.012  17.295   4.262  0.0639 -0.0970  0.2314
32194W        W48088  15.972  11.108   5.549 -0.1063 -0.0743  0.2222
32195W        W48089   3.339  14.848  14.651 -0.1041  0.0640 -0.0344
32196W        W48090  12.779   6.803   0.971 -0.2122  0.1452  0.0045
32197W        W48091  12.979   0.658  14.883  0.2081 -0.1465  0.0699
32198W        W48092   4.639   9.108   2.580  0.0663 -0.0243  0.0661
32199W        W48093   3.522   7.538  13.327 -0.1787 -0.0909 -0.2197
32200W        W48094  14.012   7.070  16.780  0.2647  0.0655  0.0537
32201W        W48095  13.063  12.496  11.975 -0.2615  0.1175  0.0578
32202W        W48096   3.184  10.848  12.618  0.5876 -0.3360  0.0216
32203W        W48097   8.885   7.200  15.868 -0.0582 -0.2746 -0.0776
32204W        W48098   9.431  11.508   2.762  0.0259 -0.1049 -0.0521
32205W        W48099   5.738   8.515   1.165 -0.2259 -0.1269 -0.0149
32206W        W48100  11.948   5.672   0.603 -0.0108  0.0766  0.0128
32207W        W48101  14.673  13.016   4.303  0.1353 -0.0377 -0.0620
32208W        W48102   9.444   8.399   3.077  0.0502  0.0827  0.3677
32209W        W48103   1.329   4.874  15.773 -0.2455 -0.1303  0.1730
32210W        W48104   9.245   0.048   2.896  0.4143 -0.2095 -0.2226
32211W        W48105  13.655   8.043  13.098  0.0227 -0.0570 -0.0642
32212W        W48106  14.293  15.770  14.710  0.0996 -0.1053  0.1777
32213W        W48107  14.085  14.871   6.232 -0.4042  0.0681  0.0224
32214W        W48108   2.645   3.348  15.131 -0.0263  0.2079  0.0324
32215W        W48109  15.648  13.060  15.381 -0.1883  0.0938  0.0233
32216W        W48110  12.217   7.312   4.558  0.4219  0.2975 -0.2000
32217W        W48111   0.487  12.427  15.128  0.1851 -0.0711  0.0218
32218W        W48112  14.464  14.863  14.953 -0.0694 -0.1239  0.1264
32219W        W48113  13.119  11.541   3.941  0.2552 -0.0822 -0.0893
32220W        W48114   8.792  12.385   4.561  0.0161 -0.0140 -0.3607
32221W        W48115   7.231  11.428  13.915 -0.0791  0.0768 -0.2175
32222W        W48116   9.036   2.478  12.356 -0.0644  0.0148  0.3259
32223W        W48117  14.209   0.420  12.038 -0.0416  0.0393 -0.1589
32224W        W48118  17.182   1.005  15.058  0.1974 -0.0240 -0.0283
32225W        W48119  17.081  14.864   2.533  0.0412 -0.3270  0.0030
32226W        W48120  13.947  15.258   1.542 -0.1531  0.0132  0.1022
32227W        W48121   4.522   1.331   2.423 -0.1837 -0.0939  0.0144
32228W        W48122  17.147   1.864  12.344  0.2964 -0.0223  0.1529
32229W        W48123   8.206   1.701  12.694  0.3948  0.1955  0.0921
32230W        W48124   5.744  12.820  15.028 -0.2544  0.0562 -0.3504
32231W        W48125  10.379   5.736  15.281  0.3754  0.1059 -0.1320
32232W        W48126   1.808   1.807  16.887  0.2230 -0.0446  0.3033
32233W        W48127   0.067  10.092  15.527  0.2285  0.1809 -0.0960
32234W        W48128  15.097  12.011  13.435  0.0411 -0.0180  0.1485
32235W        W48129   9.209  14.095  16.035  0.2241 -0.2302  0.0766
32236W        W48130  10.016   4.433  12.728  0.1375 -0.0036  0.0481
32237W        W48131   4.416  15.205   4.800  0.1315 -0.2467  0.4180
32238W        W48132   6.622  13.497   3.515 -0.0863  0.2123  0.0343
32239W        W48133   7.969   3.183  12.588  0.1818 -0.0377 -0.2725
32240W        W48134  14.254  13.350   0.082 -0.1418 -0.1099  0.1592
32241W        W48135   0.611  17.469   6.662  0.0054 -0.0493 -0.2197
32242W        W48136  13.981  11.874  14.237  0.4233 -0.3211 -0.1713
32243W        W48137  16.284  17.481  13.431  0.3536 -0.0786 -0.0063
32244W        W48138  14.855   6.430   1.363  0.2072  0.2179  0.3100
32245W        W48139   3.255   8.098   0.034 -0.0216 -0.2253  0.3142
32246W        W48140   7.050  15.008  16.166  0.1113 -0.0659  0.1319
32247W        W48141   1.357   8.185   1.223  0.0278  0.2284  0.3029
32248W        W48142   2.367   3.861  16.921 -0.2599  0.3511 -0.2970
32249W        W48143  10.361  13.318   4.751 -0.0718  0.0143 -0.1799
32250W        W48144   2.640   0.308   4.869  0.0624  0.0819 -0.1743
32251W        W48145   0.106  10.421  11.948 -0.0209 -0.0486 -0.1322
32252W        W48146   8.423   3.799  16.681 -0.0492 -0.1549 -0.2937
32253W        W48147  16.867  13.696   1.119 -0.1602 -0.0366 -0.0240
32254W        W48148  11.755   0.304   2.599 -0.3232  0.1590 -0.2965
32255W        W48149  10.550   3.400   2.947 -0.1746  0.0015 -0.0523
32256W        W48150   6.797   9.510   1.683  0.0259 -0.0665  0.0179
32257W        W48151  10.195   9.775  11.171  0.0886 -0.1193 -0.0184
32258W        W48152  12.424  17.535   0.512  0.1037  0.1675 -0.0178
32259W        W48153   5.080  14.077   4.716 -0.1667  0.1348 -0.1946
32260W        W48154   9.436  11.302  12.672 -0.2200 -0.0393 -0.0231
32261W        W48155   9.453  13.184  12.605  0.0283 -0.3483  0.1208
32262W        W48156  10.494  15.514   5.344 -0.2783 -0.0316 -0.1620
32263W        W48157   3.783  11.259   0.467 -0.2336 -0.0132 -0.1362
32264W        W48158  15.706   4.835  14.964  0.3178 -0.0167 -0.1063
32265W        W48159  14.165  11.560   0.904 -0.1799 -0.1129 -0.0066
32266W        W48160  16.061  17.058  13.191 -0.0952  0.1006  0.0089
32267W        W48161  15.942   8.146   4.861 -0.1347  0.1987  0.0135
32268W        W48162   1.134  12.008  16.817 -0.2416 -0.0623 -0.0674
32269W        W48163  11.758   9.274   5.202  0.0970 -0.0916  0.0199
32270W        W48164  14.275   1.026   2.491  0.0450  0.0032 -0.0595
32271W        W48165   3.598   9.844   2.430  0.1119  0.1253  0.3970
32272W        W48166  10.344   6.122  16.545 -0.1414  0.1905 -0.3153
32273W        W48167  12.020  12.366  12.132 -0.4400  0.1139  0.0543
32274W        W48168   7.079  10.736   1.047  0.2353  0.2025 -0.0335
32275W        W48169   9.131  13.761   4.213  0.0808 -0.0398 -0.2261
32276W        W48170   1.461   4.462  15.440 -0.1648  0.2185  0.0753
32277W        W48171   1.232  12.443   6.058 -0.1371 -0.1043 -0.0033
32278W        W48172   8.812   3.481  15.989 -0.2124  0.1514 -0.2870
32279W        W48173   3.689   2.668  16.108 -0.1901 -0.1762 -0.1537
32280W        W48174   0.408  17.602  17.258 -0.0585 -0.4454  0.1487
32281W        W48175  14.073   0.237  16.059 -0.0154 -0.2495  0.3788
32282W        W48176   3.161   8.982   6.045 -0.0122 -0.0846  0.0919
32283W        W48177   0.128   5.565   4.606 -0.2062  0.0754 -0.0687
32284W        W48178   6.548   6.135   2.771 -0.2219  0.0158 -0.0159
32285W        W48179   3.755  14.410   5.244 -0.1706 -0.0411 -0.1588
32286W        W48180   1.905   0.878  14.147 -0.1502 -0.1357 -0.0456
32287W        W48181  13.707   4.339   1.545 -0.1638 -0.2847 -0.1300
32288W        W48182  17.333   9.425   4.890  0.2518 -0.0447  0.2721
32289W        W48183   5.490   8.337   1.618 -0.0651  0.1486 -0.0188
32290W        W48184  15.602  11.958   3.094  0.3609  0.2662 -0.1187
32291W        W48185   1.427  13.460   5.391  0.1107  0.1096 -0.1092
32292W        W48186   0.267  13.701  17.067 -0.0576 -0.3444 -0.0023
32293W        W48187   1.006  10.975  13.870  0.1363 -0.0603  0.1332
32294W        W48188  12.562   3.635  11.991 -0.0988  0.2666 -0.0237
32295W        W48189   2.704  14.212   0.730  0.0142  0.0268 -0.4105
32296W        W48190   3.058  17.315  12.407 -0.1248 -0.1277 -0.0660
32297W        W48191  13.502   6.510   0.782  0.3244  0.0941  0.0459
32298W        W48192  17.490  16.031   3.340  0.4011  0.1352  0.1075
32299W        W48193   8.362  11.533  16.265  0.0944 -0.2488 -0.0917
32300W        W48194  15.312   5.673   1.493 -0.0437  0.3492 -0.0447
32301W        W48195   5.239   2.889  11.250  0.1599 -0.2457 -0.0669
32302W        W48196  15.429   8.111  15.602  0.1986 -0.1765  0.1478
32303W        W48197  10.249   3.682   2.657 -0.2461  0.1272  0.3122
32304W        W48198   0.411   6.623   5.001 -0.1034  0.1289  0.1685
32305W        W48199  12.525   0.839   2.103  0.0783  0.1375 -0.3272
32306W        W48200   3.312  16.836  13.226 -0.1392  0.0906  0.2961
32307W        W48201   6.588   0.490   1.792  0.2381  0.1734 -0.0790
32308W        W48202  11.490   5.643   3.590 -0.4100  0.0248  0.1766
32309W        W48203   9.469   6.222  12.022 -0.0222 -0.1948  0.3499
32310W        W48204   5.978   1.356  15.224  0.0619 -0.0550 -0.0346
32311W        W48205   7.520   4.418   1.806  0.0075  0.0876  0.1546
32312W        W48206  16.211   9.994   0.220  0.1853 -0.1819 -0.1482
32313W        W48207   8.205   2.196   5.023  0.0203  0.2653 -0.2308
32314W        W48208  17.402   3.491   0.099  0.0998 -0.0540  0.1199
32315W        W48209  11.444  11.776  13.230 -0.1338 -0.0097 -0.1670
32316W        W48210  16.751  12.633   0.265 -0.0532  0.0396 -0.1165
32317W        W48211  10.060   1.985   3.499  0.1792  0.0166 -0.0040
32318W        W48212  14.948   9.968  13.963  0.1858  0.0706  0.2292
32319W        W48213  12.684   8.925   5.185 -0.2007  0.0454 -0.0236
32320W        W48214  16.669   0.886   3.501 -0.1555 -0.2453  0.2088
32321W        W48215   1.127   7.217  15.572  0.1853  0.2057 -0.2055
32322W        W48216   9.817   5.439  13.760 -0.1352 -0.0352  0.0134
32323W        W48217  10.152  17.224   2.957 -0.2273  0.1443 -0.0128
32324W        W48218  14.094   7.247   0.736 -0.1001 -0.0594 -0.1776
32325W        W48219   5.948  15.724   2.460 -0.0408 -0.2924  0.1399
32326W        W48220   6.480   1.226  12.628 -0.1253 -0.1399  0.4322
32327W        W48221  16.629  13.182   0.224  0.0951 -0.0038  0.1625
32328W        W48222   5.581  14.732   2.080 -0.1818 -0.0522 -0.3048
32329W        W48223  10.010   0.396   3.956 -0.0268 -0.1206  0.2965
32330W        W48224   0.015  16.013  11.937 -0.0029 -0.1810 -0.1652
32331W        W48225  17.348  11.291  15.351 -0.1412  0.1255 -0.0311
32332W        W48226  11.588  15.954   3.100 -0.0029  0.1070 -0.1826
32333W        W48227   0.954   9.968   5.536  0.0084  0.0708 -0.0244
32334W        W48228  11.956   8.528  13.600  0.2412 -0.0515 -0.0147
32335W        W48229  10.385   6.937  13.441 -0.1249  0.2813  0.0410
32336W        W48230   4.619  16.318   5.575  0.0947  0.0585  0.2261
32337W        W48231  12.841   4.282   4.882 -0.1482  0.0715  0.2843
32338W        W48232   6.612  10.189  14.029 -0.1930  0.1763  0.1229
32339W        W48233   6.095  14.269   0.947 -0.1369 -0.5331 -0.2186
32340W        W48234  17.502   9.732   1.948 -0.2248 -0.0605 -0.0105
32341W        W48235   1.417   9.659   2.964 -0.0471 -0.1796 -0.0097
32342W        W48236   4.811   0.794  15.469  0.0939 -0.0985  0.1890
32343W        W48237  13.628   9.077  14.074  0.0227  0.1227  0.1496
32344W        W48238  15.047   2.496   4.904 -0.0451  0.1498  0.1763
32345W        W48239  12.233  12.265  14.177 -0.0525 -0.0704 -0.0423
32346W        W48240  15.624   0.839   2.445 -0.2120  0.2332 -0.0512
32347W        W48241  10.740   2.473  16.881 -0.1936 -0.0727 -0.1205
32348W        W48242  14.485   7.281   4.999 -0.0558 -0.2394  0.1572
32349W        W48243   2.554  10.487  14.642  0.0188 -0.1012  0.2172
32350W        W48244   9.805  11.464   1.063  0.0200 -0.3448  0.1104
32351W        W48245  17.333  14.646  15.542  0.5801  0.0258 -0.1523
32352W        W48246   2.666  13.512   6.167  0.1931 -0.0985 -0.2540
32353W        W48247  10.956  13.789  13.115  0.1274 -0.3271 -0.0200
32354W        W48248   3.425   5.326   4.127  0.1144  0.0120  0.0182
32355W        W48249   6.575  12.376   6.114  0.2609  0.4844  0.0832
32356W        W48250   3.874   4.492  14.424 -0.2580  0.0254 -0.2596
32357W        W48251   8.408  13.534  13.948 -0.3266 -0.1605 -0.1984
32358W        W48252  15.076   5.916   3.955 -0.0022  0.2553  0.2753
32359W        W48253   6.873  10.750   4.273  0.1319  0.3177 -0.2238
32360W        W48254   0.091   9.989   1.181  0.3304  0.0835  0.0991
32361W        W48255   2.523  15.059   4.122  0.1883  0.1290  0.0480
32362W        W48256   2.095  17.224   3.885  0.0176  0.1611 -0.1861
32363W        W48257  15.609  15.548  15.702 -0.3371 -0.0195 -0.1359
32364W        W48258   2.260   6.833   5.318  0.0541  0.1173  0.4400
32365W        W48259  16.619   9.842   3.878  0.1933 -0.0537 -0.1190
32366W        W48260   4.476   7.735  16.116 -0.0498 -0.0310 -0.1369
32367W        W48261  16.703   4.505  11.593 -0.0045 -0.4324 -0.1521
32368W        W48262   7.218  15.401   5.658 -0.1236 -0.2135 -0.1509
32369W        W48263   5.393   6.756  13.692 -0.0637 -0.2771 -0.1700
32370W        W48264   5.847   0.609  15.880  0.0659 -0.5576  0.0584
32371W        W48265  16.363  16.922   4.845  0.0906 -0.0480 -0.0166
32372W        W48266  10.725   4.442  14.063  0.0125 -0.0915 -0.0662
32373W        W48267  12.733   0.988   3.303 -0.0155  0.1351 -0.2283
32374W        W48268  16.562  16.997   1.515  0.1107  0.2801  0.2750
32375W        W48269   8.732   2.552   1.407 -0.0669  0.1173  0.0490
32376W        W48270  14.217   1.611   4.068 -0.1024  0.0816  0.1101
32377W        W48271   5.705   5.256   2.087  0.0913 -0.2514 -0.1052
32378W        W48272   4.274  15.585   6.007  0.1199  0.2588 -0.4161
32379W        W48273   0.226   4.006   6.423  0.1631  0.1130 -0.0960
32380W        W48274   2.901   9.071  15.875  0.3124  0.0742 -0.3217
32381W        W48275   5.157   8.729   5.835 -0.1915  0.1218 -0.0114
32382W        W48276   0.065  16.282  16.496 -0.1825 -0.1353  0.1685
32383W        W48277  11.918   1.595   1.238 -0.1202  0.0970 -0.3895
32384W        W48278  16.017   5.662   2.805  0.1265  0.4795 -0.0509
32385W        W48279  15.851  15.716   5.578  0.2684  0.1101 -0.0950
32386W        W48280   3.952   6.450  12.690  0.1258  0.1699  0.0000
32387W        W48281  12.706  10.310  16.451  0.2637 -0.1293  0.0194
32388W        W48282   4.693   9.424   3.801 -0.0118  0.0284 -0.3697
32389W        W48283  16.896  10.419   3.242 -0.0071 -0.2246  0.1438
32390W        W48284  15.703  10.452   2.371  0.1571  0.3458  0.1207
32391W        W48285  14.013  11.296   4.094  0.1570  0.1238 -0.0723
32392W        W48286   2.121  14.324  12.064 -0.0221 -0.0511  0.1307
32393W        W48287   1.824   6.689   0.134  0.0518  0.4314  0.2831
32394W        W48288  11.739   8.365   4.478 -0.0822 -0.1924  0.2248
32395W        W48289   1.490   7.928   2.327 -0.2174 -0.0682  0.1431
32396W        W48290   7.161  15.547   2.455 -0.2533 -0.0746  0.1054
32397W        W48291  12.936  13.038  16.149 -0.1472 -0.1256 -0.2143
32398W        W48292   7.570   2.059  13.714  0.4525  0.0386 -0.0438
32399W        W48293  17.257  12.701  15.516  0.0620  0.0288 -0.3123
32400W        W48294  13.569   4.342  13.498  0.0961 -0.1594  0.2202
32401W        W48295   9.595   4.014  15.786  0.2110  0.1533 -0.1471
32402W        W48296  13.566  12.529  12.795  0.0193 -0.0504  0.0434
32403W        W48297   6.511  11.196   0.498  0.3664 -0.0981 -0.2712
32404W        W48298  11.002   1.880  16.474 -0.0044 -0.2482 -0.1006
32405W        W48299   4.432  16.798   2.913  0.0302  0.3303  0.1764
32406W        W48300   3.441   1.944  13.147  0.1266 -0.0103 -0.0164
32407ION     NA48301  12.612  16.873  10.535 -0.0932  0.0915  0.1234
32408ION     NA48302  10.683   2.608  11.083  0.1945  0.2967  0.1550
32409ION     NA48303   6.415  14.534   6.292  0.0746 -0.1267 -0.4041
32410ION     NA48304   4.436  15.205   5.360  0.1736 -0.0330  0.0266
32411ION     NA48305  12.181   5.563  11.784 -0.2117 -0.0163  0.2035
32412ION     NA48306   5.672   5.492  11.252 -0.0464 -0.0346  0.1662
32413ION     NA48307  12.725  17.622  10.812 -0.0734 -0.0679  0.1886
32414ION     NA48308  16.166  14.910   2.752  0.0012 -0.1447  0.5196
32415ION     NA48309   9.764   4.270  12.279  0.0852 -0.1071 -0.0865
32416ION     NA48310  14.010  14.808  10.834 -0.3676 -0.2935  0.0818
32417ION     NA48311   6.734   7.514   3.936 -0.3100 -0.0754  0.0178
32418ION     NA48312  17.045  16.833   1.354 -0.0070 -0.1520 -0.1320
32419ION     NA48313   7.917  11.546  10.908  0.1250  0.2479 -0.2388
32420ION     NA48314  10.755  15.564   3.446  0.0278 -0.0204 -0.2546
32421ION     NA48315   1.354   2.456  11.238 -0.0540 -0.1816 -0.0461
32422ION     NA48316   3.737  16.968  14.085  0.2465  0.0551  0.0567
32423ION     NA48317  13.025  10.006   5.932 -0.0005  0.0853 -0.1237
32424ION     NA48318  16.120  16.578  11.162 -0.0206  0.1088 -0.4246
32425ION     NA48319  13.146   1.967  11.124  0.0941 -0.1325 -0.2299
32426ION     NA48320  12.524   7.910  10.381  0.1321  0.1559 -0.0542
32427ION     NA48321   2.820  11.303  12.338 -0.0189  0.0969 -0.0236
32428ION     NA48322   3.580  14.224  13.452  0.0087  0.0402 -0.2196
32429ION     NA48323   1.572   8.263  11.574  0.0030  0.0438  0.0132
32430ION     NA48324  16.366   0.899   3.051  0.0292 -0.3403  0.1677
32431ION     NA48325   8.523  10.362  10.923  0.2103  0.0078  0.2650
32432ION     NA48326  15.649  15.942  11.218 -0.1830  0.3030  0.0985
32433ION     NA48327  15.486  15.061  17.257 -0.1273  0.0374  0.1686
32434ION     NA48328   5.763  10.682  10.897 -0.1539 -0.2130  0.1048
32435ION     NA48329   4.974   7.975   4.610 -0.0150  0.3916  0.1411
32436ION     NA48330   7.008   5.575  11.885  0.0112  0.1639 -0.2228
32437ION     NA48331   0.417   3.260  11.252 -0.3253 -0.0954 -0.3529
32438ION     NA48332  16.120  17.169  11.465 -0.0995 -0.0262  0.1834
32439ION     NA48333   5.354  16.966   3.904 -0.0735 -0.0472  0.1359
32440ION     NA48334  13.143   1.821  14.014  0.2087  0.2142 -0.0319
32441ION     NA48335  13.203  13.021   1.817  0.1815 -0.1533 -0.1185
32442ION     NA48336  16.543   5.632   6.454  0.1226  0.2475 -0.0050
32443ION     NA48337  14.304  14.386  15.606 -0.1636 -0.1724  0.0736
32444ION     NA48338  17.051  13.510  11.211  0.0315  0.0004  0.0326
32445ION     NA48339  14.503   3.063  10.903 -0.4212  0.0968 -0.1903
32446ION     NA48340  10.262  17.094  11.121  0.0014 -0.1112  0.2052
32447ION     NA48341   0.119  16.605   6.475  0.1350 -0.1028  0.2547
32448ION     NA48342   9.731   1.712  11.088  0.0812  0.2040  0.0585
32449ION     NA48343   9.116  16.358  11.097  0.1129  0.6040 -0.1189
32450ION     NA48344  17.281   8.028  15.864 -0.0706 -0.0888 -0.1961
32451ION     NA48345   4.414  13.440   6.370  0.0203 -0.1095 -0.0189
32452ION     NA48346  15.453   0.198  10.962 -0.1679 -0.0489 -0.0152
32453ION     NA48347  13.677   5.146   3.341  0.0476  0.2339 -0.1082
32454ION     NA48348  11.557   5.058  10.634  0.2559 -0.0159  0.0872
32455ION     NA48349  12.767   0.868  11.041 -0.2499  0.1433  0.1441
32456ION     NA48350  15.227  17.619   1.429 -0.0915 -0.1715  0.1414
32457ION     NA48351  14.229  15.327  10.868  0.0684  0.2546 -0.1129
32458ION     NA48352   5.263   1.444  11.166 -0.1286  0.5667  0.0979
32459ION     NA48353   0.456   4.522   4.054  0.0059  0.1186  0.1415
32460ION     NA48354   9.252  17.627  11.698  0.1188 -0.3129 -0.1681
32461ION     NA48355  15.495  11.141  10.784  0.0641  0.1999  0.0204
32462ION     NA48356   0.369   6.966  11.823  0.1404  0.1178  0.0488
32463ION     NA48357   6.921  14.917  11.007 -0.0280  0.0885 -0.0933
32464ION     NA48358  10.581  14.964  10.873  0.1017  0.2130  0.0226
32465ION     NA48359   6.476  16.861  16.815 -0.0359 -0.1454 -0.2604
32466ION     NA48360  15.085   2.373  10.938  0.0996 -0.4777  0.0187
32467ION     NA48361   1.643   3.682   3.564 -0.2057  0.1379 -0.0836
32468ION     NA48362   7.219  17.266  11.091  0.2698  0.0459 -0.0912
32469ION     NA48363  13.853  11.977   5.148 -0.2745 -0.2970 -0.0841
32470ION     NA48364   0.266   0.613  11.204 -0.0762  0.2036 -0.1483
32471ION     NA48365  13.227  12.827   6.017  0.1277  0.1262 -0.1489
32472ION     NA48366   3.004  12.771   5.188 -0.0189  0.1203  0.1329
32473ION     NA48367   1.050  13.444  11.295 -0.0217  0.3187 -0.1556
32474ION     NA48368   3.167  12.152  11.054 -0.0650  0.0216 -0.1386
32475ION     NA48369   6.441   3.653   0.094  0.1220  0.0595 -0.0272
32476ION     NA48370   1.761  14.019  11.329 -0.0275  0.0784  0.0206
32477ION     NA48371   4.809  16.082  11.315 -0.2007  0.1385  0.1076
32478ION     NA48372  16.067   3.961  14.604  0.1691  0.3169  0.0943
32479ION     NA48373  16.035  15.535   6.377  0.4348  0.2998 -0.2229
32480ION     NA48374  17.466   7.977  11.208  0.0588  0.2069 -0.1174
32481ION     NA48375   5.125   8.454  11.249 -0.0359  0.3706  0.2761
32482ION     NA48376   8.519   3.922  11.155  0.2236  0.2671  0.0119
32483ION     NA48377  12.857   8.831   3.784 -0.0608 -0.2115 -0.0845
32484ION     NA48378  10.094  10.632   5.620 -0.1909  0.2182 -0.0558
32485ION     NA48379   5.698  13.176  11.017  0.0801  0.0788 -0.2616
32486ION     NA48380   9.356   5.131   4.792  0.0672 -0.1266 -0.0362
32487ION     NA48381   8.330   7.928  10.455 -0.1219  0.0542  0.3874
32488ION     NA48382   1.136  13.997  11.267 -0.3072 -0.1654 -0.2779
32489ION     NA48383   4.447   9.165  15.873 -0.0249  0.1070  0.0770
32490ION     NA48384   2.288  15.607  12.324  0.1665 -0.2991  0.3257
32491ION     NA48385   6.729   2.649  12.612 -0.0293 -0.1375 -0.0184
32492ION     NA48386   7.693  10.824   6.122 -0.0525 -0.0816 -0.1041
32493ION     NA48387   7.265   3.569   3.728  0.0227 -0.2073  0.2885
32494ION     NA48388   6.808   3.663   5.280  0.1870  0.0404 -0.1576
32495ION     NA48389   5.547  11.310  14.470 -0.0681  0.0571  0.0339
32496ION     NA48390   1.707  15.380  11.235 -0.1692  0.1355  0.0306
32497ION     NA48391   7.520  16.474  11.343 -0.0241  0.0324  0.4304
32498ION     NA48392   0.764  17.281  16.422 -0.3397  0.1046 -0.3075
32499ION     NA48393   8.408   7.775   6.049  0.1362  0.1917  0.1328
32500ION     NA48394   5.457   4.615  11.206 -0.3148 -0.1343  0.0515
32501ION     NA48395   0.278  10.402  15.245 -0.1327  0.0211 -0.1839
32502ION     NA48396   4.844   4.642  11.294  0.1866 -0.3729 -0.0584
32503ION     NA48397   3.758   8.078  11.229  0.2082 -0.2033 -0.1727
32504ION     NA48398  13.649   8.190  11.196 -0.1447  0.2330 -0.2347
32505ION     NA48399  11.107   5.857  11.614 -0.1420 -0.1862 -0.0540
32506ION     NA48400   8.778  12.018  11.052  0.3070  0.2545  0.1770
32507ION     NA48401   9.614  16.295  11.106  0.0308 -0.2332 -0.0084
32508ION     NA48402   3.143   4.826  11.548  0.0895 -0.1357  0.1593
32509ION     NA48403  12.242  15.243  10.641  0.5558 -0.0393 -0.1704
32510ION     NA48404  12.124   7.433  10.368 -0.1912  0.0090  0.0363
32511ION     NA48405  13.882  11.434   6.437 -0.1084  0.0302 -0.0236
32512ION     NA48406   0.873   2.329  11.231 -0.1045  0.0141 -0.1379
32513ION     NA48407   8.705  11.234  11.010 -0.3545  0.0378 -0.1393
32514ION     NA48408   4.839   9.562  17.288  0.0488 -0.1794 -0.1460
32515ION     NA48409   4.038   4.442  11.342 -0.3000  0.0026 -0.0087
32516ION     NA48410  10.423   5.908  10.432  0.1770 -0.0893 -0.2641
32517ION     NA48411  15.826   9.811  10.921  0.0515  0.1310  0.1844
32518ION     NA48412   9.695   4.931  10.770  0.1489 -0.1710  0.0340
32519ION     NA48413  11.032   4.270  10.535 -0.2609  0.2373 -0.2026
32520ION     NA48414   8.537   8.574  13.208  0.2690 -0.0886 -0.0005
32521ION     NA48415   0.024   6.091  12.051  0.2058 -0.2416  0.2926
32522ION     NA48416  10.267   3.250   5.762 -0.2860  0.2531 -0.2136
32523ION     NA48417   5.246   8.773   4.859 -0.0414  0.1233  0.2466
32524ION     NA48418  15.722   5.069   6.531 -0.1223  0.2203  0.0214
32525ION     NA48419  17.465   2.553  17.140  0.1954  0.3146  0.2092
32526ION     NA48420  12.384  10.866  10.606  0.0316 -0.0895  0.2269
32527ION     NA48421   3.073  16.230   3.912 -0.1054  0.0642 -0.1500
32528ION     NA48422   8.713  10.128  13.107 -0.0571 -0.1315  0.0571
32529ION     NA48423   4.052  17.157  15.322 -0.0369 -0.0676 -0.3027
32530ION     NA48424  10.543  14.366  13.175 -0.0812  0.1164 -0.0373
32531ION     NA48425   2.819  13.108   3.959 -0.1060 -0.0026 -0.2059
32532ION     NA48426   1.021  15.998   6.424 -0.3060  0.2640  0.2688
32533ION     NA48427   6.318   7.487  10.996  0.1646 -0.4811 -0.0058
32534ION     NA48428   6.618  12.890   6.286  0.2197 -0.3837  0.1274
32535ION     NA48429  12.605  10.343  10.830 -0.0020  0.1532 -0.0522
32536ION     NA48430   3.449   7.391   6.626  0.0254 -0.0223 -0.3147
32537ION     NA48431   4.853  17.409  11.486  0.1831 -0.2371  0.0689
32538ION     NA48432   8.795  14.854  11.173  0.0458 -0.0367  0.2719
32539ION     NA48433  16.802  10.771  10.830  0.1883 -0.0672 -0.0431
32540ION     NA48434   8.789  15.774   6.250  0.0274  0.0704 -0.2750
32541ION     NA48435   1.294   6.513  11.819 -0.1802 -0.0202  0.1871
32542ION     NA48436   5.246  15.443  11.192 -0.0239 -0.1828 -0.4269
32543ION     NA48437   4.744   7.754  11.443 -0.1018 -0.2459  0.2536
32544ION     NA48438  11.173  17.001  13.955  0.0142 -0.0149 -0.0002
32545ION     NA48439   6.307  16.037   3.452  0.0251  0.1107 -0.2737
32546ION     NA48440   9.349   5.724  10.626  0.1019  0.1950 -0.1155
32547ION     NA48441   4.753   2.761  11.231  0.0398 -0.0092 -0.0695
32548ION     NA48442   1.664  11.709  11.356 -0.1471 -0.2006  0.1317
32549ION     NA48443  10.403   5.988  10.986 -0.2627 -0.0453 -0.0283
32550ION     NA48444   3.739  16.418   4.682  0.2229 -0.0374 -0.0304
32551ION     NA48445  11.188   0.408   3.289  0.1591  0.1963  0.0402
32552ION     NA48446  12.781   9.585  11.223 -0.0768  0.1571  0.0000
32553ION     NA48447  17.363   8.911  11.298  0.0213 -0.0974  0.2096
32554ION     NA48448  12.907   5.704  10.665  0.1385 -0.1161  0.1230
32555ION     NA48449   1.647  17.545  11.299 -0.0756 -0.2882  0.1133
32556ION     NA48450   7.447   7.394  10.803 -0.2604 -0.4029 -0.0664
32557ION     NA48451   5.214   9.915  11.125  0.0745 -0.1750  0.1707
32558ION     NA48452   3.357   5.760  11.333 -0.0383  0.3097  0.0774
32559ION     NA48453  17.408  14.309  11.356  0.0686  0.2952 -0.1590
32560ION     NA48454  12.481  14.421   1.310  0.1951 -0.0411 -0.2108
32561ION     NA48455   7.623   4.780  11.528 -0.3914  0.0355 -0.0325
32562ION     NA48456  13.439   1.527  13.156 -0.2262 -0.4644 -0.4227
32563ION     NA48457   4.057   0.161  13.177 -0.1474  0.2911  0.3135
32564ION     NA48458  15.832   7.968  11.081  0.1565  0.1052 -0.0886
32565ION     NA48459  17.110   1.013  11.074 -0.0387 -0.0501 -0.1942
32566ION     NA48460  17.548   9.590  11.400 -0.0532  0.1468  0.1340
32567ION     NA48461   1.284   3.063   0.842 -0.2309 -0.1627  0.2258
32568ION     NA48462   8.475  14.963   6.410  0.0476  0.0318  0.0317
32569ION     NA48463  12.846   6.952  10.384 -0.3266  0.0403 -0.2219
32570ION     NA48464   6.583   2.898  11.452  0.1694  0.2168  0.1915
32571ION     NA48465   5.802   4.871   6.195 -0.0216 -0.0714 -0.0558
32572ION     NA48466  17.362   0.831   6.216  0.1954 -0.0593  0.0323
32573ION     NA48467   4.453   1.871  11.285 -0.0087  0.1759 -0.2261
32574ION     NA48468   0.669   7.651   4.173  0.0342  0.3187 -0.0464
32575ION     NA48469   7.000   3.001   6.363 -0.2440  0.1556 -0.2960
32576ION     NA48470   9.087   3.435  11.595  0.1039 -0.2067 -0.0824
32577ION     NA48471   9.651  15.929  11.821 -0.0323 -0.2173  0.1574
32578ION     NA48472   2.580  15.364  13.889 -0.0397 -0.1988  0.3520
32579ION     NA48473   9.006  16.787  11.461 -0.0583  0.1152  0.4325
32580ION     NA48474  13.689   2.522  14.706  0.2556  0.1141 -0.1482
32581ION     NA48475  17.145   2.684   2.607  0.0367 -0.1378  0.0875
32582ION     NA48476   4.347   0.196  11.271 -0.0309 -0.0246 -0.2270
32583ION     NA48477  16.278  13.225   3.875  0.1509 -0.1669  0.1302
32584ION     NA48478   0.089   4.033  11.369  0.1480  0.0918  0.0284
32585ION     NA48479   7.950   5.907   5.831 -0.0636 -0.3206 -0.0259
32586ION     NA48480   0.638  11.050  11.136  0.2632 -0.2182  0.0027
32587ION     NA48481  11.593  10.578   2.501  0.3067 -0.2334 -0.1399
32588ION     NA48482   4.078  15.744  11.388  0.1533  0.2273  0.3853
32589ION     NA48483  14.132   7.320  14.253  0.0752  0.1166 -0.0819
32590ION     NA48484   3.481   4.419  11.431 -0.1472 -0.2047 -0.3320
32591ION     NA48485   3.157  13.507  11.116 -0.1638 -0.0157 -0.2862
32592ION     NA48486  15.020   5.387   2.851  0.0079  0.0746  0.1571
32593ION     NA48487   8.105  17.048  11.118 -0.0649 -0.1385  0.1003
32594ION     NA48488  10.455   8.378  10.402  0.1802  0.1382  0.2071
32595ION     NA48489  12.465   4.949  10.705  0.3647 -0.1460 -0.0628
32596ION     NA48490   2.701   3.149  11.231  0.0330 -0.0582  0.0394
32597ION     NA48491   2.831   2.469  14.568 -0.0957 -0.1872  0.4036
32598ION     NA48492  14.100   6.264  15.153  0.1513 -0.1593  0.1478
32599ION     NA48493  16.904  10.198  12.975  0.1153 -0.2487 -0.0292
32600ION     NA48494   0.389   3.472   6.414 -0.0481 -0.0402 -0.0983
32601ION     NA48495   9.070   1.839  14.275  0.0928 -0.0024 -0.1641
32602ION     NA48496  12.941  15.320  15.684 -0.0521  0.1811 -0.0893
32603ION     NA48497  11.857   4.214  10.743 -0.1925  0.0421  0.3111
32604ION     NA48498  11.493   6.033  10.268 -0.2189  0.3464 -0.0271
32605ION     NA48499   9.883  14.141  11.014 -0.2055 -0.0571 -0.0399
32606ION     NA48500  17.371  17.261  11.218 -0.3427  0.0125  0.1784
32607ION     NA48501   9.089  13.027  11.043  0.2725  0.0332  0.3182
32608ION     NA48502   8.572  13.059  14.893  0.3383 -0.1512 -0.0499
32609ION     NA48503  14.770  14.696  14.381 -0.2821 -0.1749  0.3123
32610ION     NA48504   8.359   5.979   1.159 -0.2045  0.2257 -0.0064
32611ION     NA48505   2.834   6.430  11.548  0.0344 -0.1062  0.2170
32612ION     NA48506   3.952  15.824   6.274 -0.2130  0.1225  0.0480
32613ION     NA48507  13.610   3.319   6.020  0.2386  0.2737 -0.1682
32614ION     NA48508   2.343  12.510  11.229  0.3007  0.0839  0.2584
32615ION     NA48509  10.654   5.228   0.234  0.1963 -0.1182 -0.1190
32616ION     NA48510   6.472  16.742  11.232  0.3006 -0.0255  0.1221
32617ION     NA48511   3.352  14.337  11.082 -0.0518 -0.1198  0.1107
32618ION     NA48512  13.394   5.528  14.917 -0.0542  0.1210  0.1087
32619ION     NA48513   6.160  10.065  11.201  0.2134 -0.2343  0.1769
32620ION     NA48514   3.779  10.553  10.888  0.1394 -0.1151 -0.1552
32621ION     NA48515   2.435   5.123   6.608  0.2005  0.1500  0.0660
32622ION     NA48516  12.194   8.870  10.298 -0.2090 -0.0194 -0.0123
32623ION     NA48517   4.117   5.197  11.404 -0.1768 -0.0337  0.3339
32624ION     NA48518   3.544   1.684  11.379  0.1567 -0.1568  0.2393
32625ION     NA48519   3.314  12.223  15.706 -0.0863  0.3583  0.4788
32626ION     NA48520  12.071  16.845  10.612  0.1706 -0.0654  0.2985
32627ION     NA48521   9.297  17.402   6.378 -0.2294 -0.3848 -0.4364
32628ION     NA48522   6.834   0.696  11.241 -0.0751 -0.0275  0.2694
32629ION     NA48523   0.089  15.074  11.011 -0.0002 -0.0899 -0.0230
32630ION     NA48524   1.545   9.228  11.887 -0.1180 -0.2721  0.2813
32631ION     NA48525   2.537  14.224  10.985 -0.0086 -0.2019  0.0739
32632ION     NA48526   0.868  11.204   6.697 -0.0345  0.2255 -0.0872
32633ION     NA48527   2.519  17.041  11.236  0.0310 -0.1872  0.1887
32634ION     NA48528   7.554  10.671  11.889  0.0742  0.1425  0.0485
32635ION     NA48529   8.133  13.368  10.919 -0.0259  0.1169 -0.3408
32636ION     NA48530   9.706   4.439  10.902  0.3367 -0.0749  0.2188
32637ION     NA48531  17.555  15.780  11.083 -0.0178  0.0097  0.0298
32638ION     NA48532   2.458   0.327  11.169  0.2046 -0.0160  0.1294
32639ION     NA48533   4.865  12.485  15.413 -0.2710  0.0525  0.1084
32640ION     NA48534  12.199   5.759  16.690 -0.0095 -0.0051 -0.1224
32641ION     NA48535  16.164   0.460  17.009  0.0419  0.0065  0.0489
32642ION     NA48536  12.245   1.789  10.756  0.0212  0.1625  0.2523
32643ION     NA48537  15.040  15.745  13.138 -0.2103 -0.0710 -0.1147
32644ION     NA48538  11.099   9.080  10.334  0.2091  0.0319  0.0077
32645ION     NA48539  11.238   3.272  10.811  0.0292  0.2983  0.0827
32646ION     NA48540  10.520  12.539  10.985  0.1811  0.0652  0.1283
32647ION     NA48541  12.046   3.394  13.995  0.1586 -0.1780 -0.0675
32648ION     NA48542   9.224   2.520  11.290  0.0119  0.0005 -0.3614
32649ION     NA48543   3.889  14.979  11.166  0.1206 -0.1090  0.2231
32650ION     NA48544   4.403   0.816  13.655  0.2204 -0.1742  0.1317
32651ION     NA48545   8.264   9.452  11.073 -0.2717  0.2104  0.2265
32652ION     NA48546   9.473  13.874  10.958  0.2902 -0.1225  0.1033
32653ION     NA48547  16.578  16.280   0.171 -0.0555  0.1132  0.2374
32654ION     NA48548   3.859   8.590  16.973 -0.2079  0.2068 -0.0565
32655ION     NA48549  11.245   2.374   6.248 -0.0273  0.2400 -0.0293
32656ION     NA48550   5.201  10.108  13.619  0.1185 -0.1361 -0.2390
32657ION     NA48551   6.556  10.883  11.045 -0.2147 -0.0094  0.2252
32658ION     NA48552   8.197   8.650  10.643 -0.0190  0.1066  0.0706
32659ION     NA48553   5.924   2.112  11.255  0.0101 -0.1066  0.0256
32660ION     NA48554   3.670  10.465   3.160  0.3264  0.1208 -0.1133
32661ION     NA48555   9.614  10.078  10.387 -0.0683  0.0968  0.0683
32662ION     NA48556   8.976  13.456  10.856  0.0164 -0.0931  0.1907
32663ION     NA48557  16.765   3.429   6.221  0.0009 -0.0697 -0.1333
32664ION     NA48558  11.441  14.499  10.724 -0.2196 -0.0182  0.1799
32665ION     NA48559  12.038   3.326  11.125  0.0424  0.1581  0.1444
32666ION     NA48560   7.856   0.133   6.372  0.0504 -0.1911  0.0074
32667ION     NA48561   9.961  12.108  14.392  0.4137 -0.4465  0.2115
32668ION     NA48562  15.831   3.065  11.057 -0.2039 -0.0292 -0.2859
32669ION     NA48563  15.410   1.006  11.055 -0.0048 -0.0344  0.0058
32670ION     NA48564   3.903   2.019   6.958 -0.0241  0.0010  0.0336
32671ION     NA48565  16.511   2.139  10.941  0.3865  0.0716 -0.0925
32672ION     NA48566   1.010   3.878  11.327  0.0720  0.0693 -0.0966
32673ION     NA48567   1.757   8.873   6.478  0.3051 -0.2390 -0.2435
32674ION     NA48568  16.075  14.145   6.089 -0.2589  0.1818  0.0419
32675ION     NA48569   2.482  12.048  12.626 -0.2020 -0.0330  0.0208
32676ION     NA48570  17.014   1.904  10.870  0.1129 -0.0147 -0.1349
32677ION     NA48571  16.469   8.429  11.492  0.0628  0.0792  0.5004
32678ION     NA48572   1.388  12.727  11.062 -0.0527 -0.4771  0.0143
32679ION     NA48573   8.347   5.255  11.900  0.0196  0.0474  0.0788
32680ION     NA48574   0.792  15.665  11.269  0.0233 -0.2221  0.0576
32681ION     NA48575  11.471   1.060  10.988  0.0625 -0.1283 -0.1226
32682ION     NA48576   3.955  13.083  11.169 -0.2058 -0.3021 -0.1565
32683ION     NA48577   3.895   7.513  11.309 -0.0105 -0.0320 -0.0778
32684ION     NA48578  12.170   5.198  10.391 -0.1607 -0.2324 -0.1171
32685ION     NA48579  14.426   8.618  10.865 -0.1654 -0.0763 -0.0953
32686ION     NA48580  12.882  12.353  11.031 -0.3909  0.2018  0.3435
32687ION     NA48581   8.330   2.768  11.216 -0.0724 -0.2012 -0.1334
32688ION     NA48582   6.701   8.835   6.338 -0.2603  0.0167  0.1971
32689ION     NA48583   4.397  16.331  16.556  0.1815 -0.5574 -0.2319
32690ION     NA48584   8.096   2.515  15.961  0.2636 -0.1544  0.0063
32691ION     NA48585   4.363   2.628  14.403  0.1451 -0.0990 -0.0177
32692ION     NA48586   9.195   3.298   3.944  0.1001 -0.1597  0.3210
32693ION     NA48587   8.211  11.657   6.134 -0.1087  0.1413 -0.1425
32694ION     NA48588  15.150  15.308  10.993  0.0607  0.1763 -0.1930
32695ION     NA48589   6.621   7.852  10.796 -0.1402 -0.0570 -0.1870
32696ION     NA48590   4.349  11.389  10.937 -0.1390 -0.0986  0.2491
32697ION     NA48591   7.734   5.727  11.370 -0.1693  0.1390  0.1327
32698ION     NA48592  13.078   8.673   5.279 -0.2223 -0.1613  0.1391
32699ION     NA48593   8.887  11.396  15.636 -0.2295 -0.1627 -0.1736
32700ION     NA48594   1.795  14.766  11.317 -0.1453  0.1601 -0.0228
32701ION     NA48595   9.505   6.349  13.952  0.0170 -0.0184 -0.1332
32702ION     NA48596  10.134  15.452  12.629 -0.2574  0.1063  0.0018
32703ION     NA48597   5.097  11.555  10.703  0.0891  0.0764  0.3872
32704ION     NA48598  10.770   5.000  11.783 -0.3582 -0.4390  0.0564
32705ION     NA48599   6.377   5.915  11.229 -0.1337 -0.1202 -0.0141
32706ION     NA48600   3.611   3.370  11.206  0.2078  0.0336  0.2243
32707ION     NA48601  12.589  13.143  10.727  0.0830 -0.2220 -0.2987
32708ION     NA48602   8.717   6.611  17.269  0.1184 -0.4112  0.0343
32709ION     NA48603   6.791   8.585  10.777 -0.0067 -0.0701  0.0885
32710ION     NA48604   5.717   8.067   0.850 -0.0435  0.0274 -0.0728
32711ION     NA48605   4.182   1.125  11.333 -0.2019 -0.0434  0.0077
32712ION     NA48606   4.036  13.989  11.040  0.4601 -0.6395 -0.2602
32713ION     NA48607   1.495  16.238  11.385 -0.1416 -0.2302 -0.1296
32714ION     NA48608   0.735  11.409   3.580 -0.1739 -0.0825  0.1676
32715ION     NA48609  14.868  17.193  11.011  0.2352  0.2906 -0.1314
32716ION     NA48610   4.675   7.867   2.027  0.1541  0.0405 -0.0984
32717ION     NA48611   7.940  14.843  11.129 -0.2196 -0.0035  0.0766
32718ION     NA48612  11.032  16.673  10.988  0.0651 -0.1557 -0.1425
32719ION     NA48613  14.157   5.284   1.919  0.0651 -0.0032 -0.3474
32720ION     NA48614  10.746  12.946   6.189 -0.1656 -0.1337  0.1447
32721ION     NA48615   0.686   3.992  16.823  0.1876  0.0282 -0.1649
32722ION     NA48616  13.612   8.886  10.571 -0.0074  0.0754  0.0151
32723ION     NA48617  11.329  15.370  10.752 -0.1806 -0.1139 -0.0944
32724ION     NA48618  14.520   0.800  10.910  0.0492 -0.2553  0.0683
32725ION     NA48619   3.836   9.228  11.304  0.0081  0.3323 -0.1920
32726ION     NA48620   5.316  11.718   6.316 -0.0886 -0.0240  0.0722
32727ION     NA48621   2.756  15.000  11.169 -0.2213  0.0806  0.0496
32728ION     NA48622   8.824  10.071   5.904  0.1433 -0.0597 -0.0383
32729ION     NA48623  16.377  13.398  11.073  0.1373 -0.0576  0.0070
32730ION     NA48624   1.867  13.500   0.191 -0.0940 -0.3106 -0.1651
32731ION     NA48625  10.281   6.990  10.329  0.2363 -0.2806  0.0890
32732ION     NA48626  12.707   1.705   4.290  0.1497 -0.0006 -0.2216
32733ION     NA48627  12.372  13.346   5.654  0.0725  0.1140 -0.0524
32734ION     NA48628   0.940  14.434  12.189 -0.0260 -0.2114 -0.1183
32735ION     NA48629   5.844   0.939  11.281  0.0965  0.0418  0.1308
32736ION     NA48630   8.986   8.356   2.080 -0.0995  0.1231 -0.1424
32737ION     NA48631   9.215   4.527   0.466 -0.2209  0.2181 -0.1311
32738ION     NA48632   7.811   5.454  10.948 -0.1502  0.1378 -0.4439
32739ION     NA48633   0.083   1.554  11.216 -0.4500 -0.1662 -0.1701
32740ION     NA48634   8.021   5.469  14.839  0.1360  0.2068 -0.3785
32741ION     NA48635   3.021   7.379  11.406 -0.1508  0.0135 -0.0214
32742ION     NA48636   9.271   2.227  16.916 -0.1931 -0.0643  0.2771
32743ION     NA48637   0.934   1.472  11.340  0.2201  0.1909  0.0192
32744ION     NA48638  13.109  10.251  10.968 -0.0476 -0.2104  0.0548
32745ION     NA48639   6.265  14.436   1.809  0.0381  0.2847 -0.0933
32746ION     NA48640  13.129  10.108  16.364 -0.0002  0.2925 -0.0302
32747ION     NA48641   1.300  10.458  11.415 -0.1664  0.0064 -0.1169
32748ION     NA48642   8.292   5.654  10.712  0.0451  0.0741  0.0640
32749ION     NA48643   3.964   2.112  11.373  0.0345 -0.0271 -0.3482
32750ION     NA48644  10.877  17.006  16.818 -0.1139 -0.0603 -0.2610
32751ION     NA48645   7.900   0.578  14.997 -0.0029 -0.0064 -0.3888
32752ION     NA48646   6.524  14.230  11.269 -0.0530 -0.0182 -0.0803
32753ION     NA48647  15.933  15.122  11.165 -0.0027  0.0459 -0.2556
32754ION     NA48648  14.401   6.965  10.943 -0.3154 -0.1477 -0.0447
32755ION     NA48649  13.644   5.117  11.878 -0.0963  0.1909  0.0951
32756ION     NA48650   9.637   6.184  10.456  0.2842  0.0000 -0.0812
32757ION     NA48651   0.730   4.979  11.697  0.2681 -0.0814  0.0567
32758ION     NA48652  17.533   5.564  16.623  0.3138 -0.2349  0.1721
32759ION     NA48653  15.024   8.227  10.930  0.1708 -0.3423  0.1177
32760ION     NA48654  14.813  14.201  11.127 -0.0030 -0.1619 -0.1541
32761ION     NA48655  13.292   8.349  10.834 -0.1084 -0.0500 -0.0820
32762ION     NA48656   4.077  10.021   3.806  0.2838 -0.0542 -0.1397
32763ION     NA48657   5.468   8.313   6.338  0.2890 -0.2657 -0.1177
32764ION     NA48658   4.410   1.085   6.591  0.3402 -0.0300 -0.0383
32765ION     NA48659  17.171   8.309  13.691 -0.2711 -0.0468 -0.0349
32766ION     NA48660   0.926   6.642  13.654 -0.4702 -0.0659  0.1700
32767ION     NA48661   8.834   4.923  11.049 -0.1756  0.1480 -0.1431
32768ION     NA48662  17.428  15.814   6.119 -0.0578  0.2425 -0.0980
32769ION     NA48663   5.277   0.425  11.351  0.2265 -0.2214  0.1212
32770ION     NA48664  15.560  14.313  14.379 -0.1624  0.2688 -0.0981
32771ION     NA48665  14.922  10.088  10.900  0.0728  0.4278  0.0253
32772ION     NA48666  13.698   6.416  10.543  0.1917  0.1678  0.3988
32773ION     NA48667  12.855   9.874   1.441 -0.0333 -0.1046  0.1030
32774ION     NA48668  11.904   0.233  10.814  0.0638 -0.1826 -0.0759
32775ION     NA48669  14.748   2.767  16.599 -0.1359  0.1803 -0.0585
32776ION     NA48670  11.784   2.541  10.924  0.1438 -0.1496 -0.0433
32777ION     NA48671   9.232   1.498  10.895  0.1595 -0.0766  0.0953
32778ION     NA48672  14.530  16.158  10.726 -0.0131 -0.0863 -0.1537
32779ION     NA48673   8.469   7.108   3.937 -0.2631  0.0852  0.2050
32780ION     NA48674  12.787   9.207  16.735 -0.0751 -0.1431 -0.0870
32781ION     NA48675  10.999   9.812  10.532 -0.0039 -0.0148 -0.0810
32782ION     NA48676   5.805   9.213  11.060 -0.1277  0.4317  0.0619
32783ION     NA48677   1.476   5.144  11.469  0.1790 -0.1538 -0.1797
32784ION     NA48678   5.985   4.175  15.115 -0.1586  0.2758  0.0757
32785ION     NA48679   9.501  10.913  10.558  0.1348  0.0283 -0.0279
32786ION     NA48680  15.468  14.405  11.196  0.0822  0.1682 -0.1975
32787ION     NA48681   3.051  13.345   6.367  0.1748 -0.2340 -0.4977
32788ION     NA48682   7.789  15.049  13.667 -0.0327  0.5842  0.2182
32789ION     NA48683   8.488   1.057  10.927  0.0831  0.1805 -0.1631
32790ION     NA48684   1.151  14.731  17.273  0.2486 -0.1445 -0.2935
32791ION     NA48685   3.213  15.656  11.361  0.0520 -0.2549 -0.0092
32792ION     NA48686  10.312  11.082  10.647  0.0647  0.0378 -0.1344
32793ION     NA48687   0.982   5.896   6.850 -0.1514 -0.1226  0.0623
32794ION     NA48688   6.127   6.263  16.349  0.0064  0.4076 -0.1100
32795ION     NA48689  14.597   4.392   6.305  0.0078  0.0260  0.0184
32796ION     NA48690   4.319  12.025   0.557 -0.0147  0.1583 -0.1286
32797ION     NA48691   7.696  13.025  11.032  0.0633 -0.1025 -0.2074
32798ION     NA48692  12.287  11.813  10.502  0.0735 -0.0132 -0.2447
32799ION     NA48693  13.610  17.621   1.239  0.2715  0.2771  0.0245
32800ION     NA48694   1.473   4.723   0.555 -0.2419  0.1089  0.0069
32801ION     NA48695  11.357  14.792   6.038  0.0147  0.4095 -0.1106
32802ION     NA48696   8.815   7.812  10.730  0.1220 -0.0499  0.2778
32803ION     NA48697   1.391  14.555   6.194 -0.1278  0.1366  0.0695
32804ION     NA48698  12.922   5.333   2.007  0.1833  0.0034  0.0352
32805ION     NA48699   9.370   6.899   5.344  0.1966  0.4735  0.0038
32806ION     NA48700   8.910  12.102   6.307  0.2083  0.3106  0.1686
32807ION     NA48701   8.848  10.326  10.465 -0.1895 -0.2167  0.3045
32808ION     NA48702  17.414  11.480  10.879  0.0505 -0.2069 -0.0891
32809ION     NA48703  10.185  11.633  10.798  0.3290 -0.2070 -0.2440
32810ION     NA48704  12.872   9.326  10.655  0.3046  0.3188  0.2306
32811ION     NA48705   1.822  16.791   4.803  0.3982 -0.2016  0.0627
32812ION     NA48706   8.112   7.148  10.626 -0.0993 -0.1274 -0.4976
32813ION     NA48707   4.435  11.789  14.960 -0.1888  0.2599  0.1829
32814ION     NA48708   0.779  16.828  11.178  0.0168  0.2296 -0.0126
32815ION     NA48709  15.677  10.617  11.001  0.0239 -0.2088 -0.2113
32816ION     NA48710   5.024  10.831  11.164  0.3351  0.1333 -0.0740
32817ION     NA48711  17.096  10.567   2.822  0.2256 -0.0851 -0.0515
32818ION     NA48712   7.769   0.448  10.996  0.1607  0.0725 -0.2677
32819ION     NA48713   8.815  16.603  12.533  0.3712 -0.2502 -0.0108
32820ION     NA48714   9.167  13.586  12.737 -0.1499 -0.0188 -0.4210
32821ION     NA48715   3.604   0.173   6.610 -0.0766  0.2360 -0.0689
32822ION     NA48716  10.659   2.299  14.385 -0.3340 -0.0062 -0.1014
32823ION     NA48717  11.118   1.941  10.806  0.0932  0.1241 -0.1251
32824ION     NA48718  14.344  15.359   4.551 -0.3828 -0.0792 -0.2360
32825ION     NA48719  12.855   3.239  11.105 -0.0488 -0.0126  0.0697
32826ION     NA48720   5.336   7.409  11.098  0.0602  0.0022 -0.2253
32827ION     NA48721  10.376   6.391  12.250  0.2835 -0.0217 -0.1777
32828ION     NA48722   5.445  16.680   6.570 -0.0762  0.0106  0.1734
32829ION     NA48723   8.078   0.739  11.209 -0.0984 -0.1615 -0.1429
32830ION     NA48724  10.165   3.677  10.917  0.1477 -0.0174 -0.2415
32831ION     NA48725   8.680  15.464  11.010  0.0938  0.1807  0.1398
32832ION     NA48726   3.055  16.002   6.160 -0.1223 -0.0143 -0.1046
32833ION     NA48727   7.299   2.219   6.511  0.1761  0.0136  0.0535
32834ION     NA48728   6.652  11.701  10.846 -0.3459 -0.2034  0.0305
32835ION     NA48729   6.417   0.002  11.233 -0.2878  0.0794 -0.1549
32836ION     NA48730  11.475  12.624  10.591  0.2742 -0.1353  0.0232
32837ION     NA48731   9.062   8.151  10.419 -0.1160  0.0504  0.0221
32838ION     NA48732   4.583  10.526   4.720  0.1551 -0.1110  0.0641
32839ION     NA48733  17.536   3.622   5.556 -0.1773 -0.1299  0.0203
32840ION     NA48734   5.393  10.691   5.918  0.1220 -0.2601  0.1397
32841ION     NA48735   9.687   7.662  10.191 -0.0308 -0.2519  0.2847
32842ION     NA48736  16.347  12.866  10.918  0.0013 -0.3800  0.0522
32843ION     NA48737   6.508   1.579  10.967  0.1257 -0.0849 -0.0567
32844ION     NA48738  10.083  10.458  12.917  0.1819 -0.1446 -0.1367
32845ION     NA48739  12.041   6.643  10.651 -0.1284 -0.0539  0.2083
32846ION     NA48740  10.426   9.736   3.415  0.3144 -0.2049 -0.2338
32847ION     NA48741  15.763   3.794  12.889 -0.2907  0.1599  0.2786
32848ION     NA48742   5.895   9.354   6.022  0.0010  0.1135 -0.1997
32849ION     NA48743   4.949  15.793   3.416 -0.0081  0.0226 -0.4537
32850ION     NA48744  15.522   9.214   5.908  0.0612  0.0062 -0.0722
32851ION     NA48745  12.463  12.471  12.434  0.0380  0.0126  0.1381
32852ION     NA48746  16.640   4.968  11.141 -0.1285 -0.4221  0.2076
32853ION     NA48747   7.645  15.661  10.930  0.0065 -0.3303  0.0845
32854ION     NA48748  10.269   8.970  13.098  0.2057  0.1655 -0.1475
32855ION     NA48749  17.268  14.067   3.877 -0.0667 -0.2103 -0.0709
32856ION     NA48750  10.722   5.144  10.596 -0.3215  0.1528 -0.1664
32857ION     NA48751   1.226  10.296   6.556  0.0237 -0.0683  0.1868
32858ION     NA48752   2.074   3.856  11.440  0.2894 -0.1194  0.3347
32859ION     NA48753   9.646  17.207  11.043 -0.3596 -0.1880 -0.0635
32860ION     NA48754   6.221   3.517  11.780  0.0829  0.0152  0.0262
32861ION     NA48755   3.482   0.178  11.286 -0.0467  0.0419 -0.0349
32862ION     NA48756  13.363  12.449  10.939 -0.2355 -0.2660  0.3379
32863ION     NA48757   5.959   8.516  10.976 -0.1545 -0.1814 -0.1472
32864ION     NA48758  10.964  17.546  11.003 -0.1887  0.0898  0.1776
32865ION     NA48759  16.425   3.832  11.403 -0.3190 -0.2262 -0.3081
32866ION     NA48760  17.431   9.353   6.004 -0.0602 -0.0304 -0.0222
32867ION     NA48761   7.563   7.920  10.812  0.0468 -0.0894 -0.1597
32868ION     NA48762  13.716   0.766  10.808 -0.2547  0.0291  0.0522
32869ION     NA48763   1.400   7.405  11.471  0.0868 -0.1224 -0.0945
32870ION     NA48764   9.631  12.212  10.794 -0.0242  0.1460  0.1097
32871ION     NA48765   0.882  10.096  16.422 -0.2005 -0.0048  0.0638
32872ION     NA48766   0.017   4.217  11.825 -0.1227 -0.3710 -0.2345
32873ION     NA48767  10.432  15.629   6.198  0.0011 -0.1868 -0.1615
32874ION     NA48768  14.920   7.620   5.701  0.1619 -0.2206 -0.2246
32875ION     NA48769   6.740   0.100  15.042  0.3600  0.2029 -0.0825
32876ION     NA48770   5.470   7.387   5.485  0.0593  0.1818 -0.0733
32877ION     NA48771  13.311  14.302  10.724 -0.0863 -0.1940  0.0974
32878ION     NA48772   2.443   4.398  11.761 -0.0137  0.3851  0.0034
32879ION     NA48773   8.829   6.435  10.563 -0.0636 -0.0282 -0.0165
32880ION     NA48774  15.201   3.722  11.104  0.0026 -0.0499  0.2711
32881ION     NA48775  12.326  14.462  10.706  0.3094 -0.2311 -0.0141
32882ION     NA48776   2.379   8.746  11.416 -0.1242 -0.2568 -0.1781
32883ION     NA48777   5.536   3.886  11.275  0.2990 -0.2098 -0.1919
32884ION     NA48778   0.213  11.821   6.340  0.4458 -0.5512  0.0791
32885ION     NA48779  16.106   7.086   5.740  0.0861 -0.1815  0.0587
32886ION     NA48780   2.153  10.021  11.528 -0.1991 -0.2608  0.0532
32887ION     NA48781   1.905   8.137   3.130 -0.1767  0.0655  0.1564
32888ION     NA48782   3.082   0.929  11.375  0.1851 -0.1763  0.2857
32889ION     NA48783   8.586   1.633  11.625 -0.1390 -0.2167 -0.2558
32890ION     NA48784   7.385   2.971  11.254 -0.1999 -0.4188  0.0435
32891ION     NA48785   4.178   9.938  11.030  0.0807 -0.0132  0.2194
32892ION     NA48786   7.490   1.402  11.191  0.0653 -0.0051  0.1635
32893ION     NA48787   3.652   4.220   6.504  0.0957 -0.1932 -0.1218
32894ION     NA48788   0.527  12.191  11.318  0.0203  0.1334 -0.2248
32895ION     NA48789   2.584   8.096  11.588  0.0918 -0.0060  0.0909
32896ION     NA48790  16.276   2.598   6.457 -0.1069  0.1714 -0.0803
32897ION     NA48791   1.367   3.461  11.218 -0.0556 -0.3481  0.0152
32898ION     NA48792   9.950   7.995   0.896  0.0434 -0.0443  0.1037
32899ION     NA48793   2.275   5.009  11.366  0.1118 -0.1764  0.1367
32900ION     NA48794  13.591   2.420   5.745  0.0142 -0.0644 -0.2665
32901ION     NA48795   7.327   5.687  10.945 -0.1167  0.1159 -0.0891
32902ION     NA48796  16.154   1.571   2.469  0.1270 -0.0932 -0.1252
32903ION     NA48797   5.318   4.854   0.297 -0.3462  0.2230  0.2224
32904ION     NA48798   1.128   1.950   6.203  0.2806  0.2175  0.1077
32905ION     NA48799   1.314   1.920   1.399  0.0934 -0.3580 -0.2609
32906ION     NA48800  11.708  11.638  13.643 -0.0010 -0.1340  0.0285
32907ION     NA48801   2.525   6.951  12.171 -0.0773  0.1010  0.1869
32908ION     NA48802   6.572   5.053  11.182 -0.0907  0.0132  0.2575
32909ION     NA48803  16.556  12.033  10.716  0.0411  0.0648  0.1017
32910ION     NA48804  11.712  13.705   4.535 -0.1612  0.0906 -0.0183
32911ION     NA48805  11.393  11.625  10.352 -0.0383  0.0716  0.0246
32912ION     NA48806  16.285  11.451   4.092 -0.1615  0.0906 -0.1619
32913ION     NA48807   8.450   6.645  15.504  0.1130  0.1295 -0.0330
32914ION     NA48808   7.514   6.633  16.567 -0.2993 -0.0188  0.1615
32915ION     NA48809   5.518   6.400  11.173  0.0414 -0.0585  0.1591
32916ION     NA48810   6.768  13.455  10.955  0.0260 -0.0637  0.0600
32917ION     NA48811  13.666   1.281  10.853 -0.1016 -0.1062 -0.0276
32918ION     NA48812   9.429   4.206  11.252  0.0771  0.1566  0.0270
32919ION     NA48813  13.853  17.286  13.019  0.2410 -0.0415  0.1076
32920ION     NA48814   0.578   8.883   6.258  0.2754 -0.1173 -0.0445
32921ION     NA48815   6.429  12.547  10.996 -0.0970 -0.0890 -0.1908
32922ION     NA48816   2.935   7.577  13.738  0.1058 -0.1004 -0.0234
32923ION     NA48817   1.073  13.402  16.815 -0.1644  0.0993  0.0627
32924ION     NA48818   8.101  13.922   6.383  0.0852  0.1480 -0.2018
32925ION     NA48819   5.556   6.093   3.067 -0.1479 -0.0351  0.3783
32926ION     NA48820   2.385   6.697   6.658 -0.0313 -0.1174  0.0339
32927ION     NA48821   4.680   9.862   6.321  0.1552 -0.1687  0.0645
32928ION     NA48822   5.699  12.156  10.919  0.0359  0.0612 -0.0898
32929ION     NA48823  10.668   1.671  10.839 -0.0776 -0.2904  0.2313
32930ION     NA48824   5.706   2.945  11.386 -0.2682 -0.4801  0.2276
32931ION     NA48825  17.212  12.838  10.885  0.2135 -0.2625 -0.1841
32932ION     NA48826   5.868   6.767  11.195 -0.0450  0.0010  0.0216
32933ION     NA48827   3.232   4.234  13.838  0.0413  0.0975  0.0777
32934ION     NA48828  13.675  15.895  10.930 -0.1496  0.0473  0.0360
32935ION     NA48829   7.126   3.736  11.446 -0.0724 -0.3266 -0.3038
32936ION     NA48830   9.938   1.061   1.327 -0.3065 -0.0985 -0.0812
32937ION     NA48831   8.857  16.877  14.780  0.1576 -0.0990 -0.3983
32938ION     NA48832   4.503  11.289   6.235 -0.2031 -0.0119 -0.0017
32939ION     NA48833   9.854   2.732  11.155 -0.1046  0.1770  0.0434
32940ION     NA48834   0.729  15.166  15.842 -0.0482 -0.2215  0.1478
32941ION     NA48835  10.867   8.815   0.105  0.2222 -0.0583 -0.1738
32942ION     NA48836   2.274   7.324  14.061 -0.3574 -0.1113 -0.1835
32943ION     NA48837   0.146   9.015   0.931 -0.3667 -0.2218 -0.1624
32944ION     NA48838  11.433   1.181   0.867  0.0400 -0.0462 -0.1476
32945ION     NA48839   1.458   1.557  11.075 -0.1216  0.0904  0.0118
32946ION     NA48840   2.972  13.044  12.259  0.2719 -0.2014 -0.1372
32947ION     NA48841   8.087  10.491  10.742  0.1038 -0.5164  0.0387
32948ION     NA48842   1.914  13.418  11.114  0.1241  0.1498 -0.3665
32949ION     NA48843   5.979  14.735  11.088 -0.0527  0.0040 -0.1406
32950ION     NA48844  14.204   5.007  11.010  0.0872  0.1161 -0.0243
32951ION     NA48845   4.595   6.811  11.183  0.1234 -0.2410 -0.0766
32952ION     NA48846   2.095  14.503  15.903 -0.2056  0.0657  0.1188
32953ION     NA48847   7.563  14.203  11.065 -0.0227 -0.1495 -0.1652
32954ION     NA48848  15.570   2.150  11.029 -0.1081 -0.2751  0.3056
32955ION     NA48849   2.348  15.898  11.234  0.1699  0.1415  0.0610
32956ION     NA48850   9.545  12.578   6.242  0.3296  0.2124 -0.0720
32957ION     NA48851  16.716   6.329   4.612 -0.0649  0.1333  0.0631
32958ION     NA48852  15.294  14.370   4.468 -0.1242 -0.4944  0.3384
32959ION     NA48853  17.330   5.294  11.700 -0.0251 -0.1095 -0.1523
32960ION     NA48854   8.286  14.609  16.827 -0.2244 -0.0936  0.0026
32961ION     NA48855   1.144   7.499   6.659  0.2446 -0.1629  0.3784
32962ION     NA48856   1.060  14.696  11.135  0.1097  0.1222  0.2111
32963ION     NA48857  16.159   5.871  11.187 -0.2749 -0.2896  0.0981
32964ION     NA48858   4.201   6.175  15.903 -0.0709 -0.2066 -0.1714
32965ION     NA48859   6.954   8.839   2.295 -0.1136  0.1472 -0.3359
32966ION     NA48860   5.253   2.109  11.590 -0.1938  0.2045  0.0610
32967ION     NA48861  12.279  16.963   6.068 -0.3588 -0.3812 -0.1504
32968ION     NA48862  14.057  17.481  10.950 -0.2592 -0.1267 -0.0860
32969ION     NA48863  17.110   7.558  11.095 -0.2107  0.0758 -0.0121
32970ION     NA48864   9.413  13.676   2.038 -0.2384 -0.3629 -0.0086
32971ION     NA48865   4.887  16.964   2.274 -0.2319 -0.1614  0.0337
32972ION     NA48866   1.529   4.447  11.551  0.1751  0.0431 -0.1440
32973ION     NA48867   9.879   0.455  14.852 -0.0033 -0.1754 -0.0147
32974ION     NA48868  13.250   3.583  13.167 -0.0270  0.0021  0.3948
32975ION     NA48869   7.195   6.545  11.137  0.1389  0.0294  0.0003
32976ION     NA48870   3.873  17.085  11.263 -0.4721 -0.0381  0.1752
32977ION     NA48871   6.183  12.007  14.328 -0.1211  0.2200 -0.2947
32978ION     NA48872   9.660   8.633  10.266  0.2534 -0.0978  0.2570
32979ION     NA48873   8.516  14.179  11.100  0.1546  0.1540 -0.3466
32980ION     NA48874   9.036   1.369  11.704 -0.1681 -0.1677  0.2477
32981ION     NA48875  14.508   4.100  11.010  0.2613 -0.0556 -0.0144
32982ION     NA48876   3.946  13.948  12.087 -0.1832  0.1823  0.2895
32983ION     NA48877  15.746  10.313   6.481 -0.3241  0.0135  0.1022
32984ION     NA48878  11.720   0.568   6.036 -0.3164  0.0291 -0.2161
32985ION     NA48879   2.395   8.604  13.972 -0.3948  0.2031 -0.1040
32986ION     NA48880  11.280   6.947  10.213 -0.1105 -0.1139 -0.0951
32987ION     NA48881   4.762   3.776  11.219  0.0806 -0.3201 -0.1583
32988ION     NA48882   3.898   5.004   5.072 -0.2992 -0.0123 -0.0600
32989ION     NA48883   2.534  12.893  11.024 -0.1250  0.0335  0.0486
32990ION     NA48884   0.076   4.263  13.379  0.0733  0.0573  0.1667
32991ION     NA48885   7.818   2.789  15.314 -0.0053 -0.2556  0.1109
32992ION     NA48886  15.438  12.983  11.019 -0.1514 -0.0055  0.0497
32993ION     NA48887  14.133  10.729   4.232  0.1103  0.2650  0.0294
32994ION     NA48888   2.786  10.580  11.223  0.2008  0.1614  0.2954
32995ION     NA48889   5.711  11.659   0.393 -0.1726  0.1669  0.0299
32996ION     NA48890   0.982   7.714  12.664  0.0412 -0.2207 -0.1667
32997ION     NA48891   6.159  14.573  13.660  0.1959 -0.0888 -0.3215
32998ION     NA48892  15.770   7.521   1.098  0.0046 -0.0559 -0.1199
32999ION     NA48893  15.258  16.840  11.121  0.4166  0.0592 -0.1021
33000ION     NA48894  14.140  15.666   3.624 -0.1862 -0.1684  0.0115
33001ION     NA48895  10.112  14.452  16.024  0.1109 -0.3156  0.0317
33002ION     NA48896   6.197   6.776   2.342  0.0959 -0.0423 -0.2624
33003ION     NA48897   1.506  11.628  11.838 -0.0000 -0.1411  0.1515
33004ION     NA48898   7.402   1.519   2.392 -0.1573  0.4011 -0.1823
33005ION     NA48899  10.228  16.310  10.942  0.1470 -0.1283 -0.0481
33006ION     NA48900   6.551   9.325  10.937  0.0298 -0.1230 -0.4784
33007ION     NA48901  16.863  15.543  11.050 -0.2894 -0.2056  0.2979
33008ION     NA48902   4.881  12.379  10.823  0.1743 -0.3339 -0.3550
33009ION     NA48903   4.902  13.815  10.926  0.1180 -0.1763 -0.3926
33010ION     NA48904  13.974  13.877  10.843 -0.1131 -0.1201 -0.1611
33011ION     NA48905  15.748  12.354   5.936 -0.1595  0.1002 -0.2998
33012ION     NA48906  16.633  13.698   6.652 -0.0519  0.0516 -0.1499
33013ION     NA48907   7.213  12.588  10.951  0.1475  0.1144  0.1883
33014ION     NA48908  12.763   3.245   5.527 -0.1178  0.0854  0.2139
33015ION     NA48909   3.852   6.159  11.260 -0.2236 -0.2935 -0.0770
33016ION     NA48910  17.566  16.334  11.130 -0.2723  0.0512 -0.1095
33017ION     NA48911  14.763   3.313  12.224  0.0711  0.1344 -0.0871
33018ION     NA48912   8.153   6.150   2.520 -0.0046  0.0232 -0.1266
33019ION     NA48913  11.546   7.739  13.268 -0.1850  0.1103 -0.1444
33020ION     NA48914  13.514   4.725  10.917  0.1799  0.1174 -0.1763
33021ION     NA48915  12.683   3.997  10.867 -0.0725  0.1266  0.1097
33022ION     NA48916   6.638   2.449  11.221  0.0497  0.0321 -0.0375
33023ION     NA48917   4.084  12.088  11.099 -0.1484  0.0944 -0.0513
33024ION     NA48918   1.017   0.070  11.324  0.1579 -0.0746 -0.3099
33025ION     NA48919   5.686  16.363  10.985  0.1349 -0.2539 -0.2169
33026ION     NA48920   3.390   8.889  11.644  0.1329  0.0676 -0.1508
33027ION     NA48921  15.297   5.553  11.033  0.0426  0.1762 -0.0468
33028ION     NA48922  14.266  11.758  10.963  0.2381  0.1040 -0.0799
33029ION     NA48923   2.176   6.888  11.540  0.2562  0.1401 -0.1869
33030ION     NA48924  12.188  13.111   1.705 -0.0717 -0.1026 -0.0887
33031ION     NA48925  13.066  11.598  10.831  0.0569 -0.3151  0.2921
33032ION     NA48926  15.149   4.625  11.111  0.1932  0.0160 -0.0329
33033ION     NA48927   1.032  10.292  17.217 -0.1317 -0.1810 -0.0558
33034ION     NA48928   2.525  12.611  14.338 -0.0940  0.2156 -0.2651
33035ION     NA48929  16.319   0.471  11.221  0.1973 -0.0718  0.1542
33036ION     NA48930  10.184   9.364  10.279 -0.1575  0.3138  0.0089
33037ION     NA48931  14.597   1.577  11.009 -0.1084  0.2149  0.0648
33038ION     NA48932  12.363   7.632   6.147 -0.0055 -0.2943  0.0389
33039ION     NA48933   2.012   5.854  11.476 -0.0597  0.1385  0.2871
33040ION     NA48934   4.224   5.019   6.544  0.0810  0.0584  0.3330
33041ION     NA48935  14.438   6.811   4.716 -0.1321  0.2447 -0.1504
33042ION     NA48936   9.726   0.304  10.914 -0.0836  0.1070 -0.0184
33043ION     NA48937   5.986   8.568   0.195 -0.3872 -0.1957  0.1911
33044ION     NA48938   1.889   6.133   0.048 -0.0581  0.2912  0.1254
33045ION     NA48939   1.427   4.903   2.868 -0.0294 -0.0963  0.1203
33046ION     NA48940   8.864   0.234  11.044 -0.0543  0.0434 -0.0357
33047ION     NA48941   7.238   4.395   6.317 -0.0517  0.1228 -0.1160
33048ION     NA48942  10.085   1.050  10.992  0.2887  0.0694 -0.3496
33049ION     NA48943  17.298  11.722   3.259  0.2470 -0.2185  0.1261
33050ION     NA48944   0.046   2.411   3.241  0.0905  0.0879  0.0821
33051ION     NA48945  10.603   0.770  10.907  0.0599  0.2324  0.1986
33052ION     NA48946  14.816  13.678  11.222  0.0616 -0.0195  0.0923
33053ION     NA48947  11.070   6.867  17.193 -0.0313 -0.0948  0.1033
33054ION     NA48948  16.500  11.167  10.926 -0.0999 -0.0460 -0.3024
33055ION     NA48949   0.736   9.728  11.232 -0.0135 -0.1220  0.1125
33056ION     NA48950   3.745   7.151   2.469  0.1219 -0.1338  0.0196
33057ION     NA48951   3.464  11.609  11.074 -0.0053 -0.1367  0.0613
33058ION     NA48952   2.069  10.898  11.284  0.0624  0.0449 -0.2625
33059ION     NA48953   3.247   9.841  11.321  0.1220  0.0849  0.0020
33060ION     NA48954  16.489  15.798  11.436 -0.0510  0.0373  0.2677
33061ION     NA48955  11.593   8.298  10.294  0.1040 -0.1288 -0.1211
33062ION     NA48956   6.051  12.359   5.990  0.0746 -0.0844 -0.1026
33063ION     NA48957   3.066   7.622   0.125  0.1899 -0.0434  0.0794
33064ION     NA48958  14.942   7.775  10.777 -0.0758 -0.4078  0.0697
33065ION     NA48959   0.623   8.228  11.264  0.1673 -0.1185 -0.1065
33066ION     NA48960   0.988   3.248   4.573  0.1241  0.1005  0.2480
33067ION     NA48961  16.903  14.999  11.142 -0.3413  0.0126  0.0415
33068ION     NA48962   1.198   5.863  11.652 -0.0486  0.0167  0.0417
33069ION     NA48963   6.842  15.816  11.113 -0.2774  0.1107  0.0623
33070ION     NA48964   0.359   6.420  11.648  0.1212 -0.0671  0.1281
33071ION     NA48965   7.246   0.455   0.048  0.4552 -0.0466 -0.2738
33072ION     NA48966   5.800  13.966  16.545 -0.2122  0.2269  0.3231
33073ION     NA48967  14.324  12.040   6.548  0.3030  0.0554  0.2807
33074ION     NA48968   0.238   1.917  10.959 -0.1600 -0.1218 -0.0478
33075ION     NA48969  13.023   7.687  10.602 -0.0003  0.1681 -0.0555
33076ION     NA48970  10.892  11.649   5.687  0.1992  0.1172  0.0553
33077ION     NA48971  17.409   2.548  10.930  0.1340  0.1583 -0.3952
33078ION     NA48972  15.659   7.215  10.907 -0.0708  0.1771 -0.0789
33079ION     NA48973   4.222   8.479  11.177  0.0411  0.1923 -0.0052
33080ION     NA48974   7.392   9.885  10.834  0.3598  0.1046 -0.0044
33081ION     NA48975  13.366  13.301  11.075  0.1346  0.0688 -0.0523
33082ION     NA48976   1.553  16.173  14.351 -0.2319 -0.2978  0.5635
33083ION     NA48977  12.043   6.667   5.972  0.2834  0.0910 -0.1228
33084ION     NA48978  13.512   2.485  10.964  0.3140  0.0221 -0.1369
33085ION     NA48979   6.412   4.293  11.635 -0.0577  0.1583 -0.0622
33086ION     NA48980  17.177   3.408  11.174  0.0560 -0.0790  0.3169
33087ION     NA48981  10.093  13.175  10.836  0.0077  0.1166  0.0568
33088ION     NA48982  17.176  10.359  10.959 -0.0081  0.1567  0.1542
33089ION     NA48983   2.398   0.300  12.570  0.0175 -0.0763 -0.0276
33090ION     NA48984  10.720   6.122  16.835  0.1881 -0.2643 -0.1293
33091ION     NA48985   7.880  16.323   1.392 -0.1780  0.0359  0.0850
33092ION     NA48986   3.662   6.609  11.358  0.1715  0.0743  0.1161
33093ION     NA48987  13.808   4.228   6.077 -0.1222  0.0126  0.0490
33094ION     NA48988  10.706  12.574   3.295  0.1382 -0.2286  0.0271
33095ION     NA48989   7.672  15.429  12.355  0.0211  0.2603  0.0263
33096ION     NA48990  11.660  15.963  10.853 -0.0755  0.0973  0.2091
33097ION     NA48991   1.654   2.680  15.935 -0.2019 -0.0305  0.0197
33098ION     NA48992   1.659   0.817  11.433 -0.1944  0.1272 -0.0565
33099ION     NA48993  13.293  16.803  10.723 -0.0656  0.1088  0.4231
33100ION     NA48994  13.311  13.476  10.595  0.0505  0.2228 -0.1645
33101ION     NA48995  15.214   1.085   5.673  0.1298 -0.1140  0.0704
33102ION     NA48996   5.310   1.328   1.866 -0.0384 -0.1231  0.0365
33103ION     NA48997  12.351   4.499   6.163  0.2083  0.1204 -0.0412
33104ION     NA48998   3.089  17.612  11.583  0.2683 -0.3366  0.0447
33105ION     NA48999   7.483   8.906  10.885  0.0452  0.0449  0.1880
33106ION     NA49000   3.144  16.990  16.770 -0.0632  0.4828 -0.0142
33107ION     NA49001   0.179  13.542  11.206 -0.2370 -0.2658 -0.1682
33108ION     NA49002   6.845  16.330   6.656 -0.0057  0.4596  0.0663
33109ION     NA49003   6.061  14.900  11.561  0.3249  0.1626 -0.0263
33110ION     NA49004   2.580  11.673  11.092 -0.0307 -0.1484  0.1592
33111ION     NA49005   4.961  14.329  10.967  0.2417  0.0287 -0.1070
33112ION     NA49006  16.521   6.802  11.214 -0.1735  0.2176 -0.1721
33113ION     NA49007  11.002  11.792  10.678  0.1478 -0.2822  0.1615
33114ION     NA49008   5.472   5.098   6.577 -0.0378  0.1632 -0.0739
33115ION     NA49009   1.529   1.597  11.585 -0.1182  0.2306 -0.0814
33116ION     NA49010  10.733   1.966   3.962  0.2245 -0.2969  0.0934
33117ION     NA49011   4.821   5.902  11.248 -0.4089 -0.3163  0.2602
33118ION     NA49012  12.777   6.735   6.072 -0.4821  0.2486 -0.1502
33119ION     NA49013   9.402   3.560   0.157  0.0842  0.0584 -0.1758
33120ION     NA49014  16.597   9.253  10.944 -0.0850 -0.1572 -0.2015
33121ION     NA49015  13.675   9.590  11.001 -0.0200  0.1590  0.1364
33122ION     NA49016  13.908  10.813  10.948 -0.1345  0.0214 -0.2434
33123ION     NA49017   1.102   0.519   6.635  0.2083  0.0613  0.2026
33124ION     NA49018   4.279  14.702  16.599  0.0969 -0.1453  0.3870
33125ION     NA49019   5.681  17.192  11.354  0.0060 -0.1985  0.0975
33126ION     NA49020   7.368  11.012  11.038  0.2415 -0.0207  0.2053
33127ION     NA49021   7.693   2.200  11.213  0.0828  0.0539 -0.1364
33128ION     NA49022  14.864  12.244  11.051  0.1745  0.1256 -0.0989
33129ION     NA49023  12.113  13.025  10.893 -0.2338  0.0197  0.2972
33130ION     NA49024   2.007   2.993  11.344 -0.1271  0.0266 -0.0039
33131ION     NA49025  17.282  11.833  16.490 -0.0997 -0.3742  0.0967
33132ION     NA49026   7.225  11.641   1.267 -0.2041 -0.2218  0.0288
33133ION     NA49027  12.193  14.503  12.387  0.1818  0.0911  0.1700
33134ION     NA49028  13.668  10.679   5.996 -0.0499  0.1102 -0.0164
33135ION     NA49029   7.703  10.081   0.935 -0.0543 -0.2069  0.1069
33136ION     NA49030   8.609   1.942  11.077 -0.2938 -0.2596 -0.0431
33137ION     NA49031   9.800   1.012   2.039 -0.0329  0.1754  0.0652
33138ION     NA49032  12.780  16.020  10.690 -0.0246  0.1422  0.3380
33139ION     NA49033  16.955   2.485   4.003 -0.0193  0.3764  0.2449
33140ION     NA49034   4.039   5.945   6.517 -0.3170 -0.1726  0.1148
33141ION     NA49035   4.420  11.234   3.569  0.1782  0.0729  0.0640
33142ION     NA49036   7.809  13.622   4.739 -0.4617  0.2178 -0.1367
33143ION     NA49037  16.730   3.079  11.033 -0.1433  0.3706 -0.2440
33144ION     NA49038  15.192   6.522  11.112 -0.2184 -0.2347  0.1396
33145ION     NA49039   5.760   4.086   6.447 -0.0145 -0.1007  0.0918
33146ION     NA49040   3.908   5.975   4.704  0.0947 -0.0937 -0.1728
33147ION     NA49041  11.231  14.464  11.171  0.1742  0.2942  0.2859
33148ION     NA49042   4.108  11.949  11.577  0.1106 -0.0043 -0.0889
33149ION     NA49043  11.658  13.629  10.832 -0.1669  0.1863  0.0197
33150ION     NA49044  16.385  14.285  11.140 -0.0836  0.1633  0.1491
33151ION     NA49045  12.878   8.361  13.838  0.2869  0.1411  0.1794
33152ION     NA49046   1.227  17.484  13.989 -0.2571 -0.1294 -0.2194
33153ION     NA49047   8.419   2.547   6.443  0.1652  0.0899  0.3149
33154ION     NA49048   2.272   2.184  11.144  0.2390 -0.0357  0.0383
33155ION     NA49049  13.128  15.116  10.856 -0.0005 -0.4536  0.1036
33156ION     NA49050  14.517   5.633  11.466  0.2017 -0.1519 -0.2053
33157ION     NA49051   9.034   7.867   5.560 -0.1339  0.2361  0.3030
33158ION     NA49052  16.868   9.735  11.085 -0.0900 -0.1559 -0.3060
33159ION     NA49053  10.852  13.927  10.863 -0.0096 -0.0747 -0.2648
33160ION     NA49054  15.059   9.264  11.063 -0.1237 -0.1354 -0.0344
33161ION     NA49055  15.317  16.198   6.040 -0.3571  0.1301 -0.1370
33162ION     NA49056  14.359  17.266   2.064  0.0601  0.1395  0.2573
33163ION     NA49057  15.550  11.984  11.346 -0.0141 -0.3384 -0.0290
33164ION     NA49058   7.203   3.011   4.829  0.0433  0.2157  0.2068
33165ION     NA49059  10.692   7.739  10.076  0.1022 -0.1229  0.0996
33166ION     NA49060   7.329  15.651   6.440 -0.5145 -0.1283  0.1849
33167ION     NA49061  15.807   8.839  11.140 -0.1898  0.1704 -0.0544
33168ION     NA49062  13.647   3.612  10.954 -0.0077  0.2323 -0.1058
33169ION     NA49063  11.781   0.664  13.811 -0.1593 -0.0301 -0.2335
33170ION     NA49064   6.648   2.935   5.777 -0.0393  0.1079 -0.2608
33171ION     NA49065  12.959  14.562  13.319 -0.3916 -0.0437 -0.0087
33172ION     NA49066  14.147   9.093   5.889 -0.2519 -0.0876  0.0485
33173ION     NA49067   6.115  15.924   6.754  0.1412  0.1289  0.2657
33174ION     NA49068  10.030   0.868   6.559  0.1578 -0.0628 -0.0970
33175ION     NA49069   4.721   8.427  15.588 -0.1372  0.0991 -0.1416
  17.63979  17.63979  17.29993
